 Gaussian 16, Revision A.03,
 Gaussian 16:  ES64L-G16RevA.03 25-Dec-2016

 --------------------------------------
 #P UB3LYP/6-311++G(d,p) nosym opt freq
 --------------------------------------

 --------
 Oxidized
 --------
 Symbolic Z-matrix:
 Charge =  0 Multiplicity = 1

 SCF Done:  E(UB3LYP) =  -655.618034971     A.U. after   15 cycles
 SCF Done:  E(UB3LYP) =  -655.618035063     A.U. after    9 cycles
 SCF Done:  E(UB3LYP) =  -655.618035325     A.U. after   10 cycles
 SCF Done:  E(UB3LYP) =  -655.618035760     A.U. after   10 cycles
 SCF Done:  E(UB3LYP) =  -655.618044276     A.U. after   15 cycles
 SCF Done:  E(UB3LYP) =  -655.617923010     A.U. after   15 cycles
 SCF Done:  E(UB3LYP) =  -655.618136493     A.U. after   14 cycles
 SCF Done:  E(UB3LYP) =  -655.618177860     A.U. after   15 cycles
 SCF Done:  E(UB3LYP) =  -655.618478728     A.U. after   15 cycles
 SCF Done:  E(UB3LYP) =  -655.618833889     A.U. after   13 cycles
 SCF Done:  E(UB3LYP) =  -655.621790493     A.U. after   10 cycles
 SCF Done:  E(UB3LYP) =  -655.621790735     A.U. after    9 cycles
 SCF Done:  E(UB3LYP) =  -655.621790855     A.U. after   10 cycles
 SCF Done:  E(UB3LYP) =  -655.621790912     A.U. after    9 cycles
 SCF Done:  E(UB3LYP) =  -655.621791025     A.U. after    9 cycles
 SCF Done:  E(UB3LYP) =  -655.621791113     A.U. after   10 cycles
 SCF Done:  E(UB3LYP) =  -655.621791188     A.U. after    9 cycles
 SCF Done:  E(UB3LYP) =  -655.621791246     A.U. after    9 cycles
 SCF Done:  E(UB3LYP) =  -655.621791254     A.U. after    8 cycles
 Optimization completed.
    -- Stationary point found.
 Normal termination of Gaussian 16 at Tue Jan 16 03:59:02 2024.

 ----------------------------------------------------------------------
 #P Geom=AllCheck Guess=TCheck SCRF=Check GenChk UB3LYP/6-311++G(d,p) F
 req
 ----------------------------------------------------------------------

 Structure from the checkpoint file:  "040.chk"
 --------
 Oxidized
 --------
 Charge =  0 Multiplicity = 1

                          Input orientation:
 ---------------------------------------------------------------------
 Center     Atomic      Atomic             Coordinates (Angstroms)
 Number     Number       Type             X           Y           Z
 ---------------------------------------------------------------------
      1          6           0        0.653408    1.417703    0.401265
      2          6           0       -0.523338    0.602954    0.039078
      3          6           0       -0.418184   -0.661242   -0.397429
      4          6           0        0.944300   -1.273574   -0.519515
      5          6           0        2.148128   -0.464506   -0.153108
      6          6           0        2.014948    0.810912    0.278368
      7          6           0        3.187894    1.671115    0.653833
      8          6           0        3.486795   -1.134214   -0.295957
      9          8           0        0.506260    2.566384    0.795428
     10          8           0        1.061079   -2.424291   -0.913883
     11          6           0       -1.587791   -1.542766   -0.770198
     12          6           0       -2.906908   -0.832243   -0.888125
     13          6           0       -3.982716   -0.954484   -0.099656
     14          6           0       -4.062939   -1.841510    1.116652
     15          6           0       -5.244563   -0.180088   -0.391558
     16          1           0       -1.484238    1.091891    0.153901
     17          1           0        3.883996    1.772701   -0.184800
     18          1           0        3.749797    1.227170    1.482155
     19          1           0        2.851886    2.662401    0.953201
     20          1           0        3.366434   -2.166137   -0.620436
     21          1           0        4.032977   -1.123675    0.652371
     22          1           0        4.109444   -0.609521   -1.028112
     23          1           0       -1.629683   -2.367352   -0.052324
     24          1           0       -1.341018   -2.026570   -1.722663
     25          1           0       -2.979890   -0.147697   -1.731783
     26          1           0       -3.137481   -2.377307    1.326066
     27          1           0       -4.863172   -2.581380    0.999575
     28          1           0       -4.314998   -1.248435    2.003126
     29          1           0       -5.140651    0.449000   -1.277609
     30          1           0       -5.514968    0.461362    0.455219
     31          1           0       -6.090262   -0.859066   -0.551736
 ---------------------------------------------------------------------

 SCF Done:  E(UB3LYP) =  -655.621791254     A.U. after    1 cycles

 Alpha  occ. eigenvalues --  -19.13466 -19.13012 -10.27950 -10.27539 -10.21571
 Alpha  occ. eigenvalues --  -10.21155 -10.21074 -10.19816 -10.18913 -10.18884
 Alpha  occ. eigenvalues --  -10.17826 -10.17793 -10.17259 -10.17214 -10.17031
 Alpha  occ. eigenvalues --   -1.06630  -1.05980  -0.86815  -0.83735  -0.81292
 Alpha  occ. eigenvalues --   -0.75289  -0.75084  -0.70266  -0.69383  -0.68891
 Alpha  occ. eigenvalues --   -0.64636  -0.59545  -0.57816  -0.54042  -0.52149
 Alpha  occ. eigenvalues --   -0.49180  -0.48055  -0.46454  -0.46212  -0.45261
 Alpha  occ. eigenvalues --   -0.44403  -0.43388  -0.43097  -0.42584  -0.42226
 Alpha  occ. eigenvalues --   -0.41745  -0.41287  -0.40369  -0.39473  -0.39438
 Alpha  occ. eigenvalues --   -0.38426  -0.38321  -0.37905  -0.36874  -0.34298
 Alpha  occ. eigenvalues --   -0.29730  -0.28546  -0.27571  -0.27074  -0.25027
 Alpha virt. eigenvalues --   -0.12582  -0.02252  -0.01459  -0.00942  -0.00144
 Alpha virt. eigenvalues --    0.00607   0.00809   0.01082   0.01729   0.02327
 Alpha virt. eigenvalues --    0.02735   0.03363   0.03648   0.03883   0.04222

  Beta  occ. eigenvalues --  -19.13466 -19.13012 -10.27950 -10.27539 -10.21571
  Beta  occ. eigenvalues --  -10.21155 -10.21074 -10.19816 -10.18913 -10.18884
  Beta  occ. eigenvalues --  -10.17826 -10.17793 -10.17259 -10.17214 -10.17031
  Beta  occ. eigenvalues --   -1.06630  -1.05980  -0.86815  -0.83735  -0.81292
  Beta  occ. eigenvalues --   -0.75289  -0.75084  -0.70266  -0.69383  -0.68891
  Beta  occ. eigenvalues --   -0.64636  -0.59545  -0.57816  -0.54042  -0.52149
  Beta  occ. eigenvalues --   -0.49180  -0.48055  -0.46454  -0.46212  -0.45261
  Beta  occ. eigenvalues --   -0.44403  -0.43388  -0.43097  -0.42584  -0.42226
  Beta  occ. eigenvalues --   -0.41745  -0.41287  -0.40369  -0.39473  -0.39438
  Beta  occ. eigenvalues --   -0.38426  -0.38321  -0.37905  -0.36874  -0.34298
  Beta  occ. eigenvalues --   -0.29730  -0.28546  -0.27571  -0.27074  -0.25027
  Beta virt. eigenvalues --   -0.12582  -0.02252  -0.01459  -0.00942  -0.00144
  Beta virt. eigenvalues --    0.00607   0.00809   0.01082   0.01729   0.02327
  Beta virt. eigenvalues --    0.02735   0.03363   0.03648   0.03883   0.04222

 Mulliken charges and spin densities:
               1          2
     1  C   -1.000669   0.000000
     2  C   -1.020053   0.000000
     3  C    1.354974   0.000000
     4  C   -1.132027  -0.000000
     5  C    0.283590  -0.000000
     6  C    1.134006   0.000000
     7  C   -0.402132  -0.000000
     8  C   -0.459375   0.000000
     9  O   -0.216890  -0.000000
    10  O   -0.200256  -0.000000
    11  C   -0.460675  -0.000000
    12  C    0.401746   0.000000
    13  C    0.194791  -0.000000
    14  C   -0.607674   0.000000
    15  C   -0.580986   0.000000
    16  H    0.218826   0.000000
    17  H    0.155845   0.000000
    18  H    0.159028  -0.000000
    19  H    0.209486  -0.000000
    20  H    0.213948  -0.000000
    21  H    0.153605   0.000000
    22  H    0.159708   0.000000
    23  H    0.199427  -0.000000
    24  H    0.217865   0.000000
    25  H    0.171592  -0.000000
    26  H    0.118335  -0.000000
    27  H    0.146787  -0.000000
    28  H    0.150709   0.000000
    29  H    0.148335   0.000000
    30  H    0.147935   0.000000
    31  H    0.140198  -0.000000
 Sum of Mulliken charges =  -0.00000  -0.00000

 Dipole moment (field-independent basis, Debye):
    X=             -0.1068    Y=             -0.6713    Z=              0.1676  Tot=              0.7001
 Quadrupole moment (field-independent basis, Debye-Ang):
   XX=            -76.0559   YY=           -105.1016   ZZ=            -91.3128
   XY=              3.8273   XZ=              0.1170   YZ=             -6.1632

  Exact polarizability: 196.346   5.599 175.844  -5.694  19.570 118.409
 Approx polarizability: 231.716  -9.396 335.822 -17.773  55.308 194.242

                      1                      2                      3
                      A                      A                      A
 Frequencies --     25.5375                28.1605                30.8729
 Red. masses --      2.9313                 3.4688                 1.0669
 Frc consts  --      0.0011                 0.0016                 0.0006
 IR Inten    --      0.2330                 0.6729                 0.0060

                      4                      5                      6
                      A                      A                      A
 Frequencies --     60.5435                75.1016                81.1340
 Red. masses --      4.2474                 2.9840                 1.1330
 Frc consts  --      0.0092                 0.0099                 0.0044
 IR Inten    --      6.6388                 1.0439                 0.0717

                      7                      8                      9
                      A                      A                      A
 Frequencies --    106.0997               134.9658               144.0808
 Red. masses --      3.5746                 1.0568                 4.7616
 Frc consts  --      0.0237                 0.0113                 0.0582
 IR Inten    --      0.0015                 0.0962                 1.7974

                     10                     11                     12
                      A                      A                      A
 Frequencies --    181.4544               214.7491               253.3799
 Red. masses --      1.3311                 2.6856                 3.3727
 Frc consts  --      0.0258                 0.0730                 0.1276
 IR Inten    --      0.7548                 1.0060                 0.1302

                     13                     14                     15
                      A                      A                      A
 Frequencies --    279.7872               299.1884               309.3095
 Red. masses --      3.0645                 2.4624                 2.6422
 Frc consts  --      0.1413                 0.1299                 0.1489
 IR Inten    --      0.1057                 0.7310                 0.7574

                     16                     17                     18
                      A                      A                      A
 Frequencies --    337.6090               361.7885               400.4746
 Red. masses --      3.9844                 3.2215                 2.4289
 Frc consts  --      0.2676                 0.2484                 0.2295
 IR Inten    --      0.6359                 0.4250                 0.0479

                     19                     20                     21
                      A                      A                      A
 Frequencies --    420.3990               443.1698               463.7136
 Red. masses --      8.4576                 3.1218                 4.8901
 Frc consts  --      0.8807                 0.3612                 0.6195
 IR Inten    --     28.1370                 3.8451                 1.3824

                     22                     23                     24
                      A                      A                      A
 Frequencies --    490.8369               497.9858               532.4637
 Red. masses --      4.6395                 3.3951                 2.9482
 Frc consts  --      0.6586                 0.4961                 0.4925
 IR Inten    --      1.5754                 0.2258                 5.5573

                     25                     26                     27
                      A                      A                      A
 Frequencies --    592.1036               670.8546               696.2014
 Red. masses --      4.1750                 3.4845                 3.7796
 Frc consts  --      0.8624                 0.9239                 1.0794
 IR Inten    --      4.1886                 4.2977                 2.9609

                     28                     29                     30
                      A                      A                      A
 Frequencies --    700.3107               776.3025               793.0482
 Red. masses --      5.4489                 3.0210                 4.8049
 Frc consts  --      1.5745                 1.0727                 1.7805
 IR Inten    --      4.6316                 1.7847                 0.9300

                     31                     32                     33
                      A                      A                      A
 Frequencies --    835.5744               875.9926               902.9300
 Red. masses --      1.9958                 1.8762                 1.5867
 Frc consts  --      0.8210                 0.8482                 0.7622
 IR Inten    --     10.4370                 9.7692                18.0001

                     34                     35                     36
                      A                      A                      A
 Frequencies --    926.6730               959.0188               963.2253
 Red. masses --      3.1691                 1.5880                 1.5412
 Frc consts  --      1.6034                 0.8605                 0.8425
 IR Inten    --      7.9712                 3.2630                 5.2573

                     37                     38                     39
                      A                      A                      A
 Frequencies --   1002.5037              1013.1143              1022.4994
 Red. masses --      1.8414                 1.2542                 1.4506
 Frc consts  --      1.0904                 0.7585                 0.8936
 IR Inten    --     32.9092                 6.6446                 0.2214

                     40                     41                     42
                      A                      A                      A
 Frequencies --   1044.7750              1057.0834              1102.1157
 Red. masses --      2.0160                 1.5392                 1.6882
 Frc consts  --      1.2965                 1.0134                 1.2081
 IR Inten    --      1.5881                 0.0410                 0.1207

                     43                     44                     45
                      A                      A                      A
 Frequencies --   1105.3908              1124.4173              1132.6711
 Red. masses --      3.3156                 2.1220                 2.0127
 Frc consts  --      2.3869                 1.5807                 1.5213
 IR Inten    --     39.4508                 0.1869                 7.8849

                     46                     47                     48
                      A                      A                      A
 Frequencies --   1175.4920              1188.0071              1249.9196
 Red. masses --      2.7950                 1.5800                 1.8994
 Frc consts  --      2.2754                 1.3139                 1.7483
 IR Inten    --     31.3329                 3.8321                63.5770

                     49                     50                     51
                      A                      A                      A
 Frequencies --   1261.5239              1309.2124              1316.3892
 Red. masses --      2.0012                 2.0932                 3.8094
 Frc consts  --      1.8765                 2.1138                 3.8893
 IR Inten    --     43.9834                37.7068                69.5702

                     52                     53                     54
                      A                      A                      A
 Frequencies --   1371.7963              1392.9066              1403.4277
 Red. masses --      1.5743                 1.6327                 1.3905
 Frc consts  --      1.7455                 1.8663                 1.6137
 IR Inten    --      5.8332                 5.1178                10.5724

                     55                     56                     57
                      A                      A                      A
 Frequencies --   1408.0256              1411.5621              1420.9946
 Red. masses --      1.2089                 1.3795                 1.2572
 Frc consts  --      1.4121                 1.6195                 1.4956
 IR Inten    --     19.2621                11.3503                 3.2000

                     58                     59                     60
                      A                      A                      A
 Frequencies --   1457.9653              1472.1588              1479.2454
 Red. masses --      1.0979                 1.0454                 1.0648
 Frc consts  --      1.3751                 1.3349                 1.3728
 IR Inten    --     10.0923                 0.3935                 0.8659

                     61                     62                     63
                      A                      A                      A
 Frequencies --   1481.7877              1487.2688              1488.1963
 Red. masses --      1.1044                 1.0498                 1.0448
 Frc consts  --      1.4287                 1.3682                 1.3633
 IR Inten    --     35.5492                11.4468                 0.0498

                     64                     65                     66
                      A                      A                      A
 Frequencies --   1491.8174              1497.6504              1501.6894
 Red. masses --      1.0431                 1.0830                 1.0449
 Frc consts  --      1.3678                 1.4312                 1.3883
 IR Inten    --     12.8726                 5.6566                22.3058

                     67                     68                     69
                      A                      A                      A
 Frequencies --   1652.7896              1689.8529              1704.5779
 Red. masses --      8.7101                10.3320                12.5939
 Frc consts  --     14.0188                17.3833                21.5598
 IR Inten    --     61.0546                 5.2205               442.5454

                     70                     71                     72
                      A                      A                      A
 Frequencies --   1709.7781              1728.4185              3007.0660
 Red. masses --      9.1762                 6.4255                 1.0383
 Frc consts  --     15.8050                11.3098                 5.5318
 IR Inten    --     31.5340                 4.9200                26.3919

                     73                     74                     75
                      A                      A                      A
 Frequencies --   3014.6238              3022.5651              3025.8495
 Red. masses --      1.0405                 1.0398                 1.0409
 Frc consts  --      5.5715                 5.5971                 5.6152
 IR Inten    --     50.4941                32.1106                 1.1359

                     76                     77                     78
                      A                      A                      A
 Frequencies --   3027.1890              3049.1853              3053.1435
 Red. masses --      1.0670                 1.0994                 1.0988
 Frc consts  --      5.7611                 6.0223                 6.0346
 IR Inten    --      3.9941                 6.8915                30.8435

                     79                     80                     81
                      A                      A                      A
 Frequencies --   3058.5581              3064.4691              3071.9535
 Red. masses --      1.0914                 1.0990                 1.0992
 Frc consts  --      6.0156                 6.0809                 6.1115
 IR Inten    --      3.0751                24.6632                 0.2639

                     82                     83                     84
                      A                      A                      A
 Frequencies --   3099.6164              3116.4275              3118.5603
 Red. masses --      1.0992                 1.0882                 1.0947
 Frc consts  --      6.2221                 6.2271                 6.2728
 IR Inten    --     16.8959                15.7028                33.5247

                     85                     86                     87
                      A                      A                      A
 Frequencies --   3137.4886              3139.5797              3182.5268
 Red. masses --      1.0970                 1.0969                 1.0915
 Frc consts  --      6.3623                 6.3701                 6.5136
 IR Inten    --      3.3837                 4.1358                 0.8884

 - Thermochemistry -
 -------------------
 Temperature   298.150 Kelvin.  Pressure   1.00000 Atm.
 Atom     1 has atomic number  6 and mass  12.00000

 Molecular mass:   204.11503 amu.
 Principal axes and moments of inertia in atomic units:
                           1         2         3
     Eigenvalues --  1689.577005698.338176962.15646
           X            0.97937  -0.19982   0.02997
           Y            0.19983   0.93599  -0.28982
           Z            0.02986   0.28984   0.95661
 This molecule is an asymmetric top.
 Rotational symmetry number  1.
 Warning -- assumption of classical behavior for rotation
           may cause significant error
 Rotational temperatures (Kelvin)      0.05126     0.01520     0.01244
 Rotational constants (GHZ):           1.06816     0.31671     0.25922
 Zero-point vibrational energy     672366.3 (Joules/Mol)
                                  160.69940 (Kcal/Mol)
 Warning -- explicit consideration of  25 degrees of freedom as
           vibrations may cause significant error
 Vibrational temperatures:     36.74    40.52    44.42    87.11   108.05
          (Kelvin)            116.73   152.65   194.19   207.30   261.07
                              308.98   364.56   402.55   430.47   445.03
                              485.74   520.53   576.19   604.86   637.62
                              667.18   706.20   716.49   766.10   851.91
                              965.21  1001.68  1007.59  1116.93  1141.02
                             1202.21  1260.36  1299.11  1333.28  1379.81
                             1385.87  1442.38  1457.65  1471.15  1503.20
                             1520.91  1585.70  1590.41  1617.79  1629.66
                             1691.27  1709.28  1798.36  1815.05  1883.66
                             1893.99  1973.71  2004.08  2019.22  2025.83
                             2030.92  2044.49  2097.69  2118.11  2128.30
                             2131.96  2139.85  2141.18  2146.39  2154.78
                             2160.60  2378.00  2431.32  2452.51  2459.99
                             2486.81  4326.50  4337.37  4348.80  4353.52
                             4355.45  4387.10  4392.79  4400.58  4409.09
                             4419.86  4459.66  4483.84  4486.91  4514.15
                             4517.15  4578.95

 Zero-point correction=                           0.256091 (Hartree/Particle)
 Thermal correction to Energy=                    0.272814
 Thermal correction to Enthalpy=                  0.273758
 Thermal correction to Gibbs Free Energy=         0.209429
 Sum of electronic and zero-point Energies=           -655.365700
 Sum of electronic and thermal Energies=              -655.348977
 Sum of electronic and thermal Enthalpies=            -655.348033
 Sum of electronic and thermal Free Energies=         -655.412362

                     E (Thermal)             CV                S
                      KCal/Mol        Cal/Mol-Kelvin    Cal/Mol-Kelvin
 Total                  171.193             59.811            135.391
 Electronic               0.000              0.000              0.000
 Translational            0.889              2.981             41.845
 Rotational               0.889              2.981             32.572
 Vibrational            169.416             53.849             60.975
 Vibration     1          0.593              1.985              6.149
 Vibration     2          0.593              1.984              5.955
 Vibration     3          0.594              1.984              5.773
 Vibration     4          0.597              1.973              4.439
 Vibration     5          0.599              1.966              4.015
 Vibration     6          0.600              1.962              3.863
 Vibration     7          0.605              1.944              3.339
 Vibration     8          0.613              1.918              2.874
 Vibration     9          0.616              1.909              2.749
 Vibration    10          0.630              1.865              2.313
 Vibration    11          0.645              1.819              2.003
 Vibration    12          0.665              1.757              1.707
 Vibration    13          0.680              1.711              1.535
 Vibration    14          0.692              1.675              1.421
 Vibration    15          0.699              1.656              1.366
 Vibration    16          0.718              1.600              1.223
 Vibration    17          0.736              1.551              1.114
 Vibration    18          0.766              1.469              0.961
 Vibration    19          0.783              1.426              0.891
 Vibration    20          0.803              1.376              0.817
 Vibration    21          0.821              1.331              0.755
 Vibration    22          0.847              1.270              0.681
 Vibration    23          0.853              1.254              0.663
 Vibration    24          0.887              1.178              0.582
 Vibration    25          0.950              1.049              0.463

 Optimization completed.
    -- Stationary point found.
 Normal termination of Gaussian 16 at Tue Jan 16 04:27:44 2024.
