 Q-Chem 5.4, Q-Chem, Inc., Pleasanton, CA (2021)
 Q-Chem 5.4.0 for Intel X86 EM64T Linux

User input:
--------------------------------------------------------------
$molecule
-1 2
O                 -4.9263760000      0.9830950000      0.1946170000
C                 -3.6781340000      0.3876560000      0.1218060000
C                 -3.6472800000     -1.0185120000      0.0255100000
C                 -2.4260150000     -1.6573580000     -0.0497250000
C                 -1.2104750000     -0.9432900000     -0.0328410000
C                  0.0565600000     -1.6757890000     -0.1152550000
O                  0.0986650000     -2.9250860000     -0.2020910000
C                  1.2711840000     -0.8555280000     -0.0913270000
C                  2.5319920000     -1.4819910000     -0.1664990000
C                  3.7072500000     -0.7583600000     -0.1476760000
C                  3.6432080000      0.6466670000     -0.0506500000
O                  4.8483390000      1.3288320000     -0.0356200000
C                  2.4298630000      1.2937970000      0.0245530000
C                  1.2183610000      0.5647710000      0.0064440000
C                 -0.0435950000      1.2917380000      0.0882010000
O                 -0.0860700000      2.5517410000      0.1762560000
C                 -1.2535700000      0.4773560000      0.0647320000
C                 -2.5113110000      1.1190020000      0.1410560000
H                 -4.7961510000      1.9349680000      0.2567960000
H                 -4.5811250000     -1.5692130000      0.0124960000
H                 -2.3670630000     -2.7372330000     -0.1244920000
H                  2.5460210000     -2.5634620000     -0.2401360000
H                  4.6760330000     -1.2417190000     -0.2054170000
H                  4.6543670000      2.2691800000      0.0351260000
H                  2.3614830000      2.3756400000      0.0995460000
H                 -2.5161610000      2.2030950000      0.2145890000
$end

$rem
BASIS  =  6-311++G(d,p)
GUI  =  2
JOB_TYPE  =  SP
METHOD  =  B3LYP
SCF_CONVERGENCE  = 8
SOLVENT_METHOD = sm12
$end

$smx
solvent dimethylformamide
charges CM5
$end

--------------------------------------------------------------

             Standard Nuclear Orientation (Angstroms)
    I     Atom           X                Y                Z
 ----------------------------------------------------------------
    1      O      -4.9263760000     0.9830950000     0.1946170000
    2      C      -3.6781340000     0.3876560000     0.1218060000
    3      C      -3.6472800000    -1.0185120000     0.0255100000
    4      C      -2.4260150000    -1.6573580000    -0.0497250000
    5      C      -1.2104750000    -0.9432900000    -0.0328410000
    6      C       0.0565600000    -1.6757890000    -0.1152550000
    7      O       0.0986650000    -2.9250860000    -0.2020910000
    8      C       1.2711840000    -0.8555280000    -0.0913270000
    9      C       2.5319920000    -1.4819910000    -0.1664990000
   10      C       3.7072500000    -0.7583600000    -0.1476760000
   11      C       3.6432080000     0.6466670000    -0.0506500000
   12      O       4.8483390000     1.3288320000    -0.0356200000
   13      C       2.4298630000     1.2937970000     0.0245530000
   14      C       1.2183610000     0.5647710000     0.0064440000
   15      C      -0.0435950000     1.2917380000     0.0882010000
   16      O      -0.0860700000     2.5517410000     0.1762560000
   17      C      -1.2535700000     0.4773560000     0.0647320000
   18      C      -2.5113110000     1.1190020000     0.1410560000
   19      H      -4.7961510000     1.9349680000     0.2567960000
   20      H      -4.5811250000    -1.5692130000     0.0124960000
   21      H      -2.3670630000    -2.7372330000    -0.1244920000
   22      H       2.5460210000    -2.5634620000    -0.2401360000
   23      H       4.6760330000    -1.2417190000    -0.2054170000
   24      H       4.6543670000     2.2691800000     0.0351260000
   25      H       2.3614830000     2.3756400000     0.0995460000
   26      H      -2.5161610000     2.2030950000     0.2145890000
 ----------------------------------------------------------------

   17    -839.5150901015      9.09e-09  Convergence criterion met
 Total energy in the final basis set =     -839.6091514149

                    Orbital Energies (a.u.)
 --------------------------------------------------------------

 Alpha MOs
 -- Occupied --
-19.1616 -19.1616 -19.0775 -19.0742 -10.2428 -10.2427 -10.2298 -10.2203
-10.1825 -10.1825 -10.1819 -10.1818 -10.1798 -10.1798 -10.1747 -10.1747
-10.1745 -10.1745  -1.0678  -1.0677  -1.0047  -0.9971  -0.8661  -0.8570
 -0.7892  -0.7591  -0.7588  -0.7422  -0.6730  -0.6591  -0.6224  -0.6206
 -0.5673  -0.5609  -0.5575  -0.5217  -0.5007  -0.4827  -0.4713  -0.4478
 -0.4362  -0.4361  -0.4332  -0.4304  -0.4177  -0.4170  -0.4066  -0.4011
 -0.3912  -0.3814  -0.3797  -0.3730  -0.3535  -0.3444  -0.3436  -0.3209
 -0.2672  -0.2663  -0.2475  -0.2464  -0.2380  -0.2336  -0.1431

 Beta MOs
 -- Occupied --
-19.1615 -19.1615 -19.0727 -19.0675 -10.2426 -10.2426 -10.2287 -10.2183
-10.1828 -10.1828 -10.1811 -10.1810 -10.1792 -10.1792 -10.1742 -10.1742
-10.1738 -10.1738  -1.0675  -1.0675  -0.9964  -0.9853  -0.8635  -0.8559
 -0.7854  -0.7576  -0.7561  -0.7407  -0.6658  -0.6576  -0.6205  -0.6192
 -0.5647  -0.5597  -0.5570  -0.5200  -0.4994  -0.4797  -0.4708  -0.4460
 -0.4355  -0.4353  -0.4293  -0.4257  -0.4157  -0.4146  -0.4004  -0.3930
 -0.3906  -0.3803  -0.3723  -0.3562  -0.3525  -0.3423  -0.3413  -0.3091
 -0.2617  -0.2499  -0.2413  -0.2349  -0.2325  -0.2293

          Ground-State Mulliken Net Atomic Charges

     Atom                 Charge (a.u.)    Spin (a.u.)
  --------------------------------------------------------
      1 O                    -0.139231       0.003115
      2 C                     1.197040       0.009515
      3 C                     0.975249       0.047059
      4 C                     0.070455       0.000357
      5 C                    -1.183949       0.030354
      6 C                    -2.381734       0.050614
      7 O                    -0.307760       0.178591
      8 C                    -1.183806       0.030397
      9 C                     0.071352       0.000374
     10 C                     0.974915       0.047016
     11 C                     1.197960       0.009516
     12 O                    -0.139182       0.003117
     13 C                     0.514530       0.072116
     14 C                    -0.446189       0.047132
     15 C                    -1.978134       0.116392
     16 O                    -0.309533       0.253416
     17 C                    -0.446261       0.047199
     18 C                     0.513162       0.072137
     19 H                     0.355933      -0.000083
     20 H                     0.326797      -0.003777
     21 H                     0.162831       0.000017
     22 H                     0.162868       0.000019
     23 H                     0.326805      -0.003773
     24 H                     0.355944      -0.000082
     25 H                     0.154982      -0.005372
     26 H                     0.154958      -0.005368
  --------------------------------------------------------
  Sum of atomic charges =    -1.000000

                    Cartesian Multipole Moments
 -----------------------------------------------------------------
    Charge (ESU x 10^10)
                -4.8032
    Dipole Moment (Debye)
         X      -0.0940      Y       2.8270      Z       0.1983
       Tot       2.8356
    Quadrupole Moments (Debye-Ang)
        XX    -125.5509     XY       0.0447     YY    -127.5793
        XZ       0.3983     YZ      -1.1373     ZZ    -110.8064

 Total job time:  616.99s(wall), 4741.40s(cpu)
        *  Thank you very much for using Q-Chem.  Have a nice day.  *
