 Q-Chem 5.4, Q-Chem, Inc., Pleasanton, CA (2021)
 Q-Chem 5.4.0 for Intel X86 EM64T Linux

User input:
--------------------------------------------------------------
$molecule
-2 1
C                 -1.2954710000      2.1049270000      0.5864480000
C                 -2.4965310000      1.4063430000      0.2286040000
C                 -2.6246850000      0.1274750000     -0.3090710000
C                 -1.4829040000     -0.6947020000     -0.5852750000
C                 -0.2461600000     -0.0538830000     -0.2498650000
C                 -0.1942360000      1.2306760000      0.2858350000
O                 -1.5619940000     -1.8891130000     -1.0854920000
H                 -3.6065920000     -0.2758510000     -0.5320500000
O                 -1.2115220000      3.2833500000      1.0794100000
Cl                 1.4594860000      1.8894220000      0.6520820000
Br                -4.1837130000      2.4052860000      0.5472250000
H                  0.6746330000     -0.6015600000     -0.4251820000
$end
$rem
MAX_SCF_CYCLES=200
BASIS  =  6-311++G(d,p)
GUI  =  2
JOB_TYPE  =  SP
METHOD  =  B3LYP
SOLVENT_METHOD = PCM
$end
$pcm
theory = CPCM
$end
$solvent
dielectric 37.219
opticaldielectric 1.43
$end

--------------------------------------------------------------

             Standard Nuclear Orientation (Angstroms)
    I     Atom           X                Y                Z
 ----------------------------------------------------------------
    1      C      -1.2954710000     2.1049270000     0.5864480000
    2      C      -2.4965310000     1.4063430000     0.2286040000
    3      C      -2.6246850000     0.1274750000    -0.3090710000
    4      C      -1.4829040000    -0.6947020000    -0.5852750000
    5      C      -0.2461600000    -0.0538830000    -0.2498650000
    6      C      -0.1942360000     1.2306760000     0.2858350000
    7      O      -1.5619940000    -1.8891130000    -1.0854920000
    8      H      -3.6065920000    -0.2758510000    -0.5320500000
    9      O      -1.2115220000     3.2833500000     1.0794100000
   10      Cl      1.4594860000     1.8894220000     0.6520820000
   11      Br     -4.1837130000     2.4052860000     0.5472250000
   12      H       0.6746330000    -0.6015600000    -0.4251820000
 ----------------------------------------------------------------

    9   -3415.0172632130      5.76e-06  Convergence criterion met
 Total energy in the final basis set =    -3415.0172632130

                    Orbital Energies (a.u.)
 --------------------------------------------------------------

 Alpha MOs
 -- Occupied --
********-101.5309 -62.4601 -56.2802 -56.2769 -56.2767 -19.0342 -19.0275
-10.2003 -10.1989 -10.1946 -10.1884 -10.1410 -10.1406  -9.4451  -8.6686
 -7.2090  -7.2005  -7.2000  -6.4989  -6.4878  -6.4873  -2.6101  -2.6067
 -2.6064  -2.5978  -2.5977  -0.9556  -0.9392  -0.8401  -0.8042  -0.7559
 -0.6904  -0.6675  -0.5611  -0.5412  -0.4573  -0.4484  -0.4131  -0.3874
 -0.3823  -0.3777  -0.3524  -0.3362  -0.3329  -0.3243  -0.2975  -0.2903
 -0.2748  -0.2385  -0.2195  -0.2174  -0.2086  -0.1366

          Ground-State Mulliken Net Atomic Charges

     Atom                 Charge (a.u.)
  ----------------------------------------
      1 C                    -1.427104
      2 C                     0.751082
      3 C                    -0.262257
      4 C                    -0.515013
      5 C                    -0.647506
      6 C                     1.263524
      7 O                    -0.735681
      8 H                     0.190946
      9 O                    -0.626527
     10 Cl                    0.137526
     11 Br                   -0.292984
     12 H                     0.163992
  ----------------------------------------
  Sum of atomic charges =    -2.000000

                    Cartesian Multipole Moments
 -----------------------------------------------------------------
    Charge (ESU x 10^10)
                -9.6064
    Dipole Moment (Debye)
         X      13.5154      Y      -9.3029      Z      -1.0411
       Tot      16.4406
    Quadrupole Moments (Debye-Ang)
        XX    -120.4032     XY      10.9787     YY    -148.0103
        XZ      -0.3091     YZ     -23.3500     ZZ     -94.8919

 Total job time:  20.42s(wall), 86.55s(cpu)
        *  Thank you very much for using Q-Chem.  Have a nice day.  *
