 Q-Chem 5.4, Q-Chem, Inc., Pleasanton, CA (2021)
 Q-Chem 5.4.0 for Intel X86 EM64T Linux

User input:
--------------------------------------------------------------
$molecule
0 1
O                 -0.1394400000     -2.4647890000      0.3148940000
C                 -0.0710330000     -1.2509620000      0.1598980000
C                 -1.3060320000     -0.4230480000      0.1799600000
C                 -2.5293630000     -1.0901040000      0.3814600000
C                 -3.7283190000     -0.4035660000      0.4151090000
C                 -3.7329560000      0.9873620000      0.2455310000
C                 -2.5455340000      1.6696750000      0.0457190000
C                 -1.3261030000      0.9722740000      0.0113930000
S                  0.1107670000      1.9567600000     -0.2498420000
C                  1.4257000000      0.7849580000     -0.2356470000
C                  2.7143810000      1.3115060000     -0.4263460000
C                  3.8156850000      0.4732930000     -0.4321520000
C                  3.6542600000     -0.9063740000     -0.2479790000
C                  2.3870870000     -1.4248960000     -0.0603130000
C                  1.2484570000     -0.5969210000     -0.0495620000
H                 -2.4907380000     -2.1648190000      0.5090210000
H                 -4.6584980000     -0.9367780000      0.5714860000
H                 -4.6669810000      1.5372990000      0.2698660000
H                 -2.5512570000      2.7462120000     -0.0853270000
H                  2.8417580000      2.3789370000     -0.5691340000
H                  4.8046090000      0.8921830000     -0.5803250000
H                  4.5167770000     -1.5621670000     -0.2526330000
H                  2.2267740000     -2.4860360000      0.0849240000
$end

$rem
BASIS  =  6-311++G(d,p)
GUI  =  2
JOB_TYPE  =  SP
METHOD  =  B3LYP
SCF_CONVERGENCE  = 8
SOLVENT_METHOD = sm12
$end

$smx
solvent dimethylformamide
charges CM5
$end

--------------------------------------------------------------

             Standard Nuclear Orientation (Angstroms)
    I     Atom           X                Y                Z
 ----------------------------------------------------------------
    1      O      -0.1394400000    -2.4647890000     0.3148940000
    2      C      -0.0710330000    -1.2509620000     0.1598980000
    3      C      -1.3060320000    -0.4230480000     0.1799600000
    4      C      -2.5293630000    -1.0901040000     0.3814600000
    5      C      -3.7283190000    -0.4035660000     0.4151090000
    6      C      -3.7329560000     0.9873620000     0.2455310000
    7      C      -2.5455340000     1.6696750000     0.0457190000
    8      C      -1.3261030000     0.9722740000     0.0113930000
    9      S       0.1107670000     1.9567600000    -0.2498420000
   10      C       1.4257000000     0.7849580000    -0.2356470000
   11      C       2.7143810000     1.3115060000    -0.4263460000
   12      C       3.8156850000     0.4732930000    -0.4321520000
   13      C       3.6542600000    -0.9063740000    -0.2479790000
   14      C       2.3870870000    -1.4248960000    -0.0603130000
   15      C       1.2484570000    -0.5969210000    -0.0495620000
   16      H      -2.4907380000    -2.1648190000     0.5090210000
   17      H      -4.6584980000    -0.9367780000     0.5714860000
   18      H      -4.6669810000     1.5372990000     0.2698660000
   19      H      -2.5512570000     2.7462120000    -0.0853270000
   20      H       2.8417580000     2.3789370000    -0.5691340000
   21      H       4.8046090000     0.8921830000    -0.5803250000
   22      H       4.5167770000    -1.5621670000    -0.2526330000
   23      H       2.2267740000    -2.4860360000     0.0849240000
 ----------------------------------------------------------------

   14    -973.7999357553      9.42e-09  Convergence criterion met
 Total energy in the final basis set =     -973.8191244421

                    Orbital Energies (a.u.)
 --------------------------------------------------------------

 Alpha MOs
 -- Occupied --
-88.8907 -19.1117 -10.2726 -10.2393 -10.2393 -10.2057 -10.2057 -10.1983
-10.1982 -10.1974 -10.1974 -10.1934 -10.1934 -10.1895 -10.1895  -7.9769
 -5.9404  -5.9364  -5.9317  -1.0493  -0.9037  -0.8821  -0.8283  -0.7897
 -0.7767  -0.7704  -0.7259  -0.6683  -0.6414  -0.6188  -0.6096  -0.5639
 -0.5537  -0.5070  -0.4871  -0.4861  -0.4790  -0.4524  -0.4488  -0.4422
 -0.4381  -0.4361  -0.4044  -0.3942  -0.3861  -0.3846  -0.3736  -0.3629
 -0.3483  -0.3336  -0.2842  -0.2773  -0.2770  -0.2715  -0.2308

          Ground-State Mulliken Net Atomic Charges

     Atom                 Charge (a.u.)
  ----------------------------------------
      1 O                    -0.316640
      2 C                    -1.047400
      3 C                     0.519788
      4 C                    -0.034314
      5 C                    -0.008755
      6 C                     0.590030
      7 C                     0.061382
      8 C                    -1.132010
      9 S                    -0.721152
     10 C                    -1.127465
     11 C                     0.062363
     12 C                     0.586988
     13 C                    -0.008900
     14 C                    -0.031076
     15 C                     0.515810
     16 H                     0.170255
     17 H                     0.277114
     18 H                     0.331504
     19 H                     0.266771
     20 H                     0.266836
     21 H                     0.331466
     22 H                     0.277134
     23 H                     0.170272
  ----------------------------------------
  Sum of atomic charges =     0.000000

                    Cartesian Multipole Moments
 -----------------------------------------------------------------
    Charge (ESU x 10^10)
                -0.0000
    Dipole Moment (Debye)
         X       0.1989      Y       3.5616      Z      -0.4553
       Tot       3.5961
    Quadrupole Moments (Debye-Ang)
        XX     -67.5629     XY      -1.9483     YY     -95.4895
        XZ      -2.8371     YZ      -0.2374     ZZ     -98.6608

 Total job time:  354.68s(wall), 2546.42s(cpu)
        *  Thank you very much for using Q-Chem.  Have a nice day.  *
