 Q-Chem 5.4, Q-Chem, Inc., Pleasanton, CA (2021)
 Q-Chem 5.4.0 for Intel X86 EM64T Linux

User input:
--------------------------------------------------------------
$molecule
-2 1
C                 -0.4737080000      3.8986440000      0.3121090000
C                  0.5628580000      2.9742100000      0.3445600000
C                  0.3865790000      1.6646040000     -0.1656720000
C                 -0.8684600000      1.3296630000     -0.7035710000
C                  1.5132370000      0.7242230000     -0.1556390000
C                  1.5006820000     -0.7083450000      0.0967180000
C                  2.8428230000      1.0408130000     -0.3583370000
C                  2.8500980000     -1.1719450000      0.0579940000
C                  0.4876770000     -1.6334900000      0.3947480000
C                  0.8214100000     -2.9652490000      0.6193560000
C                  2.1594360000     -3.4026430000      0.5471750000
C                  3.1895600000     -2.5121960000      0.2698910000
N                  3.6476970000     -0.0866850000     -0.2031780000
H                 -1.0259430000      0.3475170000     -1.1425320000
H                  3.2870360000      1.9954280000     -0.5933470000
H                 -0.5416820000     -1.2995830000      0.4496570000
H                  0.0397760000     -3.6826220000      0.8534130000
H                  2.3940880000     -4.4494190000      0.7188270000
H                  4.2246830000     -2.8429400000      0.2329260000
H                  4.6453510000     -0.1195600000     -0.3507550000
C                 -1.7781470000      3.6207370000     -0.2272810000
C                 -1.9874080000      2.2231580000     -0.7770890000
O                 -2.6985090000      4.4858410000     -0.2406350000
O                 -3.0966730000      1.8787840000     -1.2805940000
H                 -0.3320100000      4.8953010000      0.7287870000
H                  1.5144790000      3.2424540000      0.7991690000
$end
$rem
MAX_SCF_CYCLES=200
BASIS  =  6-311++G(d,p)
GUI  =  2
JOB_TYPE  =  SP
METHOD  =  B3LYP
SOLVENT_METHOD = PCM
$end
$pcm
theory = CPCM
$end
$solvent
dielectric 37.219
opticaldielectric 1.43
$end

--------------------------------------------------------------

             Standard Nuclear Orientation (Angstroms)
    I     Atom           X                Y                Z
 ----------------------------------------------------------------
    1      C      -0.4737080000     3.8986440000     0.3121090000
    2      C       0.5628580000     2.9742100000     0.3445600000
    3      C       0.3865790000     1.6646040000    -0.1656720000
    4      C      -0.8684600000     1.3296630000    -0.7035710000
    5      C       1.5132370000     0.7242230000    -0.1556390000
    6      C       1.5006820000    -0.7083450000     0.0967180000
    7      C       2.8428230000     1.0408130000    -0.3583370000
    8      C       2.8500980000    -1.1719450000     0.0579940000
    9      C       0.4876770000    -1.6334900000     0.3947480000
   10      C       0.8214100000    -2.9652490000     0.6193560000
   11      C       2.1594360000    -3.4026430000     0.5471750000
   12      C       3.1895600000    -2.5121960000     0.2698910000
   13      N       3.6476970000    -0.0866850000    -0.2031780000
   14      H      -1.0259430000     0.3475170000    -1.1425320000
   15      H       3.2870360000     1.9954280000    -0.5933470000
   16      H      -0.5416820000    -1.2995830000     0.4496570000
   17      H       0.0397760000    -3.6826220000     0.8534130000
   18      H       2.3940880000    -4.4494190000     0.7188270000
   19      H       4.2246830000    -2.8429400000     0.2329260000
   20      H       4.6453510000    -0.1195600000    -0.3507550000
   21      C      -1.7781470000     3.6207370000    -0.2272810000
   22      C      -1.9874080000     2.2231580000    -0.7770890000
   23      O      -2.6985090000     4.4858410000    -0.2406350000
   24      O      -3.0966730000     1.8787840000    -1.2805940000
   25      H      -0.3320100000     4.8953010000     0.7287870000
   26      H       1.5144790000     3.2424540000     0.7991690000
 ----------------------------------------------------------------

    9    -744.5574443446      7.01e-06  Convergence criterion met
 Total energy in the final basis set =     -744.5574443446

                    Orbital Energies (a.u.)
 --------------------------------------------------------------

 Alpha MOs
 -- Occupied --
-19.0211 -19.0189 -14.3429 -10.1978 -10.1852 -10.1684 -10.1659 -10.1653
-10.1648 -10.1639 -10.1624 -10.1601 -10.1563 -10.1332 -10.1217 -10.1125
-10.1109  -0.9677  -0.9548  -0.9284  -0.8357  -0.8002  -0.7619  -0.7291
 -0.7136  -0.6818  -0.6475  -0.6151  -0.5855  -0.5706  -0.5429  -0.5310
 -0.5067  -0.4757  -0.4649  -0.4377  -0.4281  -0.4230  -0.4211  -0.4107
 -0.4016  -0.3851  -0.3668  -0.3625  -0.3590  -0.3520  -0.3421  -0.3339
 -0.3266  -0.3113  -0.2943  -0.2898  -0.2628  -0.2217  -0.2134  -0.2076
 -0.1800  -0.1764  -0.1162

          Ground-State Mulliken Net Atomic Charges

     Atom                 Charge (a.u.)
  ----------------------------------------
      1 C                     0.123126
      2 C                    -0.944277
      3 C                     0.977999
      4 C                    -0.781223
      5 C                     0.102078
      6 C                     1.319945
      7 C                    -0.231562
      8 C                     0.199542
      9 C                    -1.008996
     10 C                    -0.617259
     11 C                    -0.243798
     12 C                    -0.550143
     13 N                    -0.134239
     14 H                     0.126156
     15 H                     0.208711
     16 H                     0.153539
     17 H                     0.193670
     18 H                     0.190547
     19 H                     0.192336
     20 H                     0.351774
     21 C                    -0.431939
     22 C                    -0.006360
     23 O                    -0.712860
     24 O                    -0.732760
     25 H                     0.134314
     26 H                     0.121680
  ----------------------------------------
  Sum of atomic charges =    -2.000000

                    Cartesian Multipole Moments
 -----------------------------------------------------------------
    Charge (ESU x 10^10)
                -9.6064
    Dipole Moment (Debye)
         X      22.7648      Y     -26.3088      Z       4.9762
       Tot      35.1447
    Quadrupole Moments (Debye-Ang)
        XX    -149.8426     XY      67.5592     YY    -205.0343
        XZ     -20.1874     YZ      11.4464     ZZ    -118.9335

 Total job time:  49.55s(wall), 305.96s(cpu)
        *  Thank you very much for using Q-Chem.  Have a nice day.  *
