 Q-Chem 5.4, Q-Chem, Inc., Pleasanton, CA (2021)
 Q-Chem 5.4.0 for Intel X86 EM64T Linux

User input:
--------------------------------------------------------------
$molecule
0 1
C                  3.7410120000     -1.0412110000     -0.3257780000
C                  2.4551920000     -0.2913390000     -0.0832080000
C                  2.4688250000      1.0971430000      0.1264620000
C                  1.2945250000      1.8022480000      0.3524160000
C                  0.0683760000      1.1331300000      0.3746250000
C                 -1.1936880000      1.8839550000      0.6164870000
O                 -1.2068330000      3.0920880000      0.8018900000
C                 -2.4534850000      1.1102010000      0.6258870000
C                 -2.5149320000     -0.2198920000      0.4295840000
C                 -3.7944550000     -0.9993400000      0.4401490000
C                 -1.2567400000     -0.9969230000      0.1840940000
O                 -1.3070420000     -2.2031990000      0.0053190000
C                  0.0372150000     -0.2539650000      0.1666850000
C                  1.2263940000     -0.9515660000     -0.0596230000
H                  4.2622340000     -0.6523170000     -1.2057420000
H                  4.4214410000     -0.9381180000      0.5250540000
H                  3.5581580000     -2.1050330000     -0.4842400000
H                  3.4155400000      1.6279460000      0.1112870000
H                  1.3049920000      2.8733620000      0.5141460000
H                 -3.3486020000      1.6974880000      0.8057370000
H                 -3.7629650000     -1.7782180000      1.2070130000
H                 -4.6491050000     -0.3479460000      0.6258670000
H                 -3.9369040000     -1.5160110000     -0.5129960000
H                  1.1708450000     -2.0224830000     -0.2171800000
$end
$rem
MAX_SCF_CYCLES=200
BASIS  =  6-311++G(d,p)
GUI  =  2
JOB_TYPE  =  SP
METHOD  =  B3LYP
SOLVENT_METHOD = PCM
$end
$pcm
theory = CPCM
$end
$solvent
dielectric 37.219
opticaldielectric 1.43
$end

--------------------------------------------------------------

             Standard Nuclear Orientation (Angstroms)
    I     Atom           X                Y                Z
 ----------------------------------------------------------------
    1      C       3.7410120000    -1.0412110000    -0.3257780000
    2      C       2.4551920000    -0.2913390000    -0.0832080000
    3      C       2.4688250000     1.0971430000     0.1264620000
    4      C       1.2945250000     1.8022480000     0.3524160000
    5      C       0.0683760000     1.1331300000     0.3746250000
    6      C      -1.1936880000     1.8839550000     0.6164870000
    7      O      -1.2068330000     3.0920880000     0.8018900000
    8      C      -2.4534850000     1.1102010000     0.6258870000
    9      C      -2.5149320000    -0.2198920000     0.4295840000
   10      C      -3.7944550000    -0.9993400000     0.4401490000
   11      C      -1.2567400000    -0.9969230000     0.1840940000
   12      O      -1.3070420000    -2.2031990000     0.0053190000
   13      C       0.0372150000    -0.2539650000     0.1666850000
   14      C       1.2263940000    -0.9515660000    -0.0596230000
   15      H       4.2622340000    -0.6523170000    -1.2057420000
   16      H       4.4214410000    -0.9381180000     0.5250540000
   17      H       3.5581580000    -2.1050330000    -0.4842400000
   18      H       3.4155400000     1.6279460000     0.1112870000
   19      H       1.3049920000     2.8733620000     0.5141460000
   20      H      -3.3486020000     1.6974880000     0.8057370000
   21      H      -3.7629650000    -1.7782180000     1.2070130000
   22      H      -4.6491050000    -0.3479460000     0.6258670000
   23      H      -3.9369040000    -1.5160110000    -0.5129960000
   24      H       1.1708450000    -2.0224830000    -0.2171800000
 ----------------------------------------------------------------

    9    -613.9323735457      2.65e-06  Convergence criterion met
 Total energy in the final basis set =     -613.9323735457

                    Orbital Energies (a.u.)
 --------------------------------------------------------------

 Alpha MOs
 -- Occupied --
-19.1371 -19.1328 -10.2841 -10.2808 -10.2185 -10.2055 -10.2053 -10.2023
-10.2006 -10.1948 -10.1921 -10.1917 -10.1740 -10.1697  -1.0702  -1.0648
 -0.8897  -0.8466  -0.7974  -0.7766  -0.7349  -0.7026  -0.6813  -0.6293
 -0.6168  -0.5862  -0.5395  -0.5185  -0.5005  -0.4696  -0.4633  -0.4591
 -0.4581  -0.4470  -0.4293  -0.4230  -0.4221  -0.4117  -0.4068  -0.3966
 -0.3901  -0.3719  -0.3655  -0.3612  -0.2968  -0.2890  -0.2762  -0.2760
 -0.2668

          Ground-State Mulliken Net Atomic Charges

     Atom                 Charge (a.u.)
  ----------------------------------------
      1 C                    -0.466481
      2 C                     0.464147
      3 C                    -0.354380
      4 C                     0.070350
      5 C                     0.443007
      6 C                    -0.648615
      7 O                    -0.321617
      8 C                    -0.510851
      9 C                     1.007294
     10 C                    -0.331202
     11 C                    -0.623884
     12 O                    -0.276686
     13 C                    -0.051976
     14 C                    -0.315005
     15 H                     0.178899
     16 H                     0.180602
     17 H                     0.185677
     18 H                     0.226230
     19 H                     0.186237
     20 H                     0.217047
     21 H                     0.196006
     22 H                     0.185262
     23 H                     0.196187
     24 H                     0.163752
  ----------------------------------------
  Sum of atomic charges =     0.000000

                    Cartesian Multipole Moments
 -----------------------------------------------------------------
    Charge (ESU x 10^10)
                 0.0000
    Dipole Moment (Debye)
         X       2.0671      Y      -1.2389      Z      -0.3945
       Tot       2.4420
    Quadrupole Moments (Debye-Ang)
        XX     -59.4852     XY       1.9530     YY    -100.1189
        XZ      -1.5920     YZ      -3.1204     ZZ     -83.0268

 Total job time:  37.10s(wall), 230.56s(cpu)
        *  Thank you very much for using Q-Chem.  Have a nice day.  *
