 Gaussian 16, Revision A.03,
 Gaussian 16:  ES64L-G16RevA.03 25-Dec-2016

 ----------------------------------------------------------------
 #P UB3LYP/6-311++G(d,p) SCRF=(PCM,Solvent=n,n-DiMethylFormamide)
 ----------------------------------------------------------------

 -------
 Reduced
 -------
 Symbolic Z-matrix:
 Charge = -2 Multiplicity = 1

                         Standard orientation:
 ---------------------------------------------------------------------
 Center     Atomic      Atomic             Coordinates (Angstroms)
 Number     Number       Type             X           Y           Z
 ---------------------------------------------------------------------
      1          6           0        3.738346   -1.692161    0.000126
      2          6           0        5.028894   -1.205505    0.000094
      3          6           0        5.248951    0.202331   -0.000013
      4          6           0        2.602820   -0.840133    0.000077
      5          6           0        2.826966    0.595881    0.000008
      6          6           0        4.168740    1.059877   -0.000047
      7          6           0        1.280896   -1.431299    0.000052
      8          6           0        0.210233   -0.463924   -0.000024
      9          6           0        0.431795    0.973755   -0.000023
     10          6           0        1.748491    1.562031   -0.000005
     11          6           0       -1.131693   -0.927512   -0.000120
     12          6           0       -2.177628   -0.046558   -0.000263
     13          6           0       -2.014693    1.373789   -0.000132
     14          6           0       -0.705502    1.819408   -0.000040
     15          8           0        1.080176   -2.703066   -0.000045
     16          8           0        1.949119    2.835352   -0.000114
     17         35           0       -4.014614   -0.792373    0.000007
     18          6           0       -3.171870    2.338442    0.000276
     19          1           0        3.535978   -2.759105    0.000198
     20          1           0        5.875185   -1.890935    0.000168
     21          1           0        6.264170    0.596595   -0.000085
     22          1           0        4.301749    2.137691   -0.000125
     23          1           0       -1.274155   -2.001913   -0.000118
     24          1           0       -0.500566    2.887111   -0.000028
     25          1           0       -3.818875    2.216029    0.879904
     26          1           0       -3.821209    2.214007   -0.877315
     27          1           0       -2.793603    3.364743   -0.001367
 ---------------------------------------------------------------------

 SCF Done:  E(UB3LYP) =  -3302.06310542     A.U. after   18 cycles

 The electronic state is 1-A.
 Alpha  occ. eigenvalues -- -482.81643 -62.46923 -56.28933 -56.28586 -56.28574
 Alpha  occ. eigenvalues --  -19.02192 -19.02057 -10.20773 -10.17619 -10.17483
 Alpha  occ. eigenvalues --  -10.17065 -10.15904 -10.15792 -10.15038 -10.15034
 Alpha  occ. eigenvalues --  -10.14994 -10.14672 -10.14655 -10.14158 -10.13862
 Alpha  occ. eigenvalues --  -10.13841 -10.13797  -8.67872  -6.50917  -6.49772
 Alpha  occ. eigenvalues --   -6.49746  -2.62022  -2.61699  -2.61682  -2.60772
 Alpha  occ. eigenvalues --   -2.60771  -0.93990  -0.93588  -0.84753  -0.82425
 Alpha  occ. eigenvalues --   -0.78263  -0.76277  -0.73454  -0.72366  -0.70767
 Alpha  occ. eigenvalues --   -0.67603  -0.63279  -0.60476  -0.58014  -0.56482
 Alpha  occ. eigenvalues --   -0.52708  -0.49955  -0.49059  -0.45335  -0.43611
 Alpha  occ. eigenvalues --   -0.42748  -0.41765  -0.41257  -0.40570  -0.39860
 Alpha  occ. eigenvalues --   -0.38775  -0.38037  -0.36987  -0.36812  -0.36378
 Alpha  occ. eigenvalues --   -0.35129  -0.34508  -0.32697  -0.32332  -0.31712
 Alpha  occ. eigenvalues --   -0.31535  -0.30150  -0.28398  -0.28275  -0.23638
 Alpha  occ. eigenvalues --   -0.22667  -0.22411  -0.21388  -0.20413  -0.19664
 Alpha  occ. eigenvalues --   -0.10790
 Alpha virt. eigenvalues --   -0.03020  -0.01244  -0.00070  -0.00048   0.00681
 Alpha virt. eigenvalues --    0.01492   0.01602   0.02292   0.02727   0.03958
 Alpha virt. eigenvalues --    0.04224   0.04358   0.04911   0.05272   0.05533

  Beta  occ. eigenvalues -- -482.81643 -62.46923 -56.28933 -56.28586 -56.28574
  Beta  occ. eigenvalues --  -19.02192 -19.02057 -10.20773 -10.17619 -10.17483
  Beta  occ. eigenvalues --  -10.17065 -10.15904 -10.15792 -10.15038 -10.15034
  Beta  occ. eigenvalues --  -10.14994 -10.14672 -10.14655 -10.14158 -10.13862
  Beta  occ. eigenvalues --  -10.13841 -10.13797  -8.67872  -6.50917  -6.49772
  Beta  occ. eigenvalues --   -6.49746  -2.62022  -2.61699  -2.61682  -2.60772
  Beta  occ. eigenvalues --   -2.60771  -0.93990  -0.93588  -0.84753  -0.82425
  Beta  occ. eigenvalues --   -0.78263  -0.76277  -0.73454  -0.72366  -0.70767
  Beta  occ. eigenvalues --   -0.67603  -0.63279  -0.60476  -0.58014  -0.56482
  Beta  occ. eigenvalues --   -0.52708  -0.49955  -0.49059  -0.45335  -0.43611
  Beta  occ. eigenvalues --   -0.42748  -0.41765  -0.41257  -0.40570  -0.39860
  Beta  occ. eigenvalues --   -0.38775  -0.38037  -0.36987  -0.36812  -0.36378
  Beta  occ. eigenvalues --   -0.35129  -0.34508  -0.32697  -0.32332  -0.31712
  Beta  occ. eigenvalues --   -0.31535  -0.30150  -0.28398  -0.28275  -0.23638
  Beta  occ. eigenvalues --   -0.22667  -0.22411  -0.21388  -0.20413  -0.19664
  Beta  occ. eigenvalues --   -0.10790
  Beta virt. eigenvalues --   -0.03020  -0.01244  -0.00070  -0.00048   0.00681
  Beta virt. eigenvalues --    0.01492   0.01602   0.02292   0.02727   0.03958
  Beta virt. eigenvalues --    0.04224   0.04358   0.04911   0.05272   0.05533

 Mulliken charges and spin densities:
               1          2
     1  C    0.037930  -0.000000
     2  C   -0.544562  -0.000000
     3  C   -0.526099  -0.000000
     4  C    0.168515  -0.000000
     5  C    0.329007   0.000000
     6  C   -0.055903  -0.000000
     7  C   -0.774167   0.000000
     8  C    0.289875   0.000000
     9  C    0.145170  -0.000000
    10  C   -0.484936   0.000000
    11  C   -0.108239  -0.000000
    12  C   -0.377116  -0.000000
    13  C    0.477891   0.000000
    14  C   -0.194886  -0.000000
    15  O   -0.645170  -0.000000
    16  O   -0.652351  -0.000000
    17  Br  -0.278895  -0.000000
    18  C   -0.216162  -0.000000
    19  H    0.148100   0.000000
    20  H    0.157867  -0.000000
    21  H    0.159795  -0.000000
    22  H    0.142825   0.000000
    23  H    0.197607  -0.000000
    24  H    0.117409   0.000000
    25  H    0.162196   0.000000
    26  H    0.161863   0.000000
    27  H    0.162437   0.000000
 Sum of Mulliken charges =  -2.00000  -0.00000

 Dipole moment (field-independent basis, Debye):
    X=            -11.3306    Y=              0.6381    Z=              0.0010  Tot=             11.3485
 Quadrupole moment (field-independent basis, Debye-Ang):
   XX=           -177.0988   YY=           -177.2919   ZZ=           -129.7656
   XY=            -11.4386   XZ=             -0.0010   YZ=              0.0009

 Normal termination of Gaussian 16 at Sun Jan 14 01:28:10 2024.
