 Gaussian 16, Revision A.03,
 Gaussian 16:  ES64L-G16RevA.03 25-Dec-2016

 ----------------------------------------------------------------------
 #P UB3LYP/6-311++G(d,p) nosym opt freq SCRF=(PCM,Solvent=n,n-DiMethylF
 ormamide)
 ----------------------------------------------------------------------

 -------
 Reduced
 -------
 Symbolic Z-matrix:
 Charge = -2 Multiplicity = 1

 SCF Done:  E(UB3LYP) =  -574.835980020     A.U. after   17 cycles
 SCF Done:  E(UB3LYP) =  -574.836767885     A.U. after   14 cycles
 SCF Done:  E(UB3LYP) =  -574.836896713     A.U. after   13 cycles
 SCF Done:  E(UB3LYP) =  -574.836912924     A.U. after   11 cycles
 SCF Done:  E(UB3LYP) =  -574.836926334     A.U. after   12 cycles
 SCF Done:  E(UB3LYP) =  -574.836942073     A.U. after   11 cycles
 SCF Done:  E(UB3LYP) =  -574.836950922     A.U. after   11 cycles
 SCF Done:  E(UB3LYP) =  -574.836952442     A.U. after   10 cycles
 SCF Done:  E(UB3LYP) =  -574.836952901     A.U. after   10 cycles
 SCF Done:  E(UB3LYP) =  -574.836952947     A.U. after   10 cycles
 SCF Done:  E(UB3LYP) =  -574.836952979     A.U. after    8 cycles
 Optimization completed.
    -- Stationary point found.
 Normal termination of Gaussian 16 at Sun Feb 11 02:02:10 2024.

 ----------------------------------------------------------------------
 #P Geom=AllCheck Guess=TCheck SCRF=Check GenChk UB3LYP/6-311++G(d,p) F
 req
 ----------------------------------------------------------------------

 Structure from the checkpoint file:  "236-an.chk"
 -------
 Reduced
 -------
 Charge = -2 Multiplicity = 1

                          Input orientation:
 ---------------------------------------------------------------------
 Center     Atomic      Atomic             Coordinates (Angstroms)
 Number     Number       Type             X           Y           Z
 ---------------------------------------------------------------------
      1          6           0       -3.224904    0.061655    0.994377
      2          6           0       -1.852704    0.004098    0.365909
      3          6           0       -1.738658   -0.228407   -1.029063
      4          6           0       -0.527118   -0.312992   -1.737933
      5          8           0       -0.453112   -0.534912   -3.030284
      6          6           0        0.659842   -0.133843   -0.919997
      7          6           0        1.950090   -0.188749   -1.506685
      8          6           0        3.104053   -0.026618   -0.766079
      9          6           0        3.011069    0.204381    0.628731
     10          6           0        1.770651    0.266497    1.231538
     11          6           0        0.562327    0.104108    0.502902
     12          6           0       -0.716438    0.177651    1.187574
     13          8           0       -0.793829    0.391284    2.482033
     14          1           0       -4.009364   -0.041846    0.238730
     15          1           0       -3.371059   -0.732977    1.737833
     16          1           0       -3.392768    1.005221    1.528128
     17          1           0       -2.657678   -0.354440   -1.602297
     18          1           0        2.002096   -0.364139   -2.575948
     19          1           0        4.076724   -0.074717   -1.246657
     20          1           0        3.913385    0.332879    1.219508
     21          1           0        1.687395    0.445865    2.297683
 ---------------------------------------------------------------------

 SCF Done:  E(UB3LYP) =  -574.836952979     A.U. after    1 cycles

 Alpha  occ. eigenvalues --  -19.01107 -19.00987 -10.16487 -10.16107 -10.14772
 Alpha  occ. eigenvalues --  -10.14696 -10.14427 -10.14352 -10.13832 -10.13577
 Alpha  occ. eigenvalues --  -10.13505 -10.12528 -10.11470  -0.91823  -0.91385
 Alpha  occ. eigenvalues --   -0.82210  -0.76897  -0.72019  -0.71956  -0.66574
 Alpha  occ. eigenvalues --   -0.62752  -0.58077  -0.56186  -0.52071  -0.47312
 Alpha  occ. eigenvalues --   -0.46188  -0.42735  -0.41431  -0.39785  -0.39226
 Alpha  occ. eigenvalues --   -0.38048  -0.36861  -0.36027  -0.35006  -0.34692
 Alpha  occ. eigenvalues --   -0.33323  -0.31090  -0.30945  -0.30365  -0.29650
 Alpha  occ. eigenvalues --   -0.22635  -0.21758  -0.20634  -0.19218  -0.18859
 Alpha  occ. eigenvalues --   -0.11059
 Alpha virt. eigenvalues --   -0.00472   0.00062   0.00961   0.01229   0.01710
 Alpha virt. eigenvalues --    0.02973   0.03129   0.04188   0.05363   0.05505
 Alpha virt. eigenvalues --    0.06018   0.06034   0.07148   0.07998   0.08587

  Beta  occ. eigenvalues --  -19.01107 -19.00987 -10.16487 -10.16107 -10.14772
  Beta  occ. eigenvalues --  -10.14696 -10.14427 -10.14352 -10.13832 -10.13577
  Beta  occ. eigenvalues --  -10.13505 -10.12528 -10.11470  -0.91823  -0.91385
  Beta  occ. eigenvalues --   -0.82210  -0.76897  -0.72019  -0.71956  -0.66574
  Beta  occ. eigenvalues --   -0.62752  -0.58077  -0.56186  -0.52071  -0.47312
  Beta  occ. eigenvalues --   -0.46188  -0.42735  -0.41431  -0.39785  -0.39226
  Beta  occ. eigenvalues --   -0.38048  -0.36861  -0.36027  -0.35006  -0.34692
  Beta  occ. eigenvalues --   -0.33323  -0.31090  -0.30945  -0.30365  -0.29650
  Beta  occ. eigenvalues --   -0.22635  -0.21758  -0.20634  -0.19218  -0.18859
  Beta  occ. eigenvalues --   -0.11059
  Beta virt. eigenvalues --   -0.00472   0.00062   0.00961   0.01229   0.01710
  Beta virt. eigenvalues --    0.02973   0.03129   0.04188   0.05363   0.05505
  Beta virt. eigenvalues --    0.06018   0.06034   0.07148   0.07998   0.08587

 Mulliken charges and spin densities:
               1          2
     1  C   -0.381159  -0.000000
     2  C    0.802436  -0.000000
     3  C   -0.363762   0.000000
     4  C   -0.907161  -0.000000
     5  O   -0.737476  -0.000000
     6  C    0.490958   0.000000
     7  C   -0.132253  -0.000000
     8  C   -0.415729  -0.000000
     9  C   -0.477763   0.000000
    10  C   -0.063480  -0.000000
    11  C    0.321847   0.000000
    12  C   -0.511387  -0.000000
    13  O   -0.724275  -0.000000
    14  H    0.132036  -0.000000
    15  H    0.138942  -0.000000
    16  H    0.138796  -0.000000
    17  H    0.093704   0.000000
    18  H    0.141594  -0.000000
    19  H    0.157687   0.000000
    20  H    0.158052  -0.000000
    21  H    0.138393   0.000000
 Sum of Mulliken charges =  -2.00000  -0.00000

 Dipole moment (field-independent basis, Debye):
    X=              3.7012    Y=              0.6163    Z=              2.7225  Tot=              4.6358
 Quadrupole moment (field-independent basis, Debye-Ang):
   XX=            -95.0116   YY=            -89.3829   ZZ=           -145.6940
   XY=              0.1218   XZ=              2.1903   YZ=             -9.7923

  Exact polarizability: 344.350   6.248 136.836  -5.645  24.773 280.546
 Approx polarizability: 378.365   7.286 147.996  -3.525  29.475 317.872

                      1                      2                      3
                      A                      A                      A
 Frequencies --     91.9393               132.7146               153.9969
 Red. masses --      3.6927                 2.4127                 1.5768
 Frc consts  --      0.0184                 0.0250                 0.0220
 IR Inten    --     23.5090                 0.1013                 0.3299

                      4                      5                      6
                      A                      A                      A
 Frequencies --    180.8270               243.8142               254.4407
 Red. masses --      3.7928                 3.9041                 4.0450
 Frc consts  --      0.0731                 0.1367                 0.1543
 IR Inten    --      6.2381                 1.0586                23.4153

                      7                      8                      9
                      A                      A                      A
 Frequencies --    294.6862               351.8361               382.8216
 Red. masses --      3.9225                10.9947                 6.4660
 Frc consts  --      0.2007                 0.8019                 0.5583
 IR Inten    --      0.5342                10.2812                 0.1234

                     10                     11                     12
                      A                      A                      A
 Frequencies --    427.5570               439.2547               480.5498
 Red. masses --      6.0865                 3.1498                 8.6448
 Frc consts  --      0.6556                 0.3581                 1.1762
 IR Inten    --      3.1111                 7.5339                 0.5088

                     13                     14                     15
                      A                      A                      A
 Frequencies --    499.6575               530.0360               637.6097
 Red. masses --      3.5132                 7.9363                 5.0158
 Frc consts  --      0.5168                 1.3136                 1.2014
 IR Inten    --      0.0539                 3.8634                25.3698

                     16                     17                     18
                      A                      A                      A
 Frequencies --    644.0472               654.8138               681.3619
 Red. masses --      2.7939                 5.3311                 3.0332
 Frc consts  --      0.6828                 1.3468                 0.8297
 IR Inten    --      4.9850                28.4504                45.9244

                     19                     20                     21
                      A                      A                      A
 Frequencies --    722.6326               768.0636               787.2563
 Red. masses --      6.1188                 1.5485                 3.0668
 Frc consts  --      1.8826                 0.5382                 1.1199
 IR Inten    --     93.1934               110.2622                 0.5173

                     22                     23                     24
                      A                      A                      A
 Frequencies --    821.0446               834.1782               859.0801
 Red. masses --      4.4423                 1.6953                 1.7069
 Frc consts  --      1.7644                 0.6950                 0.7422
 IR Inten    --     30.7308                38.7349                 0.0875

                     25                     26                     27
                      A                      A                      A
 Frequencies --    943.0991               966.6143               977.8716
 Red. masses --      4.2836                 1.3675                 1.2519
 Frc consts  --      2.2448                 0.7528                 0.7053
 IR Inten    --    154.9009                 3.7646                 0.5011

                     28                     29                     30
                      A                      A                      A
 Frequencies --   1011.1178              1020.3368              1038.4387
 Red. masses --      1.7535                 2.0757                 1.4762
 Frc consts  --      1.0562                 1.2732                 0.9379
 IR Inten    --     57.0994                80.4774                 0.8945

                     31                     32                     33
                      A                      A                      A
 Frequencies --   1089.5590              1112.2221              1147.5445
 Red. masses --      2.8229                 2.0921                 1.6396
 Frc consts  --      1.9745                 1.5248                 1.2721
 IR Inten    --    165.6714                89.8029                64.6664

                     34                     35                     36
                      A                      A                      A
 Frequencies --   1172.7972              1207.4445              1230.5637
 Red. masses --      1.8109                 1.7629                 3.0879
 Frc consts  --      1.4675                 1.5143                 2.7550
 IR Inten    --     14.6172               617.3256               147.1750

                     37                     38                     39
                      A                      A                      A
 Frequencies --   1275.8392              1320.5274              1352.8895
 Red. masses --      2.4541                 5.4051                 4.2336
 Frc consts  --      2.3536                 5.5532                 4.5654
 IR Inten    --    100.5691               251.0642              1615.6438

                     40                     41                     42
                      A                      A                      A
 Frequencies --   1367.4990              1398.1578              1424.6916
 Red. masses --      5.2345                 1.4239                 3.0432
 Frc consts  --      5.7674                 1.6400                 3.6393
 IR Inten    --     99.2809               181.9759                39.5876

                     43                     44                     45
                      A                      A                      A
 Frequencies --   1446.7500              1460.6969              1478.9952
 Red. masses --      2.5272                 1.0487                 1.2118
 Frc consts  --      3.1166                 1.3184                 1.5617
 IR Inten    --     37.0826                 5.8415                14.2160

                     46                     47                     48
                      A                      A                      A
 Frequencies --   1508.3998              1535.1931              1588.9491
 Red. masses --      2.7253                 5.3589                 6.8809
 Frc consts  --      3.6534                 7.4413                10.2357
 IR Inten    --     60.9146               259.4967                23.0141

                     49                     50                     51
                      A                      A                      A
 Frequencies --   1607.0915              2983.4106              3014.0871
 Red. masses --      5.4729                 1.0404                 1.0962
 Frc consts  --      8.3282                 5.4560                 5.8676
 IR Inten    --      2.7702               201.2137                92.4949

                     52                     53                     54
                      A                      A                      A
 Frequencies --   3064.5037              3089.4186              3135.6167
 Red. masses --      1.0982                 1.0871                 1.0846
 Frc consts  --      6.0763                 6.1132                 6.2827
 IR Inten    --     38.4928               174.2914                18.8718

                     55                     56                     57
                      A                      A                      A
 Frequencies --   3151.3887              3168.9774              3175.5167
 Red. masses --      1.0893                 1.0917                 1.0923
 Frc consts  --      6.3737                 6.4592                 6.4899
 IR Inten    --     38.3096                53.0962                54.2998

 - Thermochemistry -
 -------------------
 Temperature   298.150 Kelvin.  Pressure   1.00000 Atm.
 Atom     1 has atomic number  6 and mass  12.00000

 Molecular mass:   172.05243 amu.
 Principal axes and moments of inertia in atomic units:
                           1         2         3
     Eigenvalues --  1475.707182299.451703764.11696
           X            0.96508   0.25993  -0.03256
           Y           -0.01250   0.16983   0.98539
           Z           -0.26166   0.95058  -0.16714
 This molecule is an asymmetric top.
 Rotational symmetry number  1.
 Warning -- assumption of classical behavior for rotation
           may cause significant error
 Rotational temperatures (Kelvin)      0.05869     0.03767     0.02301
 Rotational constants (GHZ):           1.22297     0.78486     0.47946
 Zero-point vibrational energy     408766.5 (Joules/Mol)
                                   97.69755 (Kcal/Mol)
 Warning -- explicit consideration of  14 degrees of freedom as
           vibrations may cause significant error
 Vibrational temperatures:    132.28   190.95   221.57   260.17   350.79
          (Kelvin)            366.08   423.99   506.21   550.79   615.16
                              631.99   691.40   718.90   762.60   917.38
                              926.64   942.13   980.33  1039.71  1105.07
                             1132.69  1181.30  1200.20  1236.02  1356.91
                             1390.74  1406.94  1454.77  1468.04  1494.08
                             1567.63  1600.24  1651.06  1687.39  1737.24
                             1770.51  1835.65  1899.94  1946.51  1967.53
                             2011.64  2049.81  2081.55  2101.62  2127.94
                             2170.25  2208.80  2286.14  2312.25  4292.46
                             4336.60  4409.14  4444.98  4511.45  4534.15
                             4559.45  4568.86

 Zero-point correction=                           0.155691 (Hartree/Particle)
 Thermal correction to Energy=                    0.165931
 Thermal correction to Enthalpy=                  0.166876
 Thermal correction to Gibbs Free Energy=         0.120166
 Sum of electronic and zero-point Energies=           -574.681262
 Sum of electronic and thermal Energies=              -574.671022
 Sum of electronic and thermal Enthalpies=            -574.670077
 Sum of electronic and thermal Free Energies=         -574.716787

                     E (Thermal)             CV                S
                      KCal/Mol        Cal/Mol-Kelvin    Cal/Mol-Kelvin
 Total                  104.124             41.000             98.308
 Electronic               0.000              0.000              0.000
 Translational            0.889              2.981             41.335
 Rotational               0.889              2.981             30.925
 Vibrational            102.346             35.039             26.048
 Vibration     1          0.602              1.955              3.618
 Vibration     2          0.613              1.921              2.906
 Vibration     3          0.620              1.898              2.622
 Vibration     4          0.630              1.866              2.320
 Vibration     5          0.659              1.773              1.775
 Vibration     6          0.665              1.755              1.700
 Vibration     7          0.689              1.684              1.447
 Vibration     8          0.728              1.571              1.158
 Vibration     9          0.752              1.507              1.028
 Vibration    10          0.789              1.410              0.867
 Vibration    11          0.799              1.385              0.829
 Vibration    12          0.837              1.293              0.709
 Vibration    13          0.855              1.251              0.659
 Vibration    14          0.885              1.184              0.587

 Optimization completed.
    -- Stationary point found.
 Normal termination of Gaussian 16 at Sun Feb 11 02:13:53 2024.
