 Gaussian 16, Revision A.03,
 Gaussian 16:  ES64L-G16RevA.03 25-Dec-2016

 ----------------------------------------------------------------------
 #P UB3LYP/6-311++G(d,p) nosym opt freq SCRF=(PCM,Solvent=n,n-DiMethylF
 ormamide)
 ----------------------------------------------------------------------

 -------
 Radical
 -------
 Symbolic Z-matrix:
 Charge = -1 Multiplicity = 2

 SCF Done:  E(UB3LYP) =  -690.267256434     A.U. after   18 cycles
 SCF Done:  E(UB3LYP) =  -690.267441779     A.U. after   15 cycles
 SCF Done:  E(UB3LYP) =  -690.267461458     A.U. after   12 cycles
 SCF Done:  E(UB3LYP) =  -690.267469846     A.U. after   12 cycles
 SCF Done:  E(UB3LYP) =  -690.267472043     A.U. after   11 cycles
 SCF Done:  E(UB3LYP) =  -690.267474530     A.U. after   12 cycles
 SCF Done:  E(UB3LYP) =  -690.267454088     A.U. after   15 cycles
 SCF Done:  E(UB3LYP) =  -690.267484299     A.U. after   15 cycles
 SCF Done:  E(UB3LYP) =  -690.267487675     A.U. after   13 cycles
 SCF Done:  E(UB3LYP) =  -690.267499151     A.U. after   19 cycles
 SCF Done:  E(UB3LYP) =  -690.267991644     A.U. after   16 cycles
 SCF Done:  E(UB3LYP) =  -690.268207683     A.U. after   12 cycles
 SCF Done:  E(UB3LYP) =  -690.264166270     A.U. after   19 cycles
 SCF Done:  E(UB3LYP) =  -690.268447938     A.U. after   19 cycles
 SCF Done:  E(UB3LYP) =  -690.268381460     A.U. after   18 cycles
 SCF Done:  E(UB3LYP) =  -690.268490843     A.U. after   18 cycles
 SCF Done:  E(UB3LYP) =  -690.268502258     A.U. after   15 cycles
 SCF Done:  E(UB3LYP) =  -690.268503116     A.U. after   14 cycles
 SCF Done:  E(UB3LYP) =  -690.268503096     A.U. after   12 cycles
 Optimization completed.
    -- Stationary point found.
 Normal termination of Gaussian 16 at Sun Feb 11 18:10:16 2024.

 ----------------------------------------------------------------------
 #P Geom=AllCheck Guess=TCheck SCRF=Check GenChk UB3LYP/6-311++G(d,p) F
 req
 ----------------------------------------------------------------------

 Structure from the checkpoint file:  "346-rad.chk"
 -------
 Radical
 -------
 Charge = -1 Multiplicity = 2

                          Input orientation:
 ---------------------------------------------------------------------
 Center     Atomic      Atomic             Coordinates (Angstroms)
 Number     Number       Type             X           Y           Z
 ---------------------------------------------------------------------
      1          8           0       -0.022595   -0.993305    1.437710
      2          6           0       -0.450602   -0.270283    0.484580
      3          6           0       -1.935101   -0.205918    0.272454
      4          6           0       -2.764689   -0.584587    1.345504
      5          6           0       -4.151072   -0.602831    1.220877
      6          6           0       -4.752306   -0.259483    0.008127
      7          6           0       -3.945221    0.102979   -1.072132
      8          6           0       -2.557577    0.136940   -0.943289
      9          6           0        0.448211    0.515624   -0.356818
     10          8           0        0.016816    1.405208   -1.155348
     11          6           0        1.933852    0.323645   -0.264021
     12          6           0        2.757005    1.365631   -0.733210
     13          6           0        4.144512    1.253518   -0.730162
     14          6           0        4.754250    0.083734   -0.271877
     15          6           0        3.954132   -0.966521    0.182377
     16          6           0        2.565063   -0.849296    0.193608
     17          1           0       -2.296542   -0.866225    2.280817
     18          1           0       -4.764511   -0.887905    2.069408
     19          1           0       -5.831863   -0.276617   -0.094275
     20          1           0       -4.399204    0.361321   -2.023358
     21          1           0       -1.946511    0.429664   -1.784389
     22          1           0        2.282676    2.266524   -1.102649
     23          1           0        4.752339    2.078195   -1.088011
     24          1           0        5.834828   -0.008912   -0.271320
     25          1           0        4.414671   -1.885180    0.531187
     26          1           0        1.959439   -1.665922    0.557997
 ---------------------------------------------------------------------

 SCF Done:  E(UB3LYP) =  -690.268503096     A.U. after    1 cycles

 Alpha  occ. eigenvalues --  -19.06993 -19.06979 -10.21312 -10.21275 -10.17307
 Alpha  occ. eigenvalues --  -10.17302 -10.17110 -10.17100 -10.17028 -10.17019
 Alpha  occ. eigenvalues --  -10.16953 -10.16943 -10.16603 -10.16600 -10.16585
 Alpha  occ. eigenvalues --  -10.16580  -0.99957  -0.98150  -0.85143  -0.84975
 Alpha  occ. eigenvalues --   -0.75170  -0.75140  -0.74189  -0.74102  -0.66793
 Alpha  occ. eigenvalues --   -0.61842  -0.60284  -0.59655  -0.57841  -0.53797
 Alpha  occ. eigenvalues --   -0.51106  -0.48000  -0.46737  -0.44810  -0.44248
 Alpha  occ. eigenvalues --   -0.43748  -0.42442  -0.42123  -0.41705  -0.41283
 Alpha  occ. eigenvalues --   -0.39775  -0.38730  -0.37304  -0.35608  -0.35596
 Alpha  occ. eigenvalues --   -0.34377  -0.33918  -0.33611  -0.32907  -0.26659
 Alpha  occ. eigenvalues --   -0.25575  -0.25440  -0.25176  -0.24865  -0.21477
 Alpha  occ. eigenvalues --   -0.14296
 Alpha virt. eigenvalues --   -0.04050  -0.01099  -0.00804  -0.00303   0.00305
 Alpha virt. eigenvalues --    0.00608   0.01416   0.01905   0.01991   0.03497
 Alpha virt. eigenvalues --    0.03807   0.03896   0.04805   0.05477   0.05776

  Beta  occ. eigenvalues --  -19.06282 -19.06265 -10.21050 -10.21014 -10.17354
  Beta  occ. eigenvalues --  -10.17348 -10.17081 -10.17073 -10.17027 -10.17017
  Beta  occ. eigenvalues --  -10.16970 -10.16960 -10.16549 -10.16537 -10.16526
  Beta  occ. eigenvalues --  -10.16521  -0.98685  -0.96835  -0.85074  -0.84884
  Beta  occ. eigenvalues --   -0.75030  -0.74857  -0.74126  -0.74040  -0.65618
  Beta  occ. eigenvalues --   -0.61596  -0.60230  -0.59612  -0.57558  -0.53650
  Beta  occ. eigenvalues --   -0.51023  -0.47747  -0.46576  -0.44655  -0.44123
  Beta  occ. eigenvalues --   -0.43647  -0.42002  -0.41711  -0.41364  -0.41089
  Beta  occ. eigenvalues --   -0.39043  -0.37637  -0.36949  -0.35422  -0.34404
  Beta  occ. eigenvalues --   -0.34128  -0.33605  -0.33556  -0.30134  -0.26172
  Beta  occ. eigenvalues --   -0.25252  -0.24796  -0.24449  -0.24335  -0.20787
  Beta virt. eigenvalues --   -0.06609  -0.02935  -0.00985  -0.00656  -0.00283
  Beta virt. eigenvalues --    0.00305   0.01423   0.01506   0.01948   0.01993
  Beta virt. eigenvalues --    0.03500   0.03821   0.03957   0.04823   0.05525

 Mulliken charges and spin densities:
               1          2
     1  O   -0.438748   0.259376
     2  C   -0.127384   0.214349
     3  C    1.017902  -0.079832
     4  C    0.284045   0.065673
     5  C   -0.251647  -0.021614
     6  C   -0.446293   0.051566
     7  C   -0.144024  -0.015497
     8  C   -1.277213   0.033840
     9  C   -0.148685   0.215234
    10  O   -0.439403   0.260730
    11  C    1.010544  -0.080476
    12  C    0.311144   0.067440
    13  C   -0.271358  -0.022052
    14  C   -0.429369   0.052489
    15  C   -0.172892  -0.016108
    16  C   -1.257346   0.033707
    17  H    0.185928  -0.005306
    18  H    0.184128   0.001477
    19  H    0.168059  -0.003606
    20  H    0.196539   0.000932
    21  H    0.155683  -0.002852
    22  H    0.185890  -0.005419
    23  H    0.183593   0.001487
    24  H    0.167961  -0.003657
    25  H    0.196051   0.000950
    26  H    0.156892  -0.002831
 Sum of Mulliken charges =  -1.00000   1.00000

 Dipole moment (field-independent basis, Debye):
    X=             -0.0042    Y=             -1.0676    Z=             -0.7367  Tot=              1.2971
 Quadrupole moment (field-independent basis, Debye-Ang):
   XX=            -96.6873   YY=           -104.5612   ZZ=           -105.0257
   XY=             -0.0098   XZ=              0.0404   YZ=              4.5994

  Exact polarizability: 475.277  28.729 206.700 -28.177 -56.382 215.924
 Approx polarizability: 440.454  18.198 243.458 -17.356 -71.697 255.573

                      1                      2                      3
                      A                      A                      A
 Frequencies --     30.9713                44.8660                49.2476
 Red. masses --      5.3107                 4.5666                 5.5077
 Frc consts  --      0.0030                 0.0054                 0.0079
 IR Inten    --      6.0167                 3.9848                 1.9581

                      4                      5                      6
                      A                      A                      A
 Frequencies --    107.2676               153.9273               174.0028
 Red. masses --      5.6044                 5.6710                 4.7052
 Frc consts  --      0.0380                 0.0792                 0.0839
 IR Inten    --      8.5369                 2.1948                 0.6745

                      7                      8                      9
                      A                      A                      A
 Frequencies --    220.5613               272.4708               307.8203
 Red. masses --      6.8876                 5.3403                 7.6044
 Frc consts  --      0.1974                 0.2336                 0.4245
 IR Inten    --      4.2933                 1.2040                43.8401

                     10                     11                     12
                      A                      A                      A
 Frequencies --    374.4833               414.3590               416.5952
 Red. masses --      6.4001                 3.4101                 3.0996
 Frc consts  --      0.5288                 0.3450                 0.3169
 IR Inten    --      0.7100                 3.3414                 0.4894

                     13                     14                     15
                      A                      A                      A
 Frequencies --    421.6699               428.0403               476.8188
 Red. masses --      4.3934                 6.4992                 4.6197
 Frc consts  --      0.4602                 0.7016                 0.6188
 IR Inten    --      7.3512                 0.1298                 4.3122

                     16                     17                     18
                      A                      A                      A
 Frequencies --    550.0598               631.1878               631.7788
 Red. masses --      4.0477                 6.3767                 6.2989
 Frc consts  --      0.7216                 1.4968                 1.4813
 IR Inten    --     41.2011                 0.3678                 1.4895

                     19                     20                     21
                      A                      A                      A
 Frequencies --    641.7865               645.4087               699.5510
 Red. masses --      6.7918                 7.5437                 4.7125
 Frc consts  --      1.6482                 1.8514                 1.3588
 IR Inten    --     41.1052                 9.0722                 2.7816

                     22                     23                     24
                      A                      A                      A
 Frequencies --    702.7776               706.8687               723.2425
 Red. masses --      1.8662                 1.4777                 4.5362
 Frc consts  --      0.5431                 0.4350                 1.3980
 IR Inten    --    109.6054                35.6391                34.0027

                     25                     26                     27
                      A                      A                      A
 Frequencies --    781.8398               796.6406               832.2264
 Red. masses --      2.1910                 3.0314                 5.0423
 Frc consts  --      0.7891                 1.1335                 2.0576
 IR Inten    --     72.1009                10.8932                13.4065

                     28                     29                     30
                      A                      A                      A
 Frequencies --    855.9549               857.0519               933.9613
 Red. masses --      1.2661                 1.2677                 1.4554
 Frc consts  --      0.5465                 0.5486                 0.7480
 IR Inten    --      0.7013                 0.8303                 8.9742

                     31                     32                     33
                      A                      A                      A
 Frequencies --    935.1871               991.8283               992.8976
 Red. masses --      1.4688                 1.3690                 1.3640
 Frc consts  --      0.7569                 0.7934                 0.7923
 IR Inten    --      3.6073                 1.9817                 0.7272

                     34                     35                     36
                      A                      A                      A
 Frequencies --   1000.3013              1001.1161              1008.0816
 Red. masses --      1.2777                 1.2816                 6.1304
 Frc consts  --      0.7532                 0.7568                 3.6705
 IR Inten    --      0.3162                 0.5561                29.8428

                     37                     38                     39
                      A                      A                      A
 Frequencies --   1008.3513              1039.9494              1043.8750
 Red. masses --      6.0455                 2.7463                 2.1553
 Frc consts  --      3.6216                 1.7499                 1.3837
 IR Inten    --     10.4603                 0.1540                41.0151

                     40                     41                     42
                      A                      A                      A
 Frequencies --   1084.0109              1092.0663              1096.4574
 Red. masses --      2.3418                 1.5597                 1.8975
 Frc consts  --      1.6213                 1.0959                 1.3441
 IR Inten    --      1.9013                44.9750                 2.2219

                     43                     44                     45
                      A                      A                      A
 Frequencies --   1164.7709              1170.3634              1170.9818
 Red. masses --      1.8244                 1.1024                 1.1346
 Frc consts  --      1.4583                 0.8897                 0.9166
 IR Inten    --    105.7052                 0.2569                15.6743

                     46                     47                     48
                      A                      A                      A
 Frequencies --   1187.4945              1203.9790              1307.8826
 Red. masses --      1.1577                 1.7632                 3.6910
 Frc consts  --      0.9619                 1.5059                 3.7199
 IR Inten    --      0.0583                26.7285                 0.1600

                     49                     50                     51
                      A                      A                      A
 Frequencies --   1316.9822              1320.7140              1341.5381
 Red. masses --      3.4905                 5.3773                 1.7675
 Frc consts  --      3.5670                 5.5263                 1.8742
 IR Inten    --     26.5649                 0.6423                 9.4612

                     52                     53                     54
                      A                      A                      A
 Frequencies --   1342.0079              1390.1772              1459.0947
 Red. masses --      1.9339                 8.7020                 2.2762
 Frc consts  --      2.0520                 9.9085                 2.8551
 IR Inten    --      0.1602              1315.9365                 0.0661

                     55                     56                     57
                      A                      A                      A
 Frequencies --   1467.9021              1506.7556              1508.3738
 Red. masses --      2.2194                 2.1349                 2.1455
 Frc consts  --      2.8177                 2.8557                 2.8761
 IR Inten    --     77.2909                 0.5138                87.8276

                     58                     59                     60
                      A                      A                      A
 Frequencies --   1535.3066              1599.9291              1602.2476
 Red. masses --      7.3496                 5.3587                 5.7281
 Frc consts  --     10.2071                 8.0819                 8.6640
 IR Inten    --     11.0253                 0.5966                 0.0118

                     61                     62                     63
                      A                      A                      A
 Frequencies --   1621.0733              1623.7801              3153.4100
 Red. masses --      5.5463                 5.5715                 1.0854
 Frc consts  --      8.5874                 8.6552                 6.3593
 IR Inten    --    133.0446                 0.0414                13.2521

                     64                     65                     66
                      A                      A                      A
 Frequencies --   3153.5926              3160.9750              3161.0726
 Red. masses --      1.0855                 1.0898                 1.0898
 Frc consts  --      6.3602                 6.4158                 6.4159
 IR Inten    --      0.9621                34.8887                36.1718

                     67                     68                     69
                      A                      A                      A
 Frequencies --   3178.0922              3178.1892              3191.0228
 Red. masses --      1.0949                 1.0949                 1.0922
 Frc consts  --      6.5154                 6.5163                 6.5526
 IR Inten    --     82.1823                17.1736                23.3640

                     70                     71                     72
                      A                      A                      A
 Frequencies --   3192.5907              3219.9838              3220.7156
 Red. masses --      1.0918                 1.0916                 1.0915
 Frc consts  --      6.5567                 6.6682                 6.6710
 IR Inten    --     18.1033                 7.4037                 8.0222

 - Thermochemistry -
 -------------------
 Temperature   298.150 Kelvin.  Pressure   1.00000 Atm.
 Atom     1 has atomic number  8 and mass  15.99491

 Molecular mass:   210.06808 amu.
 Principal axes and moments of inertia in atomic units:
                           1         2         3
     Eigenvalues --  1015.273727098.652477862.56585
           X            0.99518   0.09785  -0.00671
           Y            0.07110  -0.67256   0.73662
           Z           -0.06757   0.73355   0.67627
 This molecule is an asymmetric top.
 Rotational symmetry number  1.
 Warning -- assumption of classical behavior for rotation
           may cause significant error
 Rotational temperatures (Kelvin)      0.08531     0.01220     0.01102
 Rotational constants (GHZ):           1.77759     0.25424     0.22954
 Zero-point vibrational energy     519350.1 (Joules/Mol)
                                  124.12766 (Kcal/Mol)
 Warning -- explicit consideration of  16 degrees of freedom as
           vibrations may cause significant error
 Vibrational temperatures:     44.56    64.55    70.86   154.33   221.47
          (Kelvin)            250.35   317.34   392.02   442.88   538.80
                              596.17   599.39   606.69   615.85   686.04
                              791.41   908.14   908.99   923.39   928.60
                             1006.50  1011.14  1017.03  1040.58  1124.89
                             1146.19  1197.39  1231.53  1233.11  1343.76
                             1345.53  1427.02  1428.56  1439.21  1440.38
                             1450.40  1450.79  1496.26  1501.90  1559.65
                             1571.24  1577.56  1675.85  1683.89  1684.78
                             1708.54  1732.26  1881.75  1894.84  1900.21
                             1930.17  1930.85  2000.15  2099.31  2111.98
                             2167.89  2170.21  2208.96  2301.94  2305.28
                             2332.36  2336.26  4537.05  4537.32  4547.94
                             4548.08  4572.57  4572.71  4591.17  4593.43
                             4632.84  4633.89

 Zero-point correction=                           0.197810 (Hartree/Particle)
 Thermal correction to Energy=                    0.210485
 Thermal correction to Enthalpy=                  0.211429
 Thermal correction to Gibbs Free Energy=         0.156411
 Sum of electronic and zero-point Energies=           -690.070693
 Sum of electronic and thermal Energies=              -690.058018
 Sum of electronic and thermal Enthalpies=            -690.057074
 Sum of electronic and thermal Free Energies=         -690.112092

                     E (Thermal)             CV                S
                      KCal/Mol        Cal/Mol-Kelvin    Cal/Mol-Kelvin
 Total                  132.081             49.781            115.795
 Electronic               0.000              0.000              1.377
 Translational            0.889              2.981             41.931
 Rotational               0.889              2.981             32.405
 Vibrational            130.304             43.820             40.082
 Vibration     1          0.594              1.984              5.766
 Vibration     2          0.595              1.979              5.032
 Vibration     3          0.595              1.978              4.847
 Vibration     4          0.606              1.943              3.318
 Vibration     5          0.619              1.898              2.623
 Vibration     6          0.627              1.874              2.392
 Vibration     7          0.647              1.810              1.954
 Vibration     8          0.675              1.724              1.580
 Vibration     9          0.698              1.659              1.374
 Vibration    10          0.746              1.524              1.061
 Vibration    11          0.778              1.439              0.911
 Vibration    12          0.780              1.434              0.904
 Vibration    13          0.784              1.423              0.886
 Vibration    14          0.790              1.409              0.865
 Vibration    15          0.833              1.301              0.719
 Vibration    16          0.905              1.140              0.544

 Optimization completed.
    -- Stationary point found.
 Normal termination of Gaussian 16 at Sun Feb 11 18:32:35 2024.
