 Q-Chem 5.4, Q-Chem, Inc., Pleasanton, CA (2021)
 Q-Chem 5.4.0 for Intel X86 EM64T Linux

User input:
--------------------------------------------------------------
$molecule
-1 2
C                  1.1413500000      1.5576690000     -0.2807800000
C                 -0.0081400000      1.0749360000      0.4661510000
C                 -0.1816360000     -0.2354430000      0.7803110000
C                  0.7744080000     -1.2601300000      0.4068210000
C                  1.9315070000     -0.8138550000     -0.3610340000
C                  2.0645040000      0.5168410000     -0.7217070000
O                  1.3218300000      2.7777870000     -0.4979360000
O                  0.6216690000     -2.4680540000      0.7256150000
S                  3.4063640000      1.0343810000     -1.8054260000
C                  4.5009270000      2.0401140000     -0.7707030000
C                  4.3150900000      3.4186270000     -0.7098430000
C                  5.5185460000      1.4041010000     -0.0625990000
C                  6.3739280000      2.1740330000      0.7233110000
C                  5.1809510000      4.1770700000      0.0759530000
C                  6.2078810000      3.5579280000      0.7893000000
O                  2.9018960000      1.8849720000     -2.8904480000
O                  4.1677380000     -0.1785410000     -2.1618880000
H                 -0.7201080000      1.8342360000      0.7750240000
H                 -1.0442230000     -0.5732340000      1.3470950000
H                  3.4932620000      3.8652130000     -1.2526840000
H                  5.6270890000      0.3283260000     -0.1296020000
H                  7.1694420000      1.6924330000      1.2815000000
H                  5.0484010000      5.2519900000      0.1354060000
H                  6.8760660000      4.1538020000      1.4026480000
C                  2.9560730000     -1.9117680000     -0.5936240000
C                  2.7346870000     -2.8826650000     -1.7144090000
C                  1.7284040000     -2.6958040000     -2.6648920000
C                  3.5671750000     -4.0028160000     -1.8094980000
C                  1.5566550000     -3.6141490000     -3.6978670000
C                  2.3882530000     -4.7293930000     -3.7862350000
C                  3.3951160000     -4.9223680000     -2.8378270000
O                  3.8778680000     -2.0458730000      0.1877190000
H                  1.0841860000     -1.8274920000     -2.5971060000
H                  4.3427920000     -4.1305330000     -1.0640500000
H                  0.7754440000     -3.4582570000     -4.4340920000
H                  2.2540660000     -5.4454890000     -4.5906930000
H                  4.0438270000     -5.7898260000     -2.9040890000
$end
$rem
MAX_SCF_CYCLES=200
BASIS  =  6-311++G(d,p)
GUI  =  2
JOB_TYPE  =  SP
METHOD  =  B3LYP
SOLVENT_METHOD = PCM
$end
$pcm
theory = CPCM
$end
$solvent
dielectric 37.219
opticaldielectric 1.43
$end

--------------------------------------------------------------

             Standard Nuclear Orientation (Angstroms)
    I     Atom           X                Y                Z
 ----------------------------------------------------------------
    1      C       1.1413500000     1.5576690000    -0.2807800000
    2      C      -0.0081400000     1.0749360000     0.4661510000
    3      C      -0.1816360000    -0.2354430000     0.7803110000
    4      C       0.7744080000    -1.2601300000     0.4068210000
    5      C       1.9315070000    -0.8138550000    -0.3610340000
    6      C       2.0645040000     0.5168410000    -0.7217070000
    7      O       1.3218300000     2.7777870000    -0.4979360000
    8      O       0.6216690000    -2.4680540000     0.7256150000
    9      S       3.4063640000     1.0343810000    -1.8054260000
   10      C       4.5009270000     2.0401140000    -0.7707030000
   11      C       4.3150900000     3.4186270000    -0.7098430000
   12      C       5.5185460000     1.4041010000    -0.0625990000
   13      C       6.3739280000     2.1740330000     0.7233110000
   14      C       5.1809510000     4.1770700000     0.0759530000
   15      C       6.2078810000     3.5579280000     0.7893000000
   16      O       2.9018960000     1.8849720000    -2.8904480000
   17      O       4.1677380000    -0.1785410000    -2.1618880000
   18      H      -0.7201080000     1.8342360000     0.7750240000
   19      H      -1.0442230000    -0.5732340000     1.3470950000
   20      H       3.4932620000     3.8652130000    -1.2526840000
   21      H       5.6270890000     0.3283260000    -0.1296020000
   22      H       7.1694420000     1.6924330000     1.2815000000
   23      H       5.0484010000     5.2519900000     0.1354060000
   24      H       6.8760660000     4.1538020000     1.4026480000
   25      C       2.9560730000    -1.9117680000    -0.5936240000
   26      C       2.7346870000    -2.8826650000    -1.7144090000
   27      C       1.7284040000    -2.6958040000    -2.6648920000
   28      C       3.5671750000    -4.0028160000    -1.8094980000
   29      C       1.5566550000    -3.6141490000    -3.6978670000
   30      C       2.3882530000    -4.7293930000    -3.7862350000
   31      C       3.3951160000    -4.9223680000    -2.8378270000
   32      O       3.8778680000    -2.0458730000     0.1877190000
   33      H       1.0841860000    -1.8274920000    -2.5971060000
   34      H       4.3427920000    -4.1305330000    -1.0640500000
   35      H       0.7754440000    -3.4582570000    -4.4340920000
   36      H       2.2540660000    -5.4454890000    -4.5906930000
   37      H       4.0438270000    -5.7898260000    -2.9040890000
 ----------------------------------------------------------------

    8   -1505.9581380545      7.74e-06  Convergence criterion met
 Total energy in the final basis set =    -1505.9581380545

                    Orbital Energies (a.u.)
 --------------------------------------------------------------

 Alpha MOs
 -- Occupied --
-89.0574 -19.1249 -19.1241 -19.1226 -19.0976 -19.0963 -10.2815 -10.2485
-10.2439 -10.2150 -10.2133 -10.2078 -10.1938 -10.1917 -10.1902 -10.1887
-10.1869 -10.1864 -10.1854 -10.1852 -10.1833 -10.1820 -10.1817 -10.1815
-10.1808  -8.1212  -6.0841  -6.0829  -6.0821  -1.1178  -1.0618  -1.0252
 -1.0214  -1.0127  -0.8776  -0.8697  -0.8524  -0.7913  -0.7807  -0.7658
 -0.7637  -0.7569  -0.7257  -0.6798  -0.6564  -0.6272  -0.6227  -0.6177
 -0.6053  -0.5794  -0.5592  -0.5425  -0.5267  -0.5075  -0.5025  -0.4884
 -0.4850  -0.4783  -0.4678  -0.4643  -0.4564  -0.4549  -0.4476  -0.4436
 -0.4369  -0.4314  -0.4283  -0.4235  -0.4175  -0.3978  -0.3972  -0.3921
 -0.3853  -0.3803  -0.3712  -0.3678  -0.3601  -0.3510  -0.3484  -0.3355
 -0.3182  -0.3100  -0.3060  -0.2874  -0.2821  -0.2716  -0.2713  -0.2671
 -0.2660  -0.2614  -0.2498  -0.1842

 Beta MOs
 -- Occupied --
-89.0574 -19.1246 -19.1240 -19.1226 -19.0906 -19.0904 -10.2816 -10.2475
-10.2427 -10.2138 -10.2133 -10.2052 -10.1938 -10.1916 -10.1901 -10.1887
-10.1869 -10.1864 -10.1854 -10.1852 -10.1833 -10.1817 -10.1815 -10.1815
-10.1799  -8.1212  -6.0841  -6.0829  -6.0821  -1.1176  -1.0611  -1.0161
 -1.0114  -1.0089  -0.8775  -0.8695  -0.8461  -0.7896  -0.7797  -0.7649
 -0.7636  -0.7568  -0.7191  -0.6754  -0.6547  -0.6257  -0.6226  -0.6170
 -0.6036  -0.5777  -0.5580  -0.5416  -0.5253  -0.5058  -0.5001  -0.4872
 -0.4843  -0.4781  -0.4670  -0.4625  -0.4562  -0.4546  -0.4459  -0.4419
 -0.4367  -0.4302  -0.4227  -0.4153  -0.4086  -0.3947  -0.3910  -0.3865
 -0.3803  -0.3726  -0.3678  -0.3652  -0.3600  -0.3509  -0.3473  -0.3352
 -0.3172  -0.3080  -0.2889  -0.2803  -0.2722  -0.2693  -0.2669  -0.2655
 -0.2644  -0.2563  -0.2452

          Ground-State Mulliken Net Atomic Charges

     Atom                 Charge (a.u.)    Spin (a.u.)
  --------------------------------------------------------
      1 C                    -0.131425       0.044310
      2 C                     0.101976       0.057874
      3 C                    -0.343129       0.038568
      4 C                    -0.182309       0.092259
      5 C                     0.977468       0.183964
      6 C                    -0.612485       0.126207
      7 O                    -0.401989       0.224825
      8 O                    -0.437028       0.268157
      9 S                     0.208194      -0.038549
     10 C                     0.406357       0.002735
     11 C                    -0.046815       0.013448
     12 C                    -0.063833       0.009444
     13 C                    -0.545861      -0.001116
     14 C                    -0.523354      -0.003268
     15 C                    -0.285638       0.003631
     16 O                    -0.153838       0.007370
     17 O                    -0.164253      -0.002917
     18 H                     0.235336      -0.005832
     19 H                     0.225951      -0.004542
     20 H                     0.280887      -0.000452
     21 H                     0.253881       0.001109
     22 H                     0.230791       0.000039
     23 H                     0.229178       0.000117
     24 H                     0.209900      -0.000225
     25 C                    -0.294815      -0.025017
     26 C                     0.551225       0.002733
     27 C                    -1.002540      -0.000221
     28 C                     0.540283       0.005146
     29 C                    -0.160269      -0.006394
     30 C                    -0.391504      -0.000003
     31 C                    -0.474496       0.002074
     32 O                    -0.290960       0.004073
     33 H                     0.180639       0.000724
     34 H                     0.222822      -0.000191
     35 H                     0.234557      -0.000115
     36 H                     0.198263       0.000023
     37 H                     0.218834       0.000009
  --------------------------------------------------------
  Sum of atomic charges =    -1.000001

                    Cartesian Multipole Moments
 -----------------------------------------------------------------
    Charge (ESU x 10^10)
                -4.8032
    Dipole Moment (Debye)
         X      -9.8229      Y       0.9042      Z       3.9680
       Tot      10.6326
    Quadrupole Moments (Debye-Ang)
        XX    -171.2397     XY       6.9166     YY    -168.3924
        XZ      23.1028     YZ      27.8396     ZZ    -167.0983

 Total job time:  125.38s(wall), 892.56s(cpu)
        *  Thank you very much for using Q-Chem.  Have a nice day.  *
