 Gaussian 16, Revision A.03,
 Gaussian 16:  ES64L-G16RevA.03 25-Dec-2016

 --------------------------------------
 #P UB3LYP/6-311++G(d,p) nosym opt freq
 --------------------------------------

 -------
 Radical
 -------
 Symbolic Z-matrix:
 Charge = -2 Multiplicity = 2

 SCF Done:  E(UB3LYP) =  -1462.72074222     A.U. after   26 cycles
 SCF Done:  E(UB3LYP) =  -1462.76225179     A.U. after   19 cycles
 SCF Done:  E(UB3LYP) =  -1462.77853473     A.U. after   19 cycles
 SCF Done:  E(UB3LYP) =  -1462.78192240     A.U. after   17 cycles
 SCF Done:  E(UB3LYP) =  -1462.78245815     A.U. after   17 cycles
 SCF Done:  E(UB3LYP) =  -1462.78275854     A.U. after   15 cycles
 SCF Done:  E(UB3LYP) =  -1462.75025345     A.U. after   20 cycles
 SCF Done:  E(UB3LYP) =  -1462.78681208     A.U. after   17 cycles
 SCF Done:  E(UB3LYP) =  -1462.74829986     A.U. after   20 cycles
 SCF Done:  E(UB3LYP) =  -1462.78569690     A.U. after   19 cycles
 SCF Done:  E(UB3LYP) =  -1462.82416804     A.U. after   17 cycles
 SCF Done:  E(UB3LYP) =  -1462.82466540     A.U. after   18 cycles
 SCF Done:  E(UB3LYP) =  -1462.82490341     A.U. after   17 cycles
 SCF Done:  E(UB3LYP) =  -1462.82498872     A.U. after   18 cycles
 SCF Done:  E(UB3LYP) =  -1462.82508751     A.U. after   16 cycles
 SCF Done:  E(UB3LYP) =  -1462.82511853     A.U. after   15 cycles
 SCF Done:  E(UB3LYP) =  -1462.82512570     A.U. after   14 cycles
 SCF Done:  E(UB3LYP) =  -1462.82512833     A.U. after   13 cycles
 SCF Done:  E(UB3LYP) =  -1462.82512893     A.U. after   13 cycles
 Optimization completed.
    -- Stationary point found.
 Normal termination of Gaussian 16 at Fri Dec 22 02:06:55 2023.

 ----------------------------------------------------------------------
 #P Geom=AllCheck Guess=TCheck SCRF=Check GenChk UB3LYP/6-311++G(d,p) F
 req
 ----------------------------------------------------------------------

 Structure from the checkpoint file:  "190-rad.chk"
 -------
 Radical
 -------
 Charge = -2 Multiplicity = 2

                          Input orientation:
 ---------------------------------------------------------------------
 Center     Atomic      Atomic             Coordinates (Angstroms)
 Number     Number       Type             X           Y           Z
 ---------------------------------------------------------------------
      1          8           0        1.511321   -2.884560   -0.557891
      2          6           0        1.472340   -1.544348   -0.274354
      3          6           0        2.712554   -0.915390   -0.118888
      4          8           0        3.807861   -1.722869   -0.269332
      5          6           0        2.790579    0.463692    0.149150
      6          6           0        1.620534    1.190804    0.262800
      7          6           0        0.359740    0.582704    0.122715
      8          6           0       -0.825650    1.442074    0.261171
      9          8           0       -0.735430    2.673587    0.499715
     10          6           0       -2.121460    0.790849    0.106251
     11          6           0       -3.304305    1.556543    0.220941
     12          6           0       -4.551745    0.981721    0.081866
     13          6           0       -4.658040   -0.406417   -0.182115
     14          6           0       -3.515121   -1.172492   -0.298065
     15          6           0       -2.226288   -0.606821   -0.160569
     16          6           0       -1.053821   -1.477676   -0.294935
     17          8           0       -1.199174   -2.704814   -0.521906
     18          6           0        0.257491   -0.825892   -0.149491
     19         16           0        4.413337    1.254230    0.415795
     20          8           0        5.364412    0.300926   -0.287943
     21          8           0        4.365214    2.585276   -0.224781
     22          8           0        4.642839    1.281876    1.879971
     23          1           0        2.456803   -3.091025   -0.615336
     24          1           0        4.601467   -1.108857   -0.307933
     25          1           0        1.651851    2.254843    0.457167
     26          1           0       -3.186804    2.615554    0.423810
     27          1           0       -5.448585    1.589466    0.174027
     28          1           0       -5.637356   -0.865945   -0.292715
     29          1           0       -3.564563   -2.237039   -0.499127
 ---------------------------------------------------------------------

 SCF Done:  E(UB3LYP) =  -1462.82512893     A.U. after    2 cycles

 Alpha  occ. eigenvalues --  -88.82382 -18.93600 -18.93221 -18.87212 -18.86524
 Alpha  occ. eigenvalues --  -18.86346 -18.85702 -18.85537 -10.02253 -10.02075
 Alpha  occ. eigenvalues --  -10.01103 -10.00925  -9.98071  -9.98016  -9.97870
 Alpha  occ. eigenvalues --   -9.97257  -9.97183  -9.96710  -9.96479  -9.96392
 Alpha  occ. eigenvalues --   -9.95959  -9.95531  -7.88237  -5.84528  -5.84475
 Alpha  occ. eigenvalues --   -5.84424  -0.88526  -0.86331  -0.82901  -0.78374
 Alpha  occ. eigenvalues --   -0.78092  -0.74872  -0.74559  -0.65519  -0.63958
 Alpha  occ. eigenvalues --   -0.57764  -0.54979  -0.54000  -0.52615  -0.46351
 Alpha  occ. eigenvalues --   -0.44067  -0.42760  -0.38891  -0.37844  -0.36363
 Alpha  occ. eigenvalues --   -0.35072  -0.32534  -0.29867  -0.28737  -0.27286
 Alpha  occ. eigenvalues --   -0.26198  -0.25746  -0.23295  -0.23131  -0.22750
 Alpha  occ. eigenvalues --   -0.22191  -0.21814  -0.21454  -0.20661  -0.19926
 Alpha  occ. eigenvalues --   -0.18790  -0.17963  -0.16711  -0.16501  -0.15802
 Alpha  occ. eigenvalues --   -0.15402  -0.14849  -0.14472  -0.13120  -0.11482
 Alpha  occ. eigenvalues --   -0.10621  -0.10542  -0.07605  -0.07300  -0.06842
 Alpha  occ. eigenvalues --   -0.05641  -0.05576  -0.03052  -0.02773  -0.02550
 Alpha  occ. eigenvalues --   -0.01592  -0.00644   0.07594
 Alpha virt. eigenvalues --    0.13682   0.15499   0.15620   0.17707   0.18187
 Alpha virt. eigenvalues --    0.18304   0.19564   0.20894   0.21313   0.21924
 Alpha virt. eigenvalues --    0.22148   0.23376   0.24375   0.24440   0.24704

  Beta  occ. eigenvalues --  -88.82383 -18.93582 -18.93192 -18.87212 -18.86521
  Beta  occ. eigenvalues --  -18.86341 -18.85168 -18.84928 -10.02181 -10.02048
  Beta  occ. eigenvalues --  -10.00978 -10.00790  -9.97997  -9.97942  -9.97857
  Beta  occ. eigenvalues --   -9.97285  -9.97212  -9.96670  -9.96336  -9.96254
  Beta  occ. eigenvalues --   -9.95931  -9.95513  -7.88237  -5.84528  -5.84475
  Beta  occ. eigenvalues --   -5.84425  -0.88518  -0.86273  -0.82847  -0.77432
  Beta  occ. eigenvalues --   -0.77064  -0.74867  -0.74553  -0.65266  -0.63842
  Beta  occ. eigenvalues --   -0.57361  -0.54781  -0.53830  -0.52421  -0.45808
  Beta  occ. eigenvalues --   -0.43825  -0.42513  -0.38818  -0.37773  -0.36188
  Beta  occ. eigenvalues --   -0.34880  -0.32428  -0.29711  -0.28619  -0.27142
  Beta  occ. eigenvalues --   -0.26085  -0.25609  -0.23245  -0.22909  -0.22686
  Beta  occ. eigenvalues --   -0.22092  -0.21652  -0.21233  -0.20458  -0.18952
  Beta  occ. eigenvalues --   -0.18269  -0.17737  -0.16636  -0.15862  -0.15374
  Beta  occ. eigenvalues --   -0.14756  -0.14546  -0.13195  -0.12896  -0.11148
  Beta  occ. eigenvalues --   -0.10602  -0.10196  -0.07559  -0.07021  -0.06789
  Beta  occ. eigenvalues --   -0.04997  -0.03638  -0.03023  -0.02167  -0.02040
  Beta  occ. eigenvalues --   -0.01048   0.00120
  Beta virt. eigenvalues --    0.13348   0.13665   0.15609   0.16272   0.17711
  Beta virt. eigenvalues --    0.18186   0.19307   0.19544   0.21291   0.21335
  Beta virt. eigenvalues --    0.21925   0.22180   0.23391   0.24427   0.24451

 Mulliken charges and spin densities:
               1          2
     1  O   -0.231864   0.003220
     2  C   -0.357765   0.039218
     3  C   -0.717193   0.055227
     4  O   -0.432220   0.007814
     5  C   -0.276523   0.010336
     6  C   -0.204442   0.026780
     7  C    0.759686   0.008072
     8  C   -0.762530   0.067574
     9  O   -0.367653   0.200055
    10  C    0.430924   0.081239
    11  C   -0.006329   0.006623
    12  C   -0.452548   0.061473
    13  C   -0.523857   0.061952
    14  C    0.064064   0.010436
    15  C    0.152990   0.085438
    16  C   -0.587639   0.046454
    17  O   -0.370327   0.230782
    18  C    0.702855   0.009518
    19  S    0.837521   0.000500
    20  O   -0.445699  -0.000151
    21  O   -0.284158   0.000897
    22  O   -0.236074   0.000999
    23  H    0.271682  -0.000453
    24  H    0.376373  -0.000205
    25  H    0.183914  -0.002875
    26  H    0.138112  -0.000223
    27  H    0.100440  -0.005096
    28  H    0.098295  -0.005127
    29  H    0.139967  -0.000478
 Sum of Mulliken charges =  -2.00000   1.00000

 Dipole moment (field-independent basis, Debye):
    X=            -13.3497    Y=             -4.1370    Z=             -1.7519  Tot=             14.0854
 Quadrupole moment (field-independent basis, Debye-Ang):
   XX=           -268.7945   YY=           -192.1521   ZZ=           -151.2413
   XY=            -28.7304   XZ=            -11.0334   YZ=             -8.8266

  Exact polarizability: 418.511  -3.046 256.029   7.385  25.143 131.215
 Approx polarizability: 582.430 -18.449 486.564   6.368  52.551 215.532

                      1                      2                      3
                      A                      A                      A
 Frequencies --     32.3393                36.0018                54.6897
 Red. masses --     11.6162                 8.8557                10.3163
 Frc consts  --      0.0072                 0.0068                 0.0182
 IR Inten    --      1.1768                 0.0768                 2.9633

                      4                      5                      6
                      A                      A                      A
 Frequencies --    105.5738               122.0085               126.6646
 Red. masses --      8.9959                 9.4798                 5.8113
 Frc consts  --      0.0591                 0.0831                 0.0549
 IR Inten    --      1.2750                 0.9301                 0.4546

                      7                      8                      9
                      A                      A                      A
 Frequencies --    136.1269               180.6763               205.4870
 Red. masses --      8.8124                 7.3426                 8.9536
 Frc consts  --      0.0962                 0.1412                 0.2227
 IR Inten    --      3.2050                 0.4038                 3.9937

                     10                     11                     12
                      A                      A                      A
 Frequencies --    238.7932               268.5107               291.9055
 Red. masses --      9.1582                 8.8033                10.6985
 Frc consts  --      0.3077                 0.3740                 0.5371
 IR Inten    --      4.3692                14.6168                 3.1350

                     13                     14                     15
                      A                      A                      A
 Frequencies --    296.8609               307.3879               354.1602
 Red. masses --      7.2850                 5.8363                10.7848
 Frc consts  --      0.3783                 0.3249                 0.7970
 IR Inten    --      1.3403                 3.4176                 1.7586

                     16                     17                     18
                      A                      A                      A
 Frequencies --    378.1841               381.6265               409.7055
 Red. masses --      8.7029                11.1094                 6.4906
 Frc consts  --      0.7334                 0.9533                 0.6419
 IR Inten    --      1.3483                 1.4695                 1.8943

                     19                     20                     21
                      A                      A                      A
 Frequencies --    431.0397               431.1868               446.6710
 Red. masses --      6.1003                 9.6037                 3.8258
 Frc consts  --      0.6678                 1.0520                 0.4497
 IR Inten    --      2.2131                 5.9952                 1.0398

                     22                     23                     24
                      A                      A                      A
 Frequencies --    480.3961               490.2142               504.8516
 Red. masses --     11.9060                10.7276                 7.5717
 Frc consts  --      1.6189                 1.5189                 1.1370
 IR Inten    --      0.4083                 9.1416                17.3530

                     25                     26                     27
                      A                      A                      A
 Frequencies --    517.9167               527.6708               566.7481
 Red. masses --      8.7904                 1.2488                 5.4582
 Frc consts  --      1.3892                 0.2049                 1.0329
 IR Inten    --     10.1596                63.4754                 0.9325

                     28                     29                     30
                      A                      A                      A
 Frequencies --    584.4849               594.0355               629.5559
 Red. masses --      9.1430                 5.5040                11.9439
 Frc consts  --      1.8403                 1.1443                 2.7891
 IR Inten    --     90.2136                17.5672               182.8179

                     31                     32                     33
                      A                      A                      A
 Frequencies --    656.3189               673.9422               681.5955
 Red. masses --      7.1433                 6.4705                 7.0082
 Frc consts  --      1.8129                 1.7315                 1.9183
 IR Inten    --      0.8437                17.4093                 2.4020

                     34                     35                     36
                      A                      A                      A
 Frequencies --    703.3196               728.1642               739.6830
 Red. masses --      1.9160                 6.4901                 6.0812
 Frc consts  --      0.5584                 2.0275                 1.9603
 IR Inten    --     73.1030                32.7894                 2.5606

                     37                     38                     39
                      A                      A                      A
 Frequencies --    769.8382               774.3081               794.6727
 Red. masses --      2.4819                 7.7891                 4.0385
 Frc consts  --      0.8666                 2.7515                 1.5026
 IR Inten    --      9.9831                55.6822                 0.4607

                     40                     41                     42
                      A                      A                      A
 Frequencies --    838.4547               865.3201               874.7700
 Red. masses --      1.6567                 5.7189                 1.1654
 Frc consts  --      0.6862                 2.5230                 0.5254
 IR Inten    --      0.0089                15.7829                82.2806

                     43                     44                     45
                      A                      A                      A
 Frequencies --    910.0604               918.4897               946.6706
 Red. masses --      5.8034                 1.4244                13.4981
 Frc consts  --      2.8319                 0.7080                 7.1272
 IR Inten    --     16.4051                 7.1941               225.9370

                     46                     47                     48
                      A                      A                      A
 Frequencies --    968.1495               972.5542              1019.6769
 Red. masses --      1.2428                 1.3607                 3.5050
 Frc consts  --      0.6864                 0.7583                 2.1471
 IR Inten    --      0.0616                 3.4139                34.3127

                     49                     50                     51
                      A                      A                      A
 Frequencies --   1038.5890              1059.0340              1098.0104
 Red. masses --      2.6591                 7.3103                15.0874
 Frc consts  --      1.6899                 4.8306                10.7171
 IR Inten    --    141.4325                54.2421               307.8183

                     52                     53                     54
                      A                      A                      A
 Frequencies --   1107.9664              1138.8935              1176.8104
 Red. masses --      1.9107                 1.3477                 2.0781
 Frc consts  --      1.3820                 1.0299                 1.6956
 IR Inten    --     16.7221                23.6571                24.2369

                     55                     56                     57
                      A                      A                      A
 Frequencies --   1191.0809              1208.4763              1217.3004
 Red. masses --     13.3397                 2.1860                 2.8078
 Frc consts  --     11.1501                 1.8809                 2.4514
 IR Inten    --    284.0660                23.9569                43.8209

                     58                     59                     60
                      A                      A                      A
 Frequencies --   1243.8634              1258.3849              1299.8901
 Red. masses --      2.7794                 3.3656                 3.7762
 Frc consts  --      2.5336                 3.1400                 3.7594
 IR Inten    --      0.5993               167.0632               102.0782

                     61                     62                     63
                      A                      A                      A
 Frequencies --   1322.4212              1364.2810              1373.2248
 Red. masses --      5.3534                10.5437                 2.6745
 Frc consts  --      5.5159                11.5625                 2.9715
 IR Inten    --     71.7744                78.8552                18.7358

                     64                     65                     66
                      A                      A                      A
 Frequencies --   1412.6714              1438.3201              1461.8143
 Red. masses --      3.3546                 2.6726                 2.3902
 Frc consts  --      3.9443                 3.2575                 3.0093
 IR Inten    --    177.7626               387.9987               194.0396

                     67                     68                     69
                      A                      A                      A
 Frequencies --   1476.1497              1501.7953              1519.8360
 Red. masses --      2.7432                 3.0182                 5.8452
 Frc consts  --      3.5218                 4.0107                 7.9550
 IR Inten    --     14.3131               121.3411               582.1495

                     70                     71                     72
                      A                      A                      A
 Frequencies --   1531.5514              1575.5965              1599.3757
 Red. masses --      6.2093                 2.7284                 7.0160
 Frc consts  --      8.5814                 3.9907                10.5740
 IR Inten    --     46.8920                27.6421                71.7030

                     73                     74                     75
                      A                      A                      A
 Frequencies --   1612.4252              1634.8371              3034.0168
 Red. masses --      6.0450                 4.9111                 1.0717
 Frc consts  --      9.2599                 7.7335                 5.8123
 IR Inten    --     31.6305                35.8372              1218.1288

                     76                     77                     78
                      A                      A                      A
 Frequencies --   3113.5744              3135.3106              3172.7602
 Red. masses --      1.0836                 1.0909                 1.0908
 Frc consts  --      6.1890                 6.3185                 6.4695
 IR Inten    --     28.4596                82.7310                17.4080

                     79                     80                     81
                      A                      A                      A
 Frequencies --   3175.3653              3206.6531              3711.9185
 Red. masses --      1.0919                 1.0893                 1.0643
 Frc consts  --      6.4864                 6.5992                 8.6398
 IR Inten    --     40.7463                 2.2872                83.6664

 - Thermochemistry -
 -------------------
 Temperature   298.150 Kelvin.  Pressure   1.00000 Atm.
 Atom     1 has atomic number  8 and mass  15.99491

 Molecular mass:   318.99125 amu.
 Principal axes and moments of inertia in atomic units:
                           1         2         3
     Eigenvalues --  3124.24005********************
           X            0.99390  -0.10687  -0.02738
           Y            0.09940   0.97516  -0.19795
           Z            0.04785   0.19402   0.97983
 This molecule is an asymmetric top.
 Rotational symmetry number  1.
 Warning -- assumption of classical behavior for rotation
           may cause significant error
 Rotational temperatures (Kelvin)      0.02772     0.00763     0.00613
 Rotational constants (GHZ):           0.57766     0.15891     0.12776
 Zero-point vibrational energy     492739.8 (Joules/Mol)
                                  117.76764 (Kcal/Mol)
 Warning -- explicit consideration of  29 degrees of freedom as
           vibrations may cause significant error
 Vibrational temperatures:     46.53    51.80    78.69   151.90   175.54
          (Kelvin)            182.24   195.86   259.95   295.65   343.57
                              386.33   419.99   427.12   442.26   509.56
                              544.12   549.08   589.47   620.17   620.38
                              642.66   691.18   705.31   726.37   745.17
                              759.20   815.42   840.94   854.68   905.79
                              944.30   969.65   980.66  1011.92  1047.67
                             1064.24  1107.63  1114.06  1143.36  1206.35
                             1245.00  1258.60  1309.37  1321.50  1362.05
                             1392.95  1399.29  1467.09  1494.30  1523.71
                             1579.79  1594.12  1638.61  1693.17  1713.70
                             1738.73  1751.42  1789.64  1810.54  1870.25
                             1902.67  1962.90  1975.76  2032.52  2069.42
                             2103.22  2123.85  2160.75  2186.71  2203.56
                             2266.93  2301.14  2319.92  2352.17  4365.27
                             4479.74  4511.01  4564.89  4568.64  4613.66
                             5340.62

 Zero-point correction=                           0.187675 (Hartree/Particle)
 Thermal correction to Energy=                    0.204826
 Thermal correction to Enthalpy=                  0.205770
 Thermal correction to Gibbs Free Energy=         0.141373
 Sum of electronic and zero-point Energies=          -1462.637454
 Sum of electronic and thermal Energies=             -1462.620303
 Sum of electronic and thermal Enthalpies=           -1462.619359
 Sum of electronic and thermal Free Energies=        -1462.683756

                     E (Thermal)             CV                S
                      KCal/Mol        Cal/Mol-Kelvin    Cal/Mol-Kelvin
 Total                  128.530             67.714            135.536
 Electronic               0.000              0.000              1.377
 Translational            0.889              2.981             43.176
 Rotational               0.889              2.981             34.571
 Vibrational            126.753             61.752             56.412
 Vibration     1          0.594              1.983              5.680
 Vibration     2          0.594              1.982              5.468
 Vibration     3          0.596              1.976              4.640
 Vibration     4          0.605              1.945              3.349
 Vibration     5          0.610              1.931              3.068
 Vibration     6          0.611              1.926              2.996
 Vibration     7          0.614              1.917              2.858
 Vibration     8          0.630              1.866              2.321
 Vibration     9          0.640              1.832              2.083
 Vibration    10          0.657              1.781              1.812
 Vibration    11          0.673              1.731              1.606
 Vibration    12          0.687              1.689              1.463
 Vibration    13          0.691              1.680              1.435
 Vibration    14          0.697              1.660              1.376
 Vibration    15          0.730              1.567              1.148
 Vibration    16          0.748              1.517              1.046
 Vibration    17          0.751              1.509              1.033
 Vibration    18          0.774              1.449              0.928
 Vibration    19          0.792              1.403              0.855
 Vibration    20          0.792              1.402              0.855
 Vibration    21          0.806              1.368              0.806
 Vibration    22          0.837              1.294              0.709
 Vibration    23          0.846              1.272              0.683
 Vibration    24          0.860              1.239              0.646
 Vibration    25          0.873              1.210              0.615
 Vibration    26          0.883              1.189              0.592
 Vibration    27          0.923              1.103              0.511
 Vibration    28          0.941              1.065              0.477
 Vibration    29          0.952              1.044              0.460

 Optimization completed.
    -- Stationary point found.
 Normal termination of Gaussian 16 at Fri Dec 22 03:11:48 2023.
