 Gaussian 16, Revision A.03,
 Gaussian 16:  ES64L-G16RevA.03 25-Dec-2016

 ----------------------------------------------------------------
 #P UB3LYP/6-311++G(d,p) SCRF=(PCM,Solvent=n,n-DiMethylFormamide)
 ----------------------------------------------------------------

 ------------------
 Radical PCM in DMF
 ------------------
 Symbolic Z-matrix:
 Charge = -1 Multiplicity = 2

                         Standard orientation:
 ---------------------------------------------------------------------
 Center     Atomic      Atomic             Coordinates (Angstroms)
 Number     Number       Type             X           Y           Z
 ---------------------------------------------------------------------
      1          6           0        0.589685    2.026254    0.078139
      2          6           0        1.734860    2.672205   -0.540664
      3          6           0        2.835334    1.984655   -0.944922
      4          6           0        2.951943    0.546551   -0.806036
      5          6           0        1.821719   -0.135264   -0.183997
      6          6           0        0.741557    0.589968    0.289453
      7          8           0       -0.447694    2.662357    0.373611
      8          8           0        3.969825   -0.083684   -1.200955
      9         16           0       -0.547367   -0.226441    1.245197
     10          6           0       -2.006258   -0.249015    0.173045
     11          6           0       -2.923065    0.796630    0.242574
     12          6           0       -2.179340   -1.321876   -0.699003
     13          6           0       -3.307953   -1.348002   -1.516154
     14          6           0       -4.049306    0.755343   -0.577386
     15          6           0       -4.242763   -0.313918   -1.452667
     16          8           0       -0.133045   -1.632932    1.421650
     17          8           0       -0.880296    0.551894    2.444506
     18          1           0        1.652599    3.746353   -0.675746
     19          1           0        3.677918    2.487449   -1.410459
     20          1           0       -2.730095    1.624428    0.911505
     21          1           0       -1.437419   -2.110510   -0.734163
     22          1           0       -3.455313   -2.175744   -2.201345
     23          1           0       -4.772233    1.562992   -0.536573
     24          1           0       -5.119843   -0.338255   -2.091336
     25          6           0        1.936299   -1.652282   -0.206607
     26          6           0        2.846095   -2.283923    0.817441
     27          8           0        1.396260   -2.285424   -1.089347
     28          1           0        2.516595   -2.011852    1.822257
     29          1           0        3.855854   -1.894961    0.657940
     30          1           0        2.836545   -3.368491    0.699753
 ---------------------------------------------------------------------

 SCF Done:  E(UB3LYP) =  -1314.16699690     A.U. after   23 cycles

 The electronic state is 2-A.
 Alpha  occ. eigenvalues --  -89.05611 -19.12430 -19.12243 -19.12100 -19.09617
 Alpha  occ. eigenvalues --  -19.09459 -10.27870 -10.24719 -10.24228 -10.21448
 Alpha  occ. eigenvalues --  -10.21371 -10.20574 -10.19576 -10.19365 -10.19106
 Alpha  occ. eigenvalues --  -10.18938 -10.18888 -10.18188 -10.18081 -10.16706
 Alpha  occ. eigenvalues --   -8.11994  -6.08286  -6.08161  -6.08087  -1.11610
 Alpha  occ. eigenvalues --   -1.05972  -1.02331  -1.01919  -1.01054  -0.87920
 Alpha  occ. eigenvalues --   -0.85185  -0.79130  -0.77860  -0.76572  -0.74988
 Alpha  occ. eigenvalues --   -0.71442  -0.67942  -0.63697  -0.62495  -0.61510
 Alpha  occ. eigenvalues --   -0.58000  -0.54584  -0.54327  -0.50707  -0.50262
 Alpha  occ. eigenvalues --   -0.48718  -0.48206  -0.47942  -0.46181  -0.45768
 Alpha  occ. eigenvalues --   -0.45677  -0.45238  -0.44041  -0.43433  -0.42699
 Alpha  occ. eigenvalues --   -0.42360  -0.40348  -0.40161  -0.39622  -0.38684
 Alpha  occ. eigenvalues --   -0.38470  -0.38186  -0.36964  -0.36240  -0.34589
 Alpha  occ. eigenvalues --   -0.33319  -0.31481  -0.30874  -0.30362  -0.28716
 Alpha  occ. eigenvalues --   -0.27774  -0.27259  -0.26947  -0.26130  -0.24744
 Alpha  occ. eigenvalues --   -0.18300
 Alpha virt. eigenvalues --   -0.05571  -0.03513  -0.02816  -0.02280  -0.00375
 Alpha virt. eigenvalues --    0.00307   0.00699   0.01050   0.01731   0.02305
 Alpha virt. eigenvalues --    0.02995   0.03252   0.03445   0.03774   0.04868

  Beta  occ. eigenvalues --  -89.05613 -19.12408 -19.12234 -19.12102 -19.08853
  Beta  occ. eigenvalues --  -19.08827 -10.27885 -10.24638 -10.24119 -10.21448
  Beta  occ. eigenvalues --  -10.21254 -10.20313 -10.19572 -10.19361 -10.19102
  Beta  occ. eigenvalues --  -10.18939 -10.18889 -10.18141 -10.17991 -10.16703
  Beta  occ. eigenvalues --   -8.11996  -6.08288  -6.08163  -6.08090  -1.11591
  Beta  occ. eigenvalues --   -1.05907  -1.01390  -1.00908  -1.00594  -0.87912
  Beta  occ. eigenvalues --   -0.84544  -0.78982  -0.77697  -0.76566  -0.74831
  Beta  occ. eigenvalues --   -0.70825  -0.67534  -0.63428  -0.62489  -0.61303
  Beta  occ. eigenvalues --   -0.57827  -0.54354  -0.54235  -0.50542  -0.50031
  Beta  occ. eigenvalues --   -0.48633  -0.48054  -0.47929  -0.46027  -0.45696
  Beta  occ. eigenvalues --   -0.45641  -0.44945  -0.44008  -0.43275  -0.42088
  Beta  occ. eigenvalues --   -0.40944  -0.40024  -0.39702  -0.38952  -0.38439
  Beta  occ. eigenvalues --   -0.38226  -0.37193  -0.36293  -0.36089  -0.34460
  Beta  occ. eigenvalues --   -0.33280  -0.31415  -0.30655  -0.28740  -0.27674
  Beta  occ. eigenvalues --   -0.27130  -0.26580  -0.26526  -0.25483  -0.24280
  Beta virt. eigenvalues --   -0.11090  -0.04914  -0.03172  -0.02728  -0.01675
  Beta virt. eigenvalues --   -0.00357   0.00517   0.01041   0.01579   0.02270
  Beta virt. eigenvalues --    0.02494   0.03061   0.03410   0.03565   0.03801

 Mulliken charges and spin densities:
               1          2
     1  C   -0.281238   0.029680
     2  C   -0.007306   0.066125
     3  C   -0.132210   0.035328
     4  C   -0.525793   0.078975
     5  C    0.907794   0.193937
     6  C   -0.093334   0.120946
     7  O   -0.381425   0.231001
     8  O   -0.425552   0.277267
     9  S    0.427663  -0.035368
    10  C    0.482431   0.002108
    11  C   -0.053091   0.015457
    12  C   -0.216599   0.006887
    13  C   -0.521672  -0.001669
    14  C   -0.456380  -0.003758
    15  C   -0.325485   0.003795
    16  O   -0.191027  -0.003103
    17  O   -0.184668   0.007891
    18  H    0.213296  -0.006010
    19  H    0.208923  -0.004332
    20  H    0.270635  -0.000400
    21  H    0.242726   0.000822
    22  H    0.216249   0.000066
    23  H    0.213741   0.000123
    24  H    0.191957  -0.000221
    25  C   -0.244614  -0.025621
    26  C   -0.622813   0.007146
    27  O   -0.269939   0.003112
    28  H    0.181405   0.000634
    29  H    0.211388  -0.001695
    30  H    0.164938   0.000876
 Sum of Mulliken charges =  -1.00000   1.00000

 Dipole moment (field-independent basis, Debye):
    X=             -6.3981    Y=             -0.3218    Z=             -2.2400  Tot=              6.7865
 Quadrupole moment (field-independent basis, Debye-Ang):
   XX=           -139.8337   YY=           -142.0667   ZZ=           -142.9290
   XY=              7.2201   XZ=             22.5195   YZ=             -6.0673

 Normal termination of Gaussian 16 at Wed Jan 24 22:58:08 2024.
