 Gaussian 16, Revision A.03,
 Gaussian 16:  ES64L-G16RevA.03 25-Dec-2016

 ----------------------------------------------------------------------
 #P UB3LYP/6-311++G(d,p) nosym opt freq SCRF=(PCM,Solvent=n,n-DiMethylF
 ormamide)
 ----------------------------------------------------------------------

 -------
 Reduced
 -------
 Symbolic Z-matrix:
 Charge = -2 Multiplicity = 1

 SCF Done:  E(UB3LYP) =  -1124.44091629     A.U. after   20 cycles
 SCF Done:  E(UB3LYP) =  -1124.44196075     A.U. after   15 cycles
 SCF Done:  E(UB3LYP) =  -1124.44212305     A.U. after   14 cycles
 SCF Done:  E(UB3LYP) =  -1124.44212982     A.U. after   13 cycles
 SCF Done:  E(UB3LYP) =  -1124.44213054     A.U. after   12 cycles
 SCF Done:  E(UB3LYP) =  -1124.44213094     A.U. after   11 cycles
 Optimization completed.
    -- Stationary point found.
 Normal termination of Gaussian 16 at Sun Feb 11 16:37:50 2024.

 ----------------------------------------------------------------------
 #P Geom=AllCheck Guess=TCheck SCRF=Check GenChk UB3LYP/6-311++G(d,p) F
 req
 ----------------------------------------------------------------------

 Structure from the checkpoint file:  "339-an.chk"
 -------
 Reduced
 -------
 Charge = -2 Multiplicity = 1

                          Input orientation:
 ---------------------------------------------------------------------
 Center     Atomic      Atomic             Coordinates (Angstroms)
 Number     Number       Type             X           Y           Z
 ---------------------------------------------------------------------
      1          8           0       -0.018982   -2.541057   -0.657994
      2          6           0       -0.019947   -1.279650   -0.263431
      3          6           0        1.203348   -0.598990    0.038323
      4          6           0        2.440970   -1.325892    0.090721
      5          6           0        3.612674   -0.766338    0.544714
      6          6           0        3.663410    0.587732    0.976654
      7          6           0        2.514645    1.354853    0.883886
      8          6           0        1.318353    0.798040    0.406636
      9         16           0       -0.020106    1.854792    0.059156
     10          8           0       -0.012859    2.242961   -1.395222
     11          6           0       -1.362983    0.799342    0.393520
     12          6           0       -2.563470    1.357076    0.859042
     13          6           0       -3.713538    0.590688    0.941129
     14          6           0       -3.659371   -0.763811    0.511005
     15          6           0       -2.483638   -1.324223    0.068663
     16          6           0       -1.245422   -0.597822    0.026876
     17          1           0        2.410014   -2.363500   -0.218527
     18          1           0        4.514531   -1.370855    0.580074
     19          1           0        4.586236    1.018732    1.347098
     20          1           0        2.527911    2.402975    1.164344
     21          1           0       -2.578823    2.405278    1.139076
     22          1           0       -4.639635    1.022491    1.302362
     23          1           0       -4.561726   -1.367980    0.538677
     24          1           0       -2.449641   -2.362348   -0.238573
     25          8           0       -0.023895    3.051291    0.958874
 ---------------------------------------------------------------------

 SCF Done:  E(UB3LYP) =  -1124.44213094     A.U. after    2 cycles

 Alpha  occ. eigenvalues --  -89.01811 -19.08916 -19.08421 -19.00659 -10.16988
 Alpha  occ. eigenvalues --  -10.16985 -10.16635 -10.16633 -10.16495 -10.15604
 Alpha  occ. eigenvalues --  -10.15602 -10.15180 -10.15178 -10.14800 -10.14800
 Alpha  occ. eigenvalues --  -10.14777 -10.14774  -8.08204  -6.04518  -6.04365
 Alpha  occ. eigenvalues --   -6.04277  -1.07046  -0.96053  -0.91394  -0.84210
 Alpha  occ. eigenvalues --   -0.83201  -0.77152  -0.73731  -0.73546  -0.71950
 Alpha  occ. eigenvalues --   -0.67122  -0.62369  -0.60324  -0.57282  -0.55276
 Alpha  occ. eigenvalues --   -0.52618  -0.51730  -0.47995  -0.45867  -0.44889
 Alpha  occ. eigenvalues --   -0.44049  -0.43486  -0.42414  -0.41760  -0.41021
 Alpha  occ. eigenvalues --   -0.39779  -0.37272  -0.36691  -0.35672  -0.35141
 Alpha  occ. eigenvalues --   -0.33664  -0.33196  -0.32470  -0.30981  -0.30055
 Alpha  occ. eigenvalues --   -0.29913  -0.28516  -0.27129  -0.24570  -0.24136
 Alpha  occ. eigenvalues --   -0.22347  -0.22054  -0.19193  -0.10426
 Alpha virt. eigenvalues --   -0.02005  -0.01062  -0.00030   0.00771   0.00808
 Alpha virt. eigenvalues --    0.01511   0.02326   0.02598   0.04053   0.04432
 Alpha virt. eigenvalues --    0.04576   0.04667   0.06158   0.06267   0.06873

  Beta  occ. eigenvalues --  -89.01811 -19.08916 -19.08421 -19.00659 -10.16988
  Beta  occ. eigenvalues --  -10.16985 -10.16635 -10.16633 -10.16495 -10.15604
  Beta  occ. eigenvalues --  -10.15602 -10.15180 -10.15178 -10.14800 -10.14800
  Beta  occ. eigenvalues --  -10.14777 -10.14774  -8.08204  -6.04518  -6.04365
  Beta  occ. eigenvalues --   -6.04277  -1.07046  -0.96053  -0.91394  -0.84210
  Beta  occ. eigenvalues --   -0.83201  -0.77152  -0.73731  -0.73546  -0.71950
  Beta  occ. eigenvalues --   -0.67122  -0.62369  -0.60324  -0.57282  -0.55276
  Beta  occ. eigenvalues --   -0.52618  -0.51730  -0.47995  -0.45867  -0.44889
  Beta  occ. eigenvalues --   -0.44049  -0.43486  -0.42414  -0.41760  -0.41021
  Beta  occ. eigenvalues --   -0.39779  -0.37272  -0.36691  -0.35672  -0.35141
  Beta  occ. eigenvalues --   -0.33664  -0.33196  -0.32470  -0.30981  -0.30055
  Beta  occ. eigenvalues --   -0.29913  -0.28516  -0.27129  -0.24570  -0.24136
  Beta  occ. eigenvalues --   -0.22347  -0.22054  -0.19193  -0.10426
  Beta virt. eigenvalues --   -0.02005  -0.01062  -0.00030   0.00771   0.00808
  Beta virt. eigenvalues --    0.01511   0.02326   0.02598   0.04053   0.04432
  Beta virt. eigenvalues --    0.04576   0.04667   0.06158   0.06267   0.06873

 Mulliken charges and spin densities:
               1          2
     1  O   -0.726349   0.000000
     2  C   -0.113629  -0.000000
     3  C    1.090542  -0.000000
     4  C   -0.032328   0.000000
     5  C   -0.656604  -0.000000
     6  C   -0.258015   0.000000
     7  C    0.033966   0.000000
     8  C   -1.220363  -0.000000
     9  S    0.148583   0.000000
    10  O   -0.220925  -0.000000
    11  C   -1.220761   0.000000
    12  C    0.034355   0.000000
    13  C   -0.257762   0.000000
    14  C   -0.657509   0.000000
    15  C   -0.030869  -0.000000
    16  C    1.089591   0.000000
    17  H    0.170792   0.000000
    18  H    0.156469  -0.000000
    19  H    0.164729   0.000000
    20  H    0.192334  -0.000000
    21  H    0.192370  -0.000000
    22  H    0.164771   0.000000
    23  H    0.156489  -0.000000
    24  H    0.170931   0.000000
    25  O   -0.370805  -0.000000
 Sum of Mulliken charges =  -2.00000  -0.00000

 Dipole moment (field-independent basis, Debye):
    X=              0.1802    Y=              0.0415    Z=              2.7941  Tot=              2.8002
 Quadrupole moment (field-independent basis, Debye-Ang):
   XX=           -126.5705   YY=           -165.7670   ZZ=           -129.2684
   XY=             -0.0059   XZ=             -0.0539   YZ=             -3.4004

  Exact polarizability: 635.599  -0.262 327.865   2.089  32.126 198.157
 Approx polarizability: 725.972  -0.326 372.980   2.404  43.061 226.352

                      1                      2                      3
                      A                      A                      A
 Frequencies --     52.6869               115.6224               116.7792
 Red. masses --      6.5395                 4.2028                 6.1191
 Frc consts  --      0.0107                 0.0331                 0.0492
 IR Inten    --     12.5642                11.5554                 4.5794

                      4                      5                      6
                      A                      A                      A
 Frequencies --    159.9495               164.7873               213.3590
 Red. masses --      5.7906                 7.5955                 5.3730
 Frc consts  --      0.0873                 0.1215                 0.1441
 IR Inten    --      6.5098                 0.2064                 4.2400

                      7                      8                      9
                      A                      A                      A
 Frequencies --    244.8405               297.1844               300.0305
 Red. masses --      7.9516                10.1168                 7.3048
 Frc consts  --      0.2808                 0.5264                 0.3874
 IR Inten    --      3.6817                23.4425                 2.8551

                     10                     11                     12
                      A                      A                      A
 Frequencies --    321.3627               338.8572               386.5481
 Red. masses --      8.9058                 7.9244                 7.9255
 Frc consts  --      0.5419                 0.5361                 0.6977
 IR Inten    --      1.8809                 1.3003                 5.9631

                     13                     14                     15
                      A                      A                      A
 Frequencies --    388.6243               409.7559               457.0670
 Red. masses --      7.8840                 3.7232                 3.5312
 Frc consts  --      0.7015                 0.3683                 0.4346
 IR Inten    --      0.1807                 9.5383                34.3678

                     16                     17                     18
                      A                      A                      A
 Frequencies --    488.0922               496.7114               530.7268
 Red. masses --      3.9146                 9.7816                 9.8689
 Frc consts  --      0.5495                 1.4219                 1.6378
 IR Inten    --      4.4981                77.4059               108.0982

                     19                     20                     21
                      A                      A                      A
 Frequencies --    558.2356               578.5089               613.9655
 Red. masses --     11.2517                 6.5637                 4.0255
 Frc consts  --      2.0659                 1.2943                 0.8940
 IR Inten    --      8.3817                 2.1326                66.3793

                     22                     23                     24
                      A                      A                      A
 Frequencies --    627.2830               670.7023               701.3380
 Red. masses --      7.0842                 5.9729                 4.7940
 Frc consts  --      1.6424                 1.5831                 1.3893
 IR Inten    --      0.4078                12.2695                 0.5164

                     25                     26                     27
                      A                      A                      A
 Frequencies --    706.3322               720.6298               746.8394
 Red. masses --      1.4315                 1.3370                 4.9606
 Frc consts  --      0.4208                 0.4091                 1.6302
 IR Inten    --    203.2901                24.8727                 0.4784

                     28                     29                     30
                      A                      A                      A
 Frequencies --    748.0414               768.2864               832.3027
 Red. masses --      3.2049                 6.1355                 1.5035
 Frc consts  --      1.0566                 2.1338                 0.6137
 IR Inten    --     32.7757                10.7604                21.5682

                     31                     32                     33
                      A                      A                      A
 Frequencies --    833.2271               913.5594               942.2133
 Red. masses --      1.4387                 6.4188                 1.3907
 Frc consts  --      0.5885                 3.1563                 0.7274
 IR Inten    --      7.2240               128.9895                91.2117

                     34                     35                     36
                      A                      A                      A
 Frequencies --    943.0436               959.9322               980.4692
 Red. masses --      1.3161                 8.3789                 1.2721
 Frc consts  --      0.6896                 4.5490                 0.7205
 IR Inten    --     13.0259               737.0777                 1.7892

                     37                     38                     39
                      A                      A                      A
 Frequencies --    981.2735              1000.8928              1014.3465
 Red. masses --      1.2726                 4.5171                 2.2867
 Frc consts  --      0.7220                 2.6662                 1.3862
 IR Inten    --      3.0841              1222.1706                41.1232

                     40                     41                     42
                      A                      A                      A
 Frequencies --   1023.0141              1062.8095              1094.7033
 Red. masses --      2.2174                 5.5574                 6.4888
 Frc consts  --      1.3673                 3.6985                 4.5815
 IR Inten    --     65.7091               243.3858               830.1176

                     43                     44                     45
                      A                      A                      A
 Frequencies --   1101.7365              1108.7263              1162.7396
 Red. masses --      3.6167                 1.7530                 1.2172
 Frc consts  --      2.5865                 1.2696                 0.9696
 IR Inten    --     59.6795               311.7569                 1.5197

                     46                     47                     48
                      A                      A                      A
 Frequencies --   1163.7953              1173.3638              1213.5688
 Red. masses --      1.1851                 1.6574                 1.7172
 Frc consts  --      0.9457                 1.3445                 1.4901
 IR Inten    --      1.4682                70.5650                 0.4593

                     49                     50                     51
                      A                      A                      A
 Frequencies --   1238.2116              1310.4386              1321.1346
 Red. masses --      2.3694                 3.5640                 5.8493
 Frc consts  --      2.1403                 3.6059                 6.0152
 IR Inten    --     51.7830               323.7012                47.5124

                     52                     53                     54
                      A                      A                      A
 Frequencies --   1346.2423              1385.3154              1427.4432
 Red. masses --      2.9602                 9.1317                 2.3897
 Frc consts  --      3.1609                10.3252                 2.8689
 IR Inten    --   1433.8938               652.7220               923.5922

                     55                     56                     57
                      A                      A                      A
 Frequencies --   1434.5459              1461.1897              1474.2114
 Red. masses --      2.2030                 2.9092                 2.4348
 Frc consts  --      2.6711                 3.6596                 3.1177
 IR Inten    --      5.6190               222.7321                17.9501

                     58                     59                     60
                      A                      A                      A
 Frequencies --   1508.4920              1526.3411              1588.7968
 Red. masses --      4.0428                 4.8048                 4.8275
 Frc consts  --      5.4202                 6.5952                 7.1798
 IR Inten    --     52.4403                 5.6272               666.4998

                     61                     62                     63
                      A                      A                      A
 Frequencies --   1614.7435              3142.0118              3142.0988
 Red. masses --      6.0299                 1.0862                 1.0864
 Frc consts  --      9.2633                 6.3179                 6.3196
 IR Inten    --      5.3469                37.1752                60.4575

                     64                     65                     66
                      A                      A                      A
 Frequencies --   3161.8715              3162.2153              3177.7048
 Red. masses --      1.0867                 1.0869                 1.0915
 Frc consts  --      6.4013                 6.4038                 6.4938
 IR Inten    --      0.3072                 6.9552                 7.6956

                     67                     68                     69
                      A                      A                      A
 Frequencies --   3178.1193              3182.1250              3182.7974
 Red. masses --      1.0919                 1.0951                 1.0949
 Frc consts  --      6.4978                 6.5336                 6.5349
 IR Inten    --     39.5013               125.9704                 7.0949

 - Thermochemistry -
 -------------------
 Temperature   298.150 Kelvin.  Pressure   1.00000 Atm.
 Atom     1 has atomic number  8 and mass  15.99491

 Molecular mass:   244.01942 amu.
 Principal axes and moments of inertia in atomic units:
                           1         2         3
     Eigenvalues --  2465.173624375.859176178.72182
           X            0.99999  -0.00018  -0.00472
           Y           -0.00035   0.99386  -0.11063
           Z            0.00471   0.11063   0.99385
 This molecule is an asymmetric top.
 Rotational symmetry number  1.
 Warning -- assumption of classical behavior for rotation
           may cause significant error
 Rotational temperatures (Kelvin)      0.03514     0.01979     0.01402
 Rotational constants (GHZ):           0.73209     0.41243     0.29209
 Zero-point vibrational energy     456943.1 (Joules/Mol)
                                  109.21201 (Kcal/Mol)
 Warning -- explicit consideration of  21 degrees of freedom as
           vibrations may cause significant error
 Vibrational temperatures:     75.80   166.35   168.02   230.13   237.09
          (Kelvin)            306.98   352.27   427.58   431.68   462.37
                              487.54   556.16   559.14   589.55   657.62
                              702.26   714.66   763.60   803.18   832.35
                              883.36   902.52   964.99  1009.07  1016.25
                             1036.83  1074.54  1076.26  1105.39  1197.50
                             1198.83  1314.41  1355.63  1356.83  1381.13
                             1410.68  1411.83  1440.06  1459.42  1471.89
                             1529.15  1575.03  1585.15  1595.21  1672.92
                             1674.44  1688.21  1746.05  1781.51  1885.43
                             1900.82  1936.94  1993.16  2053.77  2063.99
                             2102.33  2121.06  2170.38  2196.06  2285.92
                             2323.26  4520.65  4520.78  4549.23  4549.72
                             4572.01  4572.60  4578.37  4579.34

 Zero-point correction=                           0.174040 (Hartree/Particle)
 Thermal correction to Energy=                    0.187026
 Thermal correction to Enthalpy=                  0.187971
 Thermal correction to Gibbs Free Energy=         0.134929
 Sum of electronic and zero-point Energies=          -1124.268091
 Sum of electronic and thermal Energies=             -1124.255105
 Sum of electronic and thermal Enthalpies=           -1124.254160
 Sum of electronic and thermal Free Energies=        -1124.307202

                     E (Thermal)             CV                S
                      KCal/Mol        Cal/Mol-Kelvin    Cal/Mol-Kelvin
 Total                  117.361             53.161            111.635
 Electronic               0.000              0.000              0.000
 Translational            0.889              2.981             42.377
 Rotational               0.889              2.981             32.566
 Vibrational            115.583             47.199             36.691
 Vibration     1          0.596              1.977              4.714
 Vibration     2          0.608              1.936              3.172
 Vibration     3          0.608              1.935              3.153
 Vibration     4          0.622              1.891              2.550
 Vibration     5          0.623              1.886              2.494
 Vibration     6          0.644              1.821              2.015
 Vibration     7          0.660              1.771              1.767
 Vibration     8          0.691              1.679              1.433
 Vibration     9          0.693              1.674              1.417
 Vibration    10          0.707              1.633              1.303
 Vibration    11          0.719              1.598              1.218
 Vibration    12          0.755              1.499              1.013
 Vibration    13          0.757              1.494              1.005
 Vibration    14          0.774              1.449              0.927
 Vibration    15          0.815              1.345              0.775
 Vibration    16          0.844              1.276              0.689
 Vibration    17          0.852              1.257              0.666
 Vibration    18          0.886              1.182              0.586
 Vibration    19          0.914              1.122              0.527
 Vibration    20          0.935              1.078              0.488
 Vibration    21          0.973              1.002              0.426

 Optimization completed.
    -- Stationary point found.
 Normal termination of Gaussian 16 at Sun Feb 11 17:36:03 2024.
