 Q-Chem 5.4, Q-Chem, Inc., Pleasanton, CA (2021)
 Q-Chem 5.4.0 for Intel X86 EM64T Linux

User input:
--------------------------------------------------------------
$molecule
0 1
N                 -4.4684380000     -0.0113400000     -0.0297130000
C                 -3.1336450000     -0.3722050000      0.1757380000
C                 -2.7738870000     -1.5263320000      0.8588480000
C                 -1.4347990000     -1.8500250000      1.0612440000
C                 -0.4303670000     -1.0251940000      0.5733770000
C                  0.9778050000     -1.4355570000      0.8005130000
O                  1.2608130000     -2.4757320000      1.3798360000
C                  2.0471240000     -0.5250820000      0.3016530000
C                  3.3879480000     -0.8720220000      0.4939820000
C                  4.3982080000     -0.0323310000      0.0415850000
C                  4.0763320000      1.1629830000     -0.6082130000
C                  2.7463890000      1.5140910000     -0.8041960000
C                  1.7225520000      0.6742960000     -0.3514710000
C                  0.3045450000      1.0765860000     -0.5853230000
O                  0.0682120000      2.1406360000     -1.1651130000
C                 -0.7624290000      0.1775330000     -0.1109410000
C                 -2.1240840000      0.5205560000     -0.2919570000
N                 -2.5389820000      1.6583660000     -0.9457980000
H                 -4.6658450000      0.3565710000     -0.9532210000
H                 -5.1376840000     -0.7219550000      0.2314230000
H                 -3.5520540000     -2.1927240000      1.2179170000
H                 -1.1536420000     -2.7558590000      1.5823230000
H                  3.6105750000     -1.8026090000      1.0011790000
H                  5.4367370000     -0.3044990000      0.1929770000
H                  4.8652690000      1.8176890000     -0.9609650000
H                  2.4754780000      2.4339670000     -1.3067010000
H                 -1.7951460000      2.3087060000     -1.1774350000
H                 -3.4069860000      2.0614850000     -0.6215470000
$end
$rem
MAX_SCF_CYCLES=200
BASIS  =  6-311++G(d,p)
GUI  =  2
JOB_TYPE  =  SP
METHOD  =  B3LYP
SOLVENT_METHOD = PCM
$end
$pcm
theory = CPCM
$end
$solvent
dielectric 37.219
opticaldielectric 1.43
$end

--------------------------------------------------------------

             Standard Nuclear Orientation (Angstroms)
    I     Atom           X                Y                Z
 ----------------------------------------------------------------
    1      N      -4.4684380000    -0.0113400000    -0.0297130000
    2      C      -3.1336450000    -0.3722050000     0.1757380000
    3      C      -2.7738870000    -1.5263320000     0.8588480000
    4      C      -1.4347990000    -1.8500250000     1.0612440000
    5      C      -0.4303670000    -1.0251940000     0.5733770000
    6      C       0.9778050000    -1.4355570000     0.8005130000
    7      O       1.2608130000    -2.4757320000     1.3798360000
    8      C       2.0471240000    -0.5250820000     0.3016530000
    9      C       3.3879480000    -0.8720220000     0.4939820000
   10      C       4.3982080000    -0.0323310000     0.0415850000
   11      C       4.0763320000     1.1629830000    -0.6082130000
   12      C       2.7463890000     1.5140910000    -0.8041960000
   13      C       1.7225520000     0.6742960000    -0.3514710000
   14      C       0.3045450000     1.0765860000    -0.5853230000
   15      O       0.0682120000     2.1406360000    -1.1651130000
   16      C      -0.7624290000     0.1775330000    -0.1109410000
   17      C      -2.1240840000     0.5205560000    -0.2919570000
   18      N      -2.5389820000     1.6583660000    -0.9457980000
   19      H      -4.6658450000     0.3565710000    -0.9532210000
   20      H      -5.1376840000    -0.7219550000     0.2314230000
   21      H      -3.5520540000    -2.1927240000     1.2179170000
   22      H      -1.1536420000    -2.7558590000     1.5823230000
   23      H       3.6105750000    -1.8026090000     1.0011790000
   24      H       5.4367370000    -0.3044990000     0.1929770000
   25      H       4.8652690000     1.8176890000    -0.9609650000
   26      H       2.4754780000     2.4339670000    -1.3067010000
   27      H      -1.7951460000     2.3087060000    -1.1774350000
   28      H      -3.4069860000     2.0614850000    -0.6215470000
 ----------------------------------------------------------------

    9    -799.7364298986      2.06e-06  Convergence criterion met
 Total energy in the final basis set =     -799.7364298986

                    Orbital Energies (a.u.)
 --------------------------------------------------------------

 Alpha MOs
 -- Occupied --
-19.1247 -19.1188 -14.3313 -14.3281 -10.2778 -10.2723 -10.2403 -10.2337
-10.2030 -10.2015 -10.1995 -10.1932 -10.1930 -10.1927 -10.1918 -10.1918
-10.1871 -10.1857  -1.0590  -1.0543  -0.9578  -0.9083  -0.8851  -0.8595
 -0.8001  -0.7733  -0.7595  -0.7479  -0.6830  -0.6603  -0.6444  -0.6108
 -0.5860  -0.5706  -0.5570  -0.5302  -0.5119  -0.5042  -0.4948  -0.4843
 -0.4703  -0.4634  -0.4514  -0.4495  -0.4463  -0.4432  -0.4268  -0.4161
 -0.4096  -0.3977  -0.3826  -0.3752  -0.3725  -0.3626  -0.3340  -0.3252
 -0.2822  -0.2813  -0.2742  -0.2692  -0.2536  -0.2157

          Ground-State Mulliken Net Atomic Charges

     Atom                 Charge (a.u.)
  ----------------------------------------
      1 N                    -0.420797
      2 C                    -0.384489
      3 C                    -0.061034
      4 C                     0.105853
      5 C                     0.464498
      6 C                    -0.495422
      7 O                    -0.324198
      8 C                    -0.029062
      9 C                     0.176790
     10 C                    -0.445166
     11 C                    -0.468089
     12 C                     0.256157
     13 C                     0.151350
     14 C                    -0.489917
     15 O                    -0.321323
     16 C                     0.412827
     17 C                    -0.144565
     18 N                    -0.445522
     19 H                     0.285290
     20 H                     0.317080
     21 H                     0.223147
     22 H                     0.187386
     23 H                     0.191076
     24 H                     0.219069
     25 H                     0.220205
     26 H                     0.196076
     27 H                     0.331818
     28 H                     0.290960
  ----------------------------------------
  Sum of atomic charges =     0.000000

                    Cartesian Multipole Moments
 -----------------------------------------------------------------
    Charge (ESU x 10^10)
                 0.0000
    Dipole Moment (Debye)
         X      -4.3919      Y       1.4666      Z      -1.1740
       Tot       4.7769
    Quadrupole Moments (Debye-Ang)
        XX     -58.1787     XY       9.0089     YY    -110.6345
        XZ      -1.0524     YZ       3.0379     ZZ    -110.5301

 Total job time:  181.71s(wall), 340.64s(cpu)
        *  Thank you very much for using Q-Chem.  Have a nice day.  *
