 Q-Chem 5.4, Q-Chem, Inc., Pleasanton, CA (2021)
 Q-Chem 5.4.0 for Intel X86 EM64T Linux

User input:
--------------------------------------------------------------
$molecule
-2 1
C                  1.3350070000      1.0093560000     -2.7794220000
C                 -0.0613510000      1.3655750000     -2.9252910000
C                 -1.0596340000      0.9642850000     -2.0679510000
C                 -0.7891010000      0.1035750000     -0.9151040000
C                  0.5591110000     -0.2843460000     -0.7854230000
O                  2.2152360000      1.5314470000     -3.5404450000
O                 -1.7544120000     -0.2530930000     -0.1293010000
H                 -0.2880100000      2.0309090000     -3.7591710000
C                  1.6073800000      0.0824230000     -1.6839990000
C                  2.9362730000     -0.4290630000     -1.4059890000
C                  3.9989360000     -0.5399400000     -2.4840130000
C                  5.3470740000     -0.4768200000     -2.1018010000
C                  3.7120460000     -0.8701240000     -3.8164360000
C                  6.3748040000     -0.7135670000     -3.0160200000
C                  6.0749000000     -1.0517450000     -4.3353820000
C                  4.7322960000     -1.1356270000     -4.7253540000
O                  3.2788450000     -0.8873110000     -0.2891790000
H                  5.5675470000     -0.2549640000     -1.0637530000
H                  2.6770940000     -0.9109200000     -4.1295240000
H                  7.4130610000     -0.6492770000     -2.6951790000
H                  6.8718030000     -1.2562130000     -5.0472600000
H                  4.4825500000     -1.3980770000     -5.7503500000
C                 -2.4878280000      1.3951810000     -2.2770680000
H                  0.8168850000     -0.9409450000      0.0392810000
H                 -2.5894940000      2.0242310000     -3.1697070000
H                 -2.8603400000      1.9439900000     -1.4028610000
H                 -3.1450260000      0.5213290000     -2.3708090000
$end

$rem
BASIS  =  6-311++G(d,p)
GUI  =  2
JOB_TYPE  =  SP
METHOD  =  B3LYP
SCF_CONVERGENCE  = 8
SOLVENT_METHOD = sm12
$end

$smx
solvent dimethylformamide
charges CM5
$end

--------------------------------------------------------------

             Standard Nuclear Orientation (Angstroms)
    I     Atom           X                Y                Z
 ----------------------------------------------------------------
    1      C       1.3350070000     1.0093560000    -2.7794220000
    2      C      -0.0613510000     1.3655750000    -2.9252910000
    3      C      -1.0596340000     0.9642850000    -2.0679510000
    4      C      -0.7891010000     0.1035750000    -0.9151040000
    5      C       0.5591110000    -0.2843460000    -0.7854230000
    6      O       2.2152360000     1.5314470000    -3.5404450000
    7      O      -1.7544120000    -0.2530930000    -0.1293010000
    8      H      -0.2880100000     2.0309090000    -3.7591710000
    9      C       1.6073800000     0.0824230000    -1.6839990000
   10      C       2.9362730000    -0.4290630000    -1.4059890000
   11      C       3.9989360000    -0.5399400000    -2.4840130000
   12      C       5.3470740000    -0.4768200000    -2.1018010000
   13      C       3.7120460000    -0.8701240000    -3.8164360000
   14      C       6.3748040000    -0.7135670000    -3.0160200000
   15      C       6.0749000000    -1.0517450000    -4.3353820000
   16      C       4.7322960000    -1.1356270000    -4.7253540000
   17      O       3.2788450000    -0.8873110000    -0.2891790000
   18      H       5.5675470000    -0.2549640000    -1.0637530000
   19      H       2.6770940000    -0.9109200000    -4.1295240000
   20      H       7.4130610000    -0.6492770000    -2.6951790000
   21      H       6.8718030000    -1.2562130000    -5.0472600000
   22      H       4.4825500000    -1.3980770000    -5.7503500000
   23      C      -2.4878280000     1.3951810000    -2.2770680000
   24      H       0.8168850000    -0.9409450000     0.0392810000
   25      H      -2.5894940000     2.0242310000    -3.1697070000
   26      H      -2.8603400000     1.9439900000    -1.4028610000
   27      H      -3.1450260000     0.5213290000    -2.3708090000
 ----------------------------------------------------------------

   19    -765.3587272820      2.22e-09  Convergence criterion met
 Total energy in the final basis set =     -765.6433201073

                    Orbital Energies (a.u.)
 --------------------------------------------------------------

 Alpha MOs
 -- Occupied --
-19.0772 -19.0367 -19.0193 -10.2309 -10.2008 -10.1853 -10.1839 -10.1835
-10.1822 -10.1807 -10.1802 -10.1789 -10.1709 -10.1641 -10.1475 -10.1425
-10.1284  -1.0002  -0.9579  -0.9328  -0.8618  -0.8030  -0.7652  -0.7532
 -0.7492  -0.6907  -0.6651  -0.6234  -0.6111  -0.5797  -0.5613  -0.5368
 -0.4985  -0.4672  -0.4622  -0.4527  -0.4348  -0.4283  -0.4272  -0.4194
 -0.4118  -0.4021  -0.3886  -0.3816  -0.3691  -0.3648  -0.3614  -0.3501
 -0.3452  -0.3364  -0.3276  -0.3188  -0.2636  -0.2623  -0.2383  -0.2349
 -0.2262  -0.2045  -0.1959  -0.1320

          Ground-State Mulliken Net Atomic Charges

     Atom                 Charge (a.u.)
  ----------------------------------------
      1 C                    -1.633659
      2 C                    -0.526391
      3 C                     0.241256
      4 C                    -1.639184
      5 C                    -2.321937
      6 O                    -0.251364
      7 O                    -0.414229
      8 H                     0.033386
      9 C                    -1.130993
     10 C                    -1.519220
     11 C                     0.853236
     12 C                     0.405220
     13 C                    -1.470367
     14 C                     1.492514
     15 C                     2.046808
     16 C                     0.719272
     17 O                    -0.203503
     18 H                     0.226478
     19 H                    -0.008496
     20 H                     0.397375
     21 H                     0.466628
     22 H                     0.360490
     23 C                     1.296991
     24 H                    -0.106943
     25 H                     0.307978
     26 H                     0.191191
     27 H                     0.187466
  ----------------------------------------
  Sum of atomic charges =    -2.000000

                    Cartesian Multipole Moments
 -----------------------------------------------------------------
    Charge (ESU x 10^10)
                -9.6064
    Dipole Moment (Debye)
         X      -8.1225      Y      -1.6947      Z      13.8249
       Tot      16.1238
    Quadrupole Moments (Debye-Ang)
        XX    -165.0757     XY      -0.7617     YY    -123.6648
        XZ      27.7784     YZ      18.3981     ZZ    -153.1123

 Total job time:  687.23s(wall), 5287.24s(cpu)
        *  Thank you very much for using Q-Chem.  Have a nice day.  *
