 Gaussian 16, Revision A.03,
 Gaussian 16:  ES64L-G16RevA.03 25-Dec-2016

 ----------------------------------------------------------------------
 #P UB3LYP/6-311++G(d,p) nosym opt freq SCRF=(PCM,Solvent=n,n-DiMethylF
 ormamide)
 ----------------------------------------------------------------------

 -------
 Radical
 -------
 Symbolic Z-matrix:
 Charge = -1 Multiplicity = 2

 SCF Done:  E(UB3LYP) =  -744.442539798     A.U. after   23 cycles
 SCF Done:  E(UB3LYP) =  -744.443393223     A.U. after   18 cycles
 SCF Done:  E(UB3LYP) =  -744.443546408     A.U. after   18 cycles
 SCF Done:  E(UB3LYP) =  -744.443574419     A.U. after   18 cycles
 SCF Done:  E(UB3LYP) =  -744.443603954     A.U. after   15 cycles
 SCF Done:  E(UB3LYP) =  -744.443615127     A.U. after   17 cycles
 SCF Done:  E(UB3LYP) =  -744.443620959     A.U. after   16 cycles
 SCF Done:  E(UB3LYP) =  -744.443622321     A.U. after   14 cycles
 SCF Done:  E(UB3LYP) =  -744.443623059     A.U. after   15 cycles
 SCF Done:  E(UB3LYP) =  -744.443623499     A.U. after   12 cycles
 SCF Done:  E(UB3LYP) =  -744.443623797     A.U. after   14 cycles
 Optimization completed.
    -- Stationary point found.
 Normal termination of Gaussian 16 at Sun Feb 11 16:12:42 2024.

 ----------------------------------------------------------------------
 #P Geom=AllCheck Guess=TCheck SCRF=Check GenChk UB3LYP/6-311++G(d,p) F
 req
 ----------------------------------------------------------------------

 Structure from the checkpoint file:  "320-rad.chk"
 -------
 Radical
 -------
 Charge = -1 Multiplicity = 2

                          Input orientation:
 ---------------------------------------------------------------------
 Center     Atomic      Atomic             Coordinates (Angstroms)
 Number     Number       Type             X           Y           Z
 ---------------------------------------------------------------------
      1          6           0       -0.430717    3.947640    0.201763
      2          6           0        0.583820    3.026288    0.255604
      3          6           0        0.381160    1.664981   -0.149354
      4          6           0       -0.878115    1.294351   -0.595873
      5          6           0        1.503702    0.721385   -0.093955
      6          6           0        1.479990   -0.716691    0.106946
      7          6           0        2.836889    1.057928   -0.237184
      8          6           0        2.829460   -1.166951    0.066475
      9          6           0        0.471334   -1.664308    0.361311
     10          6           0        0.818680   -2.997595    0.538855
     11          6           0        2.162008   -3.418046    0.473674
     12          6           0        3.184587   -2.507143    0.242665
     13          7           0        3.625959   -0.062748   -0.144831
     14          1           0       -1.061774    0.284094   -0.943868
     15          1           0        3.285623    2.020980   -0.422555
     16          1           0       -0.566840   -1.364441    0.427361
     17          1           0        0.042978   -3.729757    0.733624
     18          1           0        2.401689   -4.466188    0.612724
     19          1           0        4.221447   -2.821847    0.205253
     20          1           0        4.629593   -0.071460   -0.237574
     21          6           0       -1.755728    3.618357   -0.254438
     22          6           0       -1.989928    2.197521   -0.676092
     23          8           0       -2.681366    4.477661   -0.299345
     24          8           0       -3.125823    1.826162   -1.095203
     25          1           0       -0.260778    4.972115    0.520408
     26          1           0        1.557083    3.324413    0.630312
 ---------------------------------------------------------------------

 SCF Done:  E(UB3LYP) =  -744.443623797     A.U. after    1 cycles

 Alpha  occ. eigenvalues --  -19.07736 -19.07198 -14.36208 -10.21442 -10.21305
 Alpha  occ. eigenvalues --  -10.21135 -10.20888 -10.18335 -10.17910 -10.17905
 Alpha  occ. eigenvalues --  -10.17646 -10.17573 -10.17460 -10.17056 -10.16845
 Alpha  occ. eigenvalues --  -10.15743 -10.15116  -1.00506  -0.98913  -0.97716
 Alpha  occ. eigenvalues --   -0.84948  -0.83855  -0.78943  -0.74425  -0.73489
 Alpha  occ. eigenvalues --   -0.72406  -0.68932  -0.63069  -0.60689  -0.59963
 Alpha  occ. eigenvalues --   -0.58170  -0.55149  -0.53972  -0.49525  -0.48066
 Alpha  occ. eigenvalues --   -0.47424  -0.45940  -0.44213  -0.43978  -0.43302
 Alpha  occ. eigenvalues --   -0.43194  -0.40989  -0.40759  -0.40344  -0.39934
 Alpha  occ. eigenvalues --   -0.37486  -0.36844  -0.35673  -0.34783  -0.34329
 Alpha  occ. eigenvalues --   -0.33888  -0.33012  -0.28502  -0.25439  -0.23855
 Alpha  occ. eigenvalues --   -0.23574  -0.22286  -0.20925  -0.16240
 Alpha virt. eigenvalues --   -0.03128  -0.00405  -0.00167   0.00437   0.00567
 Alpha virt. eigenvalues --    0.00866   0.00944   0.02008   0.02451   0.03298
 Alpha virt. eigenvalues --    0.03531   0.04309   0.04549   0.05447   0.06185

  Beta  occ. eigenvalues --  -19.07071 -19.06606 -14.36179 -10.21305 -10.21184
  Beta  occ. eigenvalues --  -10.21136 -10.20809 -10.18158 -10.17907 -10.17891
  Beta  occ. eigenvalues --  -10.17674 -10.17577 -10.17461 -10.17050 -10.16674
  Beta  occ. eigenvalues --  -10.15677 -10.15108  -0.99414  -0.98839  -0.96540
  Beta  occ. eigenvalues --   -0.84911  -0.83439  -0.78750  -0.74400  -0.73320
  Beta  occ. eigenvalues --   -0.72158  -0.68110  -0.63028  -0.60476  -0.59730
  Beta  occ. eigenvalues --   -0.57865  -0.55005  -0.53761  -0.49459  -0.48022
  Beta  occ. eigenvalues --   -0.47205  -0.45693  -0.44003  -0.43918  -0.43148
  Beta  occ. eigenvalues --   -0.43008  -0.40623  -0.40221  -0.39606  -0.38767
  Beta  occ. eigenvalues --   -0.37197  -0.36751  -0.35501  -0.34640  -0.33647
  Beta  occ. eigenvalues --   -0.32009  -0.31386  -0.27833  -0.24809  -0.23529
  Beta  occ. eigenvalues --   -0.22780  -0.21714  -0.19972
  Beta virt. eigenvalues --   -0.09530  -0.02891  -0.00372   0.00486   0.00603
  Beta virt. eigenvalues --    0.00896   0.01274   0.01919   0.02226   0.02506
  Beta virt. eigenvalues --    0.03354   0.03645   0.04371   0.04628   0.05613

 Mulliken charges and spin densities:
               1          2
     1  C    0.335840   0.068613
     2  C   -1.111284   0.080911
     3  C    1.206177   0.123293
     4  C   -0.773255  -0.033236
     5  C    0.555533   0.078629
     6  C    1.347041  -0.052323
     7  C   -0.282126   0.040538
     8  C    0.061229  -0.026766
     9  C   -0.996736   0.018210
    10  C   -0.613394   0.012877
    11  C   -0.234549  -0.004903
    12  C   -0.600951  -0.003128
    13  N   -0.084527   0.009812
    14  H    0.152461  -0.003009
    15  H    0.203546  -0.004139
    16  H    0.130365  -0.000847
    17  H    0.187185  -0.000173
    18  H    0.183180  -0.000085
    19  H    0.183404   0.000072
    20  H    0.338740  -0.000592
    21  C   -0.470930   0.119254
    22  C   -0.000704   0.132506
    23  O   -0.506524   0.242147
    24  O   -0.532250   0.216402
    25  H    0.189154  -0.004699
    26  H    0.133372  -0.009365
 Sum of Mulliken charges =  -1.00000   1.00000

 Dipole moment (field-independent basis, Debye):
    X=             18.0067    Y=            -14.3732    Z=              3.2428  Tot=             23.2669
 Quadrupole moment (field-independent basis, Debye-Ang):
   XX=           -122.2452   YY=           -153.9728   ZZ=           -110.0489
   XY=             47.7675   XZ=            -13.3725   YZ=              7.8885

  Exact polarizability: 372.473 -57.946 369.390  25.336  -7.784 150.876
 Approx polarizability: 430.685 -33.936 386.415  24.518  -6.742 170.915

                      1                      2                      3
                      A                      A                      A
 Frequencies --     42.3929                61.3533                82.8186
 Red. masses --      6.1659                 6.0523                 5.8493
 Frc consts  --      0.0065                 0.0134                 0.0236
 IR Inten    --      1.2480                 2.6012                 3.8708

                      4                      5                      6
                      A                      A                      A
 Frequencies --    120.0585               191.8786               220.1077
 Red. masses --      6.4800                 5.5136                 3.9993
 Frc consts  --      0.0550                 0.1196                 0.1142
 IR Inten    --      2.4720                 2.9892                15.7817

                      7                      8                      9
                      A                      A                      A
 Frequencies --    241.1896               275.6652               309.4346
 Red. masses --      6.4921                 6.9742                 6.2797
 Frc consts  --      0.2225                 0.3123                 0.3543
 IR Inten    --      1.6613                 3.4195                 1.7164

                     10                     11                     12
                      A                      A                      A
 Frequencies --    362.1653               367.1629               429.7456
 Red. masses --     14.5253                 5.5680                 2.5884
 Frc consts  --      1.1225                 0.4423                 0.2816
 IR Inten    --      1.7710                20.7586                51.6616

                     13                     14                     15
                      A                      A                      A
 Frequencies --    448.6927               460.3449               478.2054
 Red. masses --      1.3976                 5.9706                 3.2017
 Frc consts  --      0.1658                 0.7455                 0.4314
 IR Inten    --     76.5755                 9.9034                 1.5080

                     16                     17                     18
                      A                      A                      A
 Frequencies --    496.6477               561.0912               585.9627
 Red. masses --      5.0793                 6.7183                 3.5173
 Frc consts  --      0.7382                 1.2462                 0.7115
 IR Inten    --     24.6135                 7.3971                17.8111

                     19                     20                     21
                      A                      A                      A
 Frequencies --    597.1617               600.1519               629.4911
 Red. masses --      4.5492                 4.8935                 4.4990
 Frc consts  --      0.9558                 1.0385                 1.0504
 IR Inten    --     13.9443                17.4567                15.0601

                     22                     23                     24
                      A                      A                      A
 Frequencies --    656.6491               669.0165               748.2970
 Red. masses --      2.8085                 6.6091                 2.7753
 Frc consts  --      0.7135                 1.7429                 0.9156
 IR Inten    --     18.7318                 6.8966                14.7928

                     25                     26                     27
                      A                      A                      A
 Frequencies --    751.0806               756.1173               771.0632
 Red. masses --      1.5276                 2.8869                 4.1119
 Frc consts  --      0.5077                 0.9724                 1.4404
 IR Inten    --    110.1029                44.9251                 0.0290

                     28                     29                     30
                      A                      A                      A
 Frequencies --    780.3989               811.8806               830.5786
 Red. masses --      5.0121                 1.9266                 1.7569
 Frc consts  --      1.7985                 0.7482                 0.7141
 IR Inten    --      3.8419                76.1028                 4.3649

                     31                     32                     33
                      A                      A                      A
 Frequencies --    859.0534               868.1136               886.7532
 Red. masses --      1.5156                 1.5168                 4.7960
 Frc consts  --      0.6590                 0.6735                 2.2220
 IR Inten    --      3.1838                31.4517                 1.2098

                     34                     35                     36
                      A                      A                      A
 Frequencies --    914.6983               945.7379               949.8824
 Red. masses --      7.2440                 1.2825                 1.3603
 Frc consts  --      3.5709                 0.6759                 0.7231
 IR Inten    --     19.6298                 0.8937                 1.8972

                     37                     38                     39
                      A                      A                      A
 Frequencies --    982.7791               986.9568              1031.7804
 Red. masses --      1.2636                 3.1249                 2.1983
 Frc consts  --      0.7191                 1.7934                 1.3788
 IR Inten    --      0.0502                20.1494                28.6890

                     40                     41                     42
                      A                      A                      A
 Frequencies --   1115.0385              1119.2222              1143.4288
 Red. masses --      1.8087                 2.0942                 1.6110
 Frc consts  --      1.3249                 1.5456                 1.2410
 IR Inten    --     53.7813               119.3241                42.3766

                     43                     44                     45
                      A                      A                      A
 Frequencies --   1154.8074              1171.2563              1205.2474
 Red. masses --      1.5201                 1.1863                 1.7939
 Frc consts  --      1.1944                 0.9589                 1.5353
 IR Inten    --      5.6996                 0.3261                17.0068

                     46                     47                     48
                      A                      A                      A
 Frequencies --   1253.3410              1256.7414              1270.7817
 Red. masses --      2.0518                 3.2916                 2.3352
 Frc consts  --      1.8990                 3.0630                 2.2218
 IR Inten    --     13.4467                71.5782                35.2171

                     49                     50                     51
                      A                      A                      A
 Frequencies --   1311.0996              1322.0781              1361.8724
 Red. masses --      2.0581                 2.6418                 3.2967
 Frc consts  --      2.0845                 2.7206                 3.6025
 IR Inten    --      9.4181                 4.7746                23.0728

                     52                     53                     54
                      A                      A                      A
 Frequencies --   1370.1790              1424.7744              1449.1959
 Red. masses --      3.0642                 3.2022                 2.7073
 Frc consts  --      3.3894                 3.8299                 3.3500
 IR Inten    --     23.3869               463.1152                39.8131

                     55                     56                     57
                      A                      A                      A
 Frequencies --   1473.3981              1481.6914              1509.5641
 Red. masses --      3.6908                 3.7597                 5.6073
 Frc consts  --      4.7207                 4.8631                 7.5285
 IR Inten    --    209.2964               300.9154               351.5909

                     58                     59                     60
                      A                      A                      A
 Frequencies --   1516.6029              1541.3005              1559.2445
 Red. masses --      2.9550                 5.8657                 5.5658
 Frc consts  --      4.0045                 8.2100                 7.9727
 IR Inten    --      4.9920               703.0760               406.3433

                     61                     62                     63
                      A                      A                      A
 Frequencies --   1597.5184              1606.7741              1648.5973
 Red. masses --      5.3086                 5.5501                 6.0314
 Frc consts  --      7.9821                 8.4422                 9.6582
 IR Inten    --     51.5382                30.4927                 5.8929

                     64                     65                     66
                      A                      A                      A
 Frequencies --   3146.2477              3163.2693              3168.5738
 Red. masses --      1.0865                 1.0859                 1.0908
 Frc consts  --      6.3370                 6.4019                 6.4523
 IR Inten    --     38.7122                 2.5849                54.4078

                     67                     68                     69
                      A                      A                      A
 Frequencies --   3170.8025              3173.4368              3185.2397
 Red. masses --      1.0918                 1.0903                 1.0952
 Frc consts  --      6.4676                 6.4695                 6.5470
 IR Inten    --      3.3204                18.5244                34.4971

                     70                     71                     72
                      A                      A                      A
 Frequencies --   3197.0673              3251.9492              3651.8829
 Red. masses --      1.0933                 1.0967                 1.0812
 Frc consts  --      6.5843                 6.8332                 8.4955
 IR Inten    --     18.2023                 0.2240               222.5173

 - Thermochemistry -
 -------------------
 Temperature   298.150 Kelvin.  Pressure   1.00000 Atm.
 Atom     1 has atomic number  6 and mass  12.00000

 Molecular mass:   223.06333 amu.
 Principal axes and moments of inertia in atomic units:
                           1         2         3
     Eigenvalues --  1541.554416961.299758310.96395
           X           -0.62849   0.77225  -0.09288
           Y            0.77239   0.63372   0.04253
           Z           -0.09170   0.04501   0.99477
 This molecule is an asymmetric top.
 Rotational symmetry number  1.
 Warning -- assumption of classical behavior for rotation
           may cause significant error
 Rotational temperatures (Kelvin)      0.05619     0.01244     0.01042
 Rotational constants (GHZ):           1.17073     0.25925     0.21715
 Zero-point vibrational energy     506826.6 (Joules/Mol)
                                  121.13445 (Kcal/Mol)
 Warning -- explicit consideration of  20 degrees of freedom as
           vibrations may cause significant error
 Vibrational temperatures:     60.99    88.27   119.16   172.74   276.07
          (Kelvin)            316.69   347.02   396.62   445.21   521.08
                              528.27   618.31   645.57   662.33   688.03
                              714.57   807.29   843.07   859.18   863.48
                              905.70   944.77   962.57  1076.63  1080.64
                             1087.88  1109.39  1122.82  1168.12  1195.02
                             1235.99  1249.02  1275.84  1316.05  1360.71
                             1366.67  1414.00  1420.01  1484.50  1604.29
                             1610.31  1645.14  1661.51  1685.18  1734.08
                             1803.28  1808.17  1828.37  1886.38  1902.18
                             1959.43  1971.38  2049.93  2085.07  2119.89
                             2131.82  2171.93  2182.05  2217.59  2243.41
                             2298.47  2311.79  2371.96  4526.75  4551.24
                             4558.87  4562.08  4565.87  4582.85  4599.87
                             4678.83  5254.25

 Zero-point correction=                           0.193040 (Hartree/Particle)
 Thermal correction to Energy=                    0.205775
 Thermal correction to Enthalpy=                  0.206719
 Thermal correction to Gibbs Free Energy=         0.152533
 Sum of electronic and zero-point Energies=           -744.250584
 Sum of electronic and thermal Energies=              -744.237849
 Sum of electronic and thermal Enthalpies=            -744.236905
 Sum of electronic and thermal Free Energies=         -744.291091

                     E (Thermal)             CV                S
                      KCal/Mol        Cal/Mol-Kelvin    Cal/Mol-Kelvin
 Total                  129.126             51.550            114.044
 Electronic               0.000              0.000              1.377
 Translational            0.889              2.981             42.109
 Rotational               0.889              2.981             32.856
 Vibrational            127.348             45.588             37.702
 Vibration     1          0.595              1.980              5.144
 Vibration     2          0.597              1.973              4.413
 Vibration     3          0.600              1.961              3.823
 Vibration     4          0.609              1.933              3.099
 Vibration     5          0.634              1.851              2.210
 Vibration     6          0.647              1.810              1.958
 Vibration     7          0.658              1.777              1.794
 Vibration     8          0.677              1.718              1.560
 Vibration     9          0.699              1.656              1.365
 Vibration    10          0.736              1.550              1.113
 Vibration    11          0.740              1.540              1.092
 Vibration    12          0.791              1.405              0.859
 Vibration    13          0.808              1.364              0.800
 Vibration    14          0.818              1.338              0.765
 Vibration    15          0.835              1.298              0.715
 Vibration    16          0.852              1.257              0.667
 Vibration    17          0.917              1.115              0.522
 Vibration    18          0.943              1.062              0.474
 Vibration    19          0.955              1.038              0.455
 Vibration    20          0.958              1.031              0.449

 Optimization completed.
    -- Stationary point found.
 Normal termination of Gaussian 16 at Sun Feb 11 17:05:32 2024.
