 Gaussian 16, Revision A.03,
 Gaussian 16:  ES64L-G16RevA.03 25-Dec-2016

 ----------------------------------------------------------------------
 #P UB3LYP/6-311++G(d,p) nosym opt freq SCRF=(PCM,Solvent=n,n-DiMethylF
 ormamide)
 ----------------------------------------------------------------------

 -------
 Reduced
 -------
 Symbolic Z-matrix:
 Charge = -2 Multiplicity = 1

 SCF Done:  E(UB3LYP) =  -610.787158739     A.U. after   16 cycles
 SCF Done:  E(UB3LYP) =  -610.787499832     A.U. after   12 cycles
 SCF Done:  E(UB3LYP) =  -610.787500286     A.U. after   12 cycles
 SCF Done:  E(UB3LYP) =  -610.787593365     A.U. after   12 cycles
 SCF Done:  E(UB3LYP) =  -610.787611366     A.U. after   12 cycles
 SCF Done:  E(UB3LYP) =  -610.787629858     A.U. after   12 cycles
 SCF Done:  E(UB3LYP) =  -610.787630380     A.U. after    9 cycles
 Optimization completed.
    -- Stationary point found.
 Normal termination of Gaussian 16 at Sun Feb 11 02:57:25 2024.

 ----------------------------------------------------------------------
 #P Geom=AllCheck Guess=TCheck SCRF=Check GenChk UB3LYP/6-311++G(d,p) F
 req
 ----------------------------------------------------------------------

 Structure from the checkpoint file:  "280-an.chk"
 -------
 Reduced
 -------
 Charge = -2 Multiplicity = 1

                          Input orientation:
 ---------------------------------------------------------------------
 Center     Atomic      Atomic             Coordinates (Angstroms)
 Number     Number       Type             X           Y           Z
 ---------------------------------------------------------------------
      1          8           0        2.354124    1.626785    0.350998
      2          6           0        1.721138    0.482282    0.227134
      3          6           0        2.389930   -0.753463    0.255555
      4          6           0        1.691669   -1.969140    0.118242
      5          6           0        0.319783   -1.994910   -0.048276
      6          6           0       -0.422970   -0.784685   -0.084488
      7          6           0       -1.877959   -0.826677   -0.258043
      8          8           0       -2.507987   -1.959018   -0.375980
      9          6           0       -2.523449    0.425165   -0.286436
     10          6           0       -1.832213    1.651763   -0.152172
     11          6           0       -0.463770    1.685744    0.016051
     12          8           0        0.196872    2.893073    0.149856
     13          6           0        0.273066    0.461772    0.052640
     14          1           0        1.166994    2.612833    0.253572
     15          1           0        3.468669   -0.748271    0.385579
     16          1           0        2.249345   -2.902515    0.144834
     17          1           0       -0.219339   -2.928068   -0.153709
     18          1           0       -3.603298    0.437170   -0.415600
     19          1           0       -2.380601    2.590158   -0.179758
 ---------------------------------------------------------------------

 SCF Done:  E(UB3LYP) =  -610.787630380     A.U. after    1 cycles

 Alpha  occ. eigenvalues --  -19.09245 -19.04540 -19.01864 -10.19538 -10.18530
 Alpha  occ. eigenvalues --  -10.17697 -10.14588 -10.14339 -10.14057 -10.13404
 Alpha  occ. eigenvalues --  -10.12904 -10.12761 -10.12274  -1.00645  -0.94970
 Alpha  occ. eigenvalues --   -0.92926  -0.81569  -0.77303  -0.70591  -0.69768
 Alpha  occ. eigenvalues --   -0.65418  -0.58947  -0.57629  -0.52869  -0.48799
 Alpha  occ. eigenvalues --   -0.47042  -0.45941  -0.43913  -0.40501  -0.39093
 Alpha  occ. eigenvalues --   -0.38844  -0.38210  -0.36816  -0.35370  -0.34757
 Alpha  occ. eigenvalues --   -0.33873  -0.33525  -0.31847  -0.30775  -0.28212
 Alpha  occ. eigenvalues --   -0.24951  -0.22155  -0.21846  -0.19554  -0.18098
 Alpha  occ. eigenvalues --   -0.12925
 Alpha virt. eigenvalues --    0.00404   0.00820   0.01126   0.01349   0.01809
 Alpha virt. eigenvalues --    0.03101   0.03538   0.05293   0.05685   0.05907
 Alpha virt. eigenvalues --    0.07040   0.07121   0.08325   0.08780   0.09479

  Beta  occ. eigenvalues --  -19.09245 -19.04540 -19.01864 -10.19538 -10.18530
  Beta  occ. eigenvalues --  -10.17697 -10.14588 -10.14339 -10.14057 -10.13404
  Beta  occ. eigenvalues --  -10.12904 -10.12761 -10.12274  -1.00645  -0.94970
  Beta  occ. eigenvalues --   -0.92926  -0.81569  -0.77303  -0.70591  -0.69768
  Beta  occ. eigenvalues --   -0.65418  -0.58947  -0.57629  -0.52869  -0.48799
  Beta  occ. eigenvalues --   -0.47042  -0.45941  -0.43913  -0.40501  -0.39093
  Beta  occ. eigenvalues --   -0.38844  -0.38210  -0.36816  -0.35370  -0.34757
  Beta  occ. eigenvalues --   -0.33873  -0.33525  -0.31847  -0.30775  -0.28212
  Beta  occ. eigenvalues --   -0.24951  -0.22155  -0.21846  -0.19554  -0.18098
  Beta  occ. eigenvalues --   -0.12925
  Beta virt. eigenvalues --    0.00404   0.00820   0.01126   0.01349   0.01809
  Beta virt. eigenvalues --    0.03101   0.03538   0.05293   0.05685   0.05907
  Beta virt. eigenvalues --    0.07040   0.07121   0.08325   0.08780   0.09479

 Mulliken charges and spin densities:
               1          2
     1  O   -0.659401   0.000000
     2  C   -0.298223   0.000000
     3  C   -0.276729   0.000000
     4  C   -0.339756  -0.000000
     5  C   -0.224342   0.000000
     6  C    0.401117  -0.000000
     7  C   -0.532009   0.000000
     8  O   -0.703942   0.000000
     9  C   -0.076048  -0.000000
    10  C   -0.099875   0.000000
    11  C   -0.274507  -0.000000
    12  O   -0.499109  -0.000000
    13  C    0.500970  -0.000000
    14  H    0.361297   0.000000
    15  H    0.142370   0.000000
    16  H    0.154979   0.000000
    17  H    0.136094   0.000000
    18  H    0.134442  -0.000000
    19  H    0.152672   0.000000
 Sum of Mulliken charges =  -2.00000  -0.00000

 Dipole moment (field-independent basis, Debye):
    X=              3.1913    Y=             -0.4095    Z=              0.3394  Tot=              3.2354
 Quadrupole moment (field-independent basis, Debye-Ang):
   XX=           -126.6835   YY=           -120.5245   ZZ=            -87.1454
   XY=            -26.0616   XZ=             -5.8792   YZ=             -4.5249

  Exact polarizability: 297.435  -8.056 270.600  21.182   5.384 120.888
 Approx polarizability: 329.143  -3.298 318.595  24.042   7.547 131.193

                      1                      2                      3
                      A                      A                      A
 Frequencies --     94.5289               126.3553               178.3615
 Red. masses --      9.4068                 6.7800                 5.0002
 Frc consts  --      0.0495                 0.0638                 0.0937
 IR Inten    --     12.5826                 5.2414                 0.1248

                      4                      5                      6
                      A                      A                      A
 Frequencies --    249.8802               297.7604               361.1632
 Red. masses --      5.0300                 7.6739                 7.0443
 Frc consts  --      0.1850                 0.4009                 0.5414
 IR Inten    --      1.3895                49.6269                 0.0107

                      7                      8                      9
                      A                      A                      A
 Frequencies --    372.1365               415.2997               462.0891
 Red. masses --      7.2121                10.7861                 3.8102
 Frc consts  --      0.5885                 1.0961                 0.4794
 IR Inten    --     41.4403                 1.5286                 0.1470

                     10                     11                     12
                      A                      A                      A
 Frequencies --    466.1333               493.2984               533.7863
 Red. masses --      9.4275                 7.3452                 7.6852
 Frc consts  --      1.2069                 1.0531                 1.2901
 IR Inten    --      0.3115                 2.6167                 8.2340

                     13                     14                     15
                      A                      A                      A
 Frequencies --    537.5489               616.7851               619.7994
 Red. masses --      3.4828                 3.9111                 4.4477
 Frc consts  --      0.5929                 0.8766                 1.0067
 IR Inten    --      0.0603                 2.0017                13.8177

                     16                     17                     18
                      A                      A                      A
 Frequencies --    652.9398               700.6776               733.9311
 Red. masses --      7.6066                 2.3687                 1.5290
 Frc consts  --      1.9107                 0.6852                 0.4853
 IR Inten    --     56.6792                 5.8501               104.4965

                     19                     20                     21
                      A                      A                      A
 Frequencies --    749.4806               785.5832               788.5188
 Red. masses --      7.2358                 4.9530                 2.6179
 Frc consts  --      2.3947                 1.8010                 0.9590
 IR Inten    --    163.2902                12.7513               112.0410

                     22                     23                     24
                      A                      A                      A
 Frequencies --    805.7946               836.2391               870.8282
 Red. masses --      2.3473                 1.7374                 1.3303
 Frc consts  --      0.8980                 0.7158                 0.5944
 IR Inten    --     22.3980                 8.3404                 3.2239

                     25                     26                     27
                      A                      A                      A
 Frequencies --    932.0743               944.6571               959.4188
 Red. masses --      1.0497                 1.2435                 5.8494
 Frc consts  --      0.5373                 0.6538                 3.1723
 IR Inten    --    131.0407                 1.7398               185.3397

                     28                     29                     30
                      A                      A                      A
 Frequencies --   1029.9124              1070.8469              1127.0905
 Red. masses --      3.6205                 1.6211                 1.6650
 Frc consts  --      2.2627                 1.0952                 1.2462
 IR Inten    --    188.6731                13.6631                39.0565

                     31                     32                     33
                      A                      A                      A
 Frequencies --   1152.6695              1168.4854              1217.2241
 Red. masses --      1.2563                 2.0965                 5.2910
 Frc consts  --      0.9834                 1.6865                 4.6188
 IR Inten    --     78.6898                71.4654               148.9989

                     34                     35                     36
                      A                      A                      A
 Frequencies --   1273.5502              1280.1086              1319.4468
 Red. masses --      3.0108                 2.3826                 5.8528
 Frc consts  --      2.8772                 2.3003                 6.0034
 IR Inten    --    251.3983               553.5977                31.0414

                     37                     38                     39
                      A                      A                      A
 Frequencies --   1332.9322              1375.4442              1409.8972
 Red. masses --      4.6981                 4.1928                 4.5422
 Frc consts  --      4.9180                 4.6735                 5.3197
 IR Inten    --     46.6672                75.3459              1107.8038

                     40                     41                     42
                      A                      A                      A
 Frequencies --   1428.5804              1485.4907              1535.5309
 Red. masses --      2.5876                 2.6164                 2.7612
 Frc consts  --      3.1114                 3.4016                 3.8358
 IR Inten    --    491.0798               629.9437               229.3752

                     43                     44                     45
                      A                      A                      A
 Frequencies --   1587.2653              1588.7821              1650.6860
 Red. masses --      5.2942                 5.3180                 2.3350
 Frc consts  --      7.8587                 7.9091                 3.7487
 IR Inten    --     29.1001                37.1501                97.5539

                     46                     47                     48
                      A                      A                      A
 Frequencies --   2786.6863              3119.4644              3122.6497
 Red. masses --      1.0768                 1.0856                 1.0854
 Frc consts  --      4.9269                 6.2241                 6.2359
 IR Inten    --   1375.2727                86.0227                45.0900

                     49                     50                     51
                      A                      A                      A
 Frequencies --   3141.5064              3145.4637              3184.9377
 Red. masses --      1.0924                 1.0918                 1.0906
 Frc consts  --      6.3521                 6.3644                 6.5180
 IR Inten    --     96.0744                71.8326                30.1193

 - Thermochemistry -
 -------------------
 Temperature   298.150 Kelvin.  Pressure   1.00000 Atm.
 Atom     1 has atomic number  8 and mass  15.99491

 Molecular mass:   174.03169 amu.
 Principal axes and moments of inertia in atomic units:
                           1         2         3
     Eigenvalues --  1564.600641998.907703563.49921
           X            0.90374  -0.41134  -0.11857
           Y            0.40934   0.91142  -0.04190
           Z            0.12530  -0.01067   0.99206
 This molecule is an asymmetric top.
 Rotational symmetry number  1.
 Warning -- assumption of classical behavior for rotation
           may cause significant error
 Rotational temperatures (Kelvin)      0.05536     0.04333     0.02431
 Rotational constants (GHZ):           1.15348     0.90286     0.50645
 Zero-point vibrational energy     347633.1 (Joules/Mol)
                                   83.08631 (Kcal/Mol)
 Warning -- explicit consideration of  15 degrees of freedom as
           vibrations may cause significant error
 Vibrational temperatures:    136.01   181.80   256.62   359.52   428.41
          (Kelvin)            519.63   535.42   597.52   664.84   670.66
                              709.75   768.00   773.41   887.42   891.75
                              939.43  1008.12  1055.96  1078.34  1130.28
                             1134.50  1159.36  1203.16  1252.93  1341.05
                             1359.15  1380.39  1481.81  1540.71  1621.63
                             1658.43  1681.19  1751.31  1832.35  1841.79
                             1898.39  1917.79  1978.96  2028.53  2055.41
                             2137.29  2209.29  2283.72  2285.90  2374.97
                             4009.42  4488.21  4492.80  4519.93  4525.62
                             4582.41

 Zero-point correction=                           0.132406 (Hartree/Particle)
 Thermal correction to Energy=                    0.141757
 Thermal correction to Enthalpy=                  0.142701
 Thermal correction to Gibbs Free Energy=         0.097769
 Sum of electronic and zero-point Energies=           -610.655224
 Sum of electronic and thermal Energies=              -610.645873
 Sum of electronic and thermal Enthalpies=            -610.644929
 Sum of electronic and thermal Free Energies=         -610.689861

                     E (Thermal)             CV                S
                      KCal/Mol        Cal/Mol-Kelvin    Cal/Mol-Kelvin
 Total                   88.954             38.390             94.568
 Electronic               0.000              0.000              0.000
 Translational            0.889              2.981             41.370
 Rotational               0.889              2.981             30.789
 Vibrational             87.177             32.429             22.409
 Vibration     1          0.603              1.953              3.564
 Vibration     2          0.611              1.927              3.001
 Vibration     3          0.629              1.869              2.345
 Vibration     4          0.663              1.763              1.731
 Vibration     5          0.691              1.678              1.429
 Vibration     6          0.735              1.552              1.117
 Vibration     7          0.744              1.529              1.071
 Vibration     8          0.779              1.437              0.908
 Vibration     9          0.820              1.334              0.760
 Vibration    10          0.823              1.325              0.748
 Vibration    11          0.849              1.265              0.675
 Vibration    12          0.889              1.175              0.579
 Vibration    13          0.893              1.167              0.571
 Vibration    14          0.976              0.996              0.422
 Vibration    15          0.980              0.990              0.417

                           ! Non-Optimized Parameters !
 Normal termination of Gaussian 16 at Sun Feb 11 03:20:04 2024.
