 Q-Chem 5.4, Q-Chem, Inc., Pleasanton, CA (2021)
 Q-Chem 5.4.0 for Intel X86 EM64T Linux

User input:
--------------------------------------------------------------
$molecule
-2 1
O                 -0.0170490000     -2.5770840000     -0.4867040000
C                 -0.0089410000     -1.3284580000     -0.1542900000
C                  1.2228720000     -0.6194840000      0.0918960000
C                  2.4511710000     -1.3525850000      0.0973480000
C                  3.6499260000     -0.7887220000      0.4735820000
C                  3.7195580000      0.5758080000      0.8651670000
C                  2.5571510000      1.3359570000      0.8053480000
C                  1.3322650000      0.7840680000      0.4087250000
S                  0.0115630000      1.9522440000      0.1592040000
O                  0.0125410000      2.4773590000     -1.3013390000
C                 -1.3224280000      0.8002560000      0.4129420000
C                 -2.5392200000      1.3669820000      0.8135220000
C                 -3.7106480000      0.6211010000      0.8769140000
C                 -3.6589620000     -0.7440880000      0.4848090000
C                 -2.4683940000     -1.3225030000      0.1047130000
C                 -1.2312040000     -0.6045280000      0.0956310000
H                  2.3806440000     -2.3958850000     -0.1923670000
H                  4.5543160000     -1.3958880000      0.4782340000
H                  4.6590180000      1.0206220000      1.1819400000
H                  2.5895790000      2.3964390000      1.0506480000
H                 -2.5579100000      2.4277400000      1.0590820000
H                 -4.6435760000      1.0773100000      1.1967580000
H                 -4.5707020000     -1.3401360000      0.4921140000
H                 -2.4115680000     -2.3665270000     -0.1854230000
$end
$rem
MAX_SCF_CYCLES=200
BASIS  =  6-311++G(d,p)
GUI  =  2
JOB_TYPE  =  SP
METHOD  =  B3LYP
SOLVENT_METHOD = COSMO
$end
$solvent
dielectric 37.219
opticaldielectric 1.43
$end

--------------------------------------------------------------

             Standard Nuclear Orientation (Angstroms)
    I     Atom           X                Y                Z
 ----------------------------------------------------------------
    1      O       0.0000134679     2.7918782695    -0.5893246686
    2      C       0.0000324827     1.5306263478    -0.3084772284
    3      C      -1.2270523204     0.8045728089    -0.0900187867
    4      C      -2.4597863537     1.5292594068    -0.0528519726
    5      C      -3.6544958265     0.9430535660     0.3014629202
    6      C      -3.7152011611    -0.4368112726     0.6367500184
    7      C      -2.5482775758    -1.1866949422     0.5442369020
    8      C      -1.3273963699    -0.6114545364     0.1690242394
    9      S       0.0000105971    -1.7602474369    -0.1299996474
   10      O      -0.0000396654    -2.2249259534    -1.6108799424
   11      C       1.3273493337    -0.6114669814     0.1691101253
   12      C       2.5481944072    -1.1866700376     0.5444822306
   13      C       3.7151521694    -0.4368283142     0.6369351496
   14      C       3.6545370785     0.9429698228     0.3013137988
   15      C       2.4598761211     1.5291718076    -0.0531456120
   16      C       1.2270720935     0.8045766665    -0.0901022158
   17      H      -2.3960698257     2.5839927698    -0.2995531398
   18      H      -4.5625610131     1.5439397502     0.3322342579
   19      H      -4.6514388149    -0.9000330789     0.9362067491
   20      H      -2.5738602513    -2.2565367767     0.7458050376
   21      H       2.5737308071    -2.2564837750     0.7462321348
   22      H       4.6513397009    -0.9000402916     0.9365500007
   23      H       4.5626378515     1.5438136003     0.3319103673
   24      H       2.3962371009     2.5838622123    -0.3000715736
 ----------------------------------------------------------------

   17   -1048.9395741034      9.50e-06  Convergence criterion met
 Total energy in the final basis set =    -1048.9395741034
    6   -1049.2175183359      4.67e-06  Convergence criterion met
 Total energy in the final basis set =    -1049.2175183359

                    Orbital Energies (a.u.)
 --------------------------------------------------------------

 Alpha MOs
 -- Occupied --
-88.9182 -19.0602 -19.0160 -10.1671 -10.1671 -10.1667 -10.1621 -10.1621
-10.1541 -10.1541 -10.1463 -10.1463 -10.1454 -10.1453 -10.1450 -10.1450
 -7.9936  -5.9566  -5.9549  -5.9498  -0.9743  -0.9342  -0.8384  -0.8282
 -0.7652  -0.7363  -0.7300  -0.7139  -0.6706  -0.6176  -0.5927  -0.5666
 -0.5562  -0.5198  -0.5025  -0.4628  -0.4413  -0.4404  -0.4300  -0.4159
 -0.4065  -0.4033  -0.3879  -0.3852  -0.3685  -0.3556  -0.3494  -0.3482
 -0.3277  -0.3242  -0.3167  -0.3108  -0.2595  -0.2500  -0.2390  -0.2258
 -0.2232  -0.2167  -0.2005  -0.1027

          Ground-State Mulliken Net Atomic Charges

     Atom                 Charge (a.u.)
  ----------------------------------------
      1 O                    -0.745964
      2 C                    -0.063173
      3 C                     1.290036
      4 C                     0.040607
      5 C                    -0.640975
      6 C                    -0.259785
      7 C                    -0.267754
      8 C                    -1.029909
      9 S                    -0.331131
     10 O                    -0.549003
     11 C                    -1.029892
     12 C                    -0.267106
     13 C                    -0.260805
     14 C                    -0.640334
     15 C                     0.040579
     16 C                     1.290583
     17 H                     0.174061
     18 H                     0.177202
     19 H                     0.177221
     20 H                     0.183647
     21 H                     0.183648
     22 H                     0.177243
     23 H                     0.177224
     24 H                     0.173779
  ----------------------------------------
  Sum of atomic charges =    -2.000000

                    Cartesian Multipole Moments
 -----------------------------------------------------------------
    Charge (ESU x 10^10)
                -9.6064
    Dipole Moment (Debye)
         X      -0.0036      Y      -4.5997      Z       6.6080
       Tot       8.0513
    Quadrupole Moments (Debye-Ang)
        XX    -123.5484     XY      -0.0021     YY    -152.3850
        XZ       0.0023     YZ      -7.0828     ZZ    -126.1696

 Total job time:  69.66s(wall), 519.47s(cpu)
        *  Thank you very much for using Q-Chem.  Have a nice day.  *
