 Gaussian 16, Revision A.03,
 Gaussian 16:  ES64L-G16RevA.03 25-Dec-2016

 ----------------------------------------------------------------
 #P UB3LYP/6-311++G(d,p) SCRF=(PCM,Solvent=n,n-DiMethylFormamide)
 ----------------------------------------------------------------

 ------------------
 Radical PCM in DMF
 ------------------
 Symbolic Z-matrix:
 Charge = -1 Multiplicity = 2

                         Standard orientation:
 ---------------------------------------------------------------------
 Center     Atomic      Atomic             Coordinates (Angstroms)
 Number     Number       Type             X           Y           Z
 ---------------------------------------------------------------------
      1          6           0       -3.208454   -1.394045    0.018416
      2          6           0       -4.405305   -0.706147    0.037390
      3          6           0       -4.405316    0.706042    0.036975
      4          6           0       -1.973642   -0.708091   -0.003599
      5          6           0       -1.973655    0.708010   -0.003910
      6          6           0       -3.208471    1.393948    0.017687
      7          6           0       -0.728832   -1.469348   -0.021676
      8          6           0       -0.728861    1.469315   -0.022104
      9          6           0        0.519893   -0.722990   -0.054283
     10          6           0        0.519897    0.723014   -0.054431
     11          6           0        1.776102   -1.430488   -0.057510
     12          6           0        2.963878   -0.699205   -0.007982
     13          6           0        2.963882    0.699257   -0.008024
     14          6           0        1.776121    1.430532   -0.057611
     15          8           0       -0.785755   -2.742305    0.000115
     16          8           0       -0.785879    2.742271   -0.000470
     17          1           0       -3.176694   -2.476979    0.019201
     18          1           0       -5.345977   -1.248992    0.052713
     19          1           0       -5.346000    1.248873    0.051952
     20          1           0       -3.176724    2.476881    0.017850
     21          1           0        3.914160    1.218886    0.014323
     22          1           0        3.914158   -1.218833    0.014362
     23          7           0        1.796855   -2.809667   -0.119624
     24          7           0        1.796838    2.809732   -0.119750
     25          6           0        2.980015   -3.585270    0.125116
     26          6           0        2.979752    3.585394    0.126086
     27          1           0        0.866418   -3.223517   -0.023746
     28          1           0        0.866347    3.223469   -0.023872
     29          1           0        3.453422   -3.360697    1.096809
     30          1           0        3.746387   -3.433950   -0.649727
     31          1           0        2.710463   -4.643897    0.117245
     32          1           0        3.746778    3.434218   -0.648123
     33          1           0        3.452357    3.360797    1.098169
     34          1           0        2.710113    4.644001    0.118070
 ---------------------------------------------------------------------

 SCF Done:  E(UB3LYP) =  -878.478642235     A.U. after   17 cycles

 The electronic state is 2-A.
 Alpha  occ. eigenvalues --  -19.07051 -19.07051 -14.30212 -14.30211 -10.22006
 Alpha  occ. eigenvalues --  -10.22004 -10.20260 -10.20258 -10.18975 -10.18974
 Alpha  occ. eigenvalues --  -10.17024 -10.16977 -10.16837 -10.16799 -10.16753
 Alpha  occ. eigenvalues --  -10.16711 -10.16646 -10.16642 -10.15898 -10.15846
 Alpha  occ. eigenvalues --   -0.99869  -0.99598  -0.92325  -0.91743  -0.85477
 Alpha  occ. eigenvalues --   -0.82618  -0.77788  -0.74727  -0.73903  -0.73633
 Alpha  occ. eigenvalues --   -0.68781  -0.66732  -0.65704  -0.62426  -0.61331
 Alpha  occ. eigenvalues --   -0.57534  -0.56262  -0.52982  -0.52018  -0.49832
 Alpha  occ. eigenvalues --   -0.49499  -0.47265  -0.45809  -0.45433  -0.45149
 Alpha  occ. eigenvalues --   -0.43833  -0.43125  -0.42761  -0.42050  -0.41241
 Alpha  occ. eigenvalues --   -0.41066  -0.40879  -0.39504  -0.38075  -0.37855
 Alpha  occ. eigenvalues --   -0.37491  -0.37158  -0.36330  -0.35983  -0.34419
 Alpha  occ. eigenvalues --   -0.33782  -0.33307  -0.31047  -0.26512  -0.25325
 Alpha  occ. eigenvalues --   -0.24885  -0.24162  -0.23788  -0.23268  -0.17975
 Alpha  occ. eigenvalues --   -0.13028
 Alpha virt. eigenvalues --   -0.04094  -0.01764  -0.00505   0.00257   0.00409
 Alpha virt. eigenvalues --    0.01687   0.01867   0.01950   0.02740   0.03134
 Alpha virt. eigenvalues --    0.03548   0.04287   0.04352   0.04982   0.05247

  Beta  occ. eigenvalues --  -19.06615 -19.06614 -14.30128 -14.30127 -10.21834
  Beta  occ. eigenvalues --  -10.21833 -10.20213 -10.20212 -10.18978 -10.18978
  Beta  occ. eigenvalues --  -10.16982 -10.16934 -10.16849 -10.16811 -10.16690
  Beta  occ. eigenvalues --  -10.16668 -10.16637 -10.16613 -10.15758 -10.15705
  Beta  occ. eigenvalues --   -0.99126  -0.98833  -0.92125  -0.91559  -0.85283
  Beta  occ. eigenvalues --   -0.82437  -0.77399  -0.74533  -0.73746  -0.73458
  Beta  occ. eigenvalues --   -0.68739  -0.66309  -0.65251  -0.62274  -0.61152
  Beta  occ. eigenvalues --   -0.57420  -0.56101  -0.52768  -0.51908  -0.49675
  Beta  occ. eigenvalues --   -0.49410  -0.47022  -0.45699  -0.45311  -0.45044
  Beta  occ. eigenvalues --   -0.43540  -0.42964  -0.42634  -0.42019  -0.40736
  Beta  occ. eigenvalues --   -0.40666  -0.40377  -0.39399  -0.37956  -0.37741
  Beta  occ. eigenvalues --   -0.36987  -0.36041  -0.35889  -0.35759  -0.34275
  Beta  occ. eigenvalues --   -0.33205  -0.32644  -0.30370  -0.25023  -0.24729
  Beta  occ. eigenvalues --   -0.24012  -0.23784  -0.23367  -0.22887  -0.16697
  Beta virt. eigenvalues --   -0.07950  -0.03214  -0.00784  -0.00491   0.00261
  Beta virt. eigenvalues --    0.00417   0.01847   0.01871   0.02413   0.02754
  Beta virt. eigenvalues --    0.03199   0.03557   0.04314   0.04385   0.05003

 Mulliken charges and spin densities:
               1          2
     1  C   -0.002706   0.020220
     2  C   -0.556000   0.033717
     3  C   -0.556016   0.033721
     4  C    0.099686   0.023287
     5  C    0.099370   0.023278
     6  C   -0.002615   0.020218
     7  C   -0.225560   0.095119
     8  C   -0.225830   0.095117
     9  C    0.335765  -0.006287
    10  C    0.336066  -0.006286
    11  C   -0.089601   0.042859
    12  C   -0.268293   0.105131
    13  C   -0.267894   0.105117
    14  C   -0.088891   0.042923
    15  O   -0.469888   0.159375
    16  O   -0.469867   0.159382
    17  H    0.160668  -0.000833
    18  H    0.178161  -0.002761
    19  H    0.178160  -0.002761
    20  H    0.160677  -0.000833
    21  H    0.180185  -0.007872
    22  H    0.180223  -0.007872
    23  N   -0.293128   0.037578
    24  N   -0.292989   0.037573
    25  C   -0.391912  -0.003170
    26  C   -0.391944  -0.003159
    27  H    0.387407  -0.003580
    28  H    0.387334  -0.003580
    29  H    0.150525   0.004498
    30  H    0.145032   0.002703
    31  H    0.159169  -0.000010
    32  H    0.145016   0.002700
    33  H    0.150551   0.004497
    34  H    0.159140  -0.000007
 Sum of Mulliken charges =  -1.00000   1.00000

 Dipole moment (field-independent basis, Debye):
    X=              4.3243    Y=             -0.0009    Z=              0.8279  Tot=              4.4029
 Quadrupole moment (field-independent basis, Debye-Ang):
   XX=           -119.6038   YY=           -140.7657   ZZ=           -127.7390
   XY=             -0.0019   XZ=              1.2734   YZ=              0.0067

 Normal termination of Gaussian 16 at Sun Jan 14 01:26:00 2024.
