 Gaussian 16, Revision A.03,
 Gaussian 16:  ES64L-G16RevA.03 25-Dec-2016

 --------------------------------------
 #P UB3LYP/6-311++G(d,p) nosym opt freq
 --------------------------------------

 -------
 Reduced
 -------
 Symbolic Z-matrix:
 Charge = -2 Multiplicity = 1

 SCF Done:  E(UB3LYP) =  -724.572568689     A.U. after  120 cycles
 SCF Done:  E(UB3LYP) =  -724.596362042     A.U. after   48 cycles
 SCF Done:  E(UB3LYP) =  -724.602682098     A.U. after   34 cycles
 SCF Done:  E(UB3LYP) =  -724.605625761     A.U. after   31 cycles
 SCF Done:  E(UB3LYP) =  -724.608403448     A.U. after   28 cycles
 SCF Done:  E(UB3LYP) =  -724.610566532     A.U. after   30 cycles
 SCF Done:  E(UB3LYP) =  -724.611866397     A.U. after   31 cycles
 SCF Done:  E(UB3LYP) =  -724.612674675     A.U. after   32 cycles
 SCF Done:  E(UB3LYP) =  -724.613297592     A.U. after   33 cycles
 SCF Done:  E(UB3LYP) =  -724.613535510     A.U. after   27 cycles
 SCF Done:  E(UB3LYP) =  -724.613621411     A.U. after   34 cycles
 SCF Done:  E(UB3LYP) =  -724.613712755     A.U. after   29 cycles
 SCF Done:  E(UB3LYP) =  -724.613765995     A.U. after   27 cycles
 SCF Done:  E(UB3LYP) =  -724.613788870     A.U. after   31 cycles
 SCF Done:  E(UB3LYP) =  -724.613800843     A.U. after   27 cycles
 SCF Done:  E(UB3LYP) =  -724.613802164     A.U. after   27 cycles
 SCF Done:  E(UB3LYP) =  -724.613802746     A.U. after   25 cycles
 SCF Done:  E(UB3LYP) =  -724.613802888     A.U. after   25 cycles
 Optimization completed.
    -- Stationary point found.
 Normal termination of Gaussian 16 at Wed Dec 27 00:16:49 2023.

 ----------------------------------------------------------------------
 #P Geom=AllCheck Guess=TCheck SCRF=Check GenChk UB3LYP/6-311++G(d,p) F
 req
 ----------------------------------------------------------------------

 Structure from the checkpoint file:  "273-an.chk"
 -------
 Reduced
 -------
 Charge = -2 Multiplicity = 1

                          Input orientation:
 ---------------------------------------------------------------------
 Center     Atomic      Atomic             Coordinates (Angstroms)
 Number     Number       Type             X           Y           Z
 ---------------------------------------------------------------------
      1          6           0       -0.800308    3.801660   -0.112920
      2          6           0       -1.860646    3.120759    0.452997
      3          6           0       -1.705606    1.761101    0.837259
      4          6           0        0.462446    3.187930   -0.331932
      5          6           0        0.617982    1.798728    0.058118
      6          6           0       -0.483841    1.136606    0.636833
      7          6           0        1.538369    3.936455   -0.922280
      8          6           0        2.754513    3.209126   -1.079101
      9          6           0        2.909054    1.843035   -0.749275
     10          6           0        1.874928    1.079216   -0.126758
     11          8           0        1.443041    5.175747   -1.318130
     12          8           0        2.025544   -0.150516    0.239586
     13          7           0        3.841856    3.945146   -1.597913
     14          1           0       -0.892561    4.841498   -0.412986
     15          1           0       -2.814421    3.625178    0.606509
     16          1           0       -2.537380    1.217212    1.282498
     17          1           0       -0.328255    0.098913    0.918723
     18          1           0        3.472462    4.767604   -2.069558
     19          1           0        4.464295    3.365812   -2.147179
     20          7           0        4.196835    1.244638   -1.067299
     21          6           0        5.059509    1.092785    0.103335
     22          6           0        4.115846    0.013783   -1.849605
     23          1           0        5.163339    2.063858    0.594065
     24          1           0        6.065127    0.764141   -0.207792
     25          1           0        4.660457    0.366629    0.830826
     26          1           0        3.520187    0.204639   -2.748363
     27          1           0        3.643874   -0.810768   -1.295744
     28          1           0        5.127784   -0.281358   -2.164838
 ---------------------------------------------------------------------

 SCF Done:  E(UB3LYP) =  -724.613802888     A.U. after    2 cycles

 Alpha  occ. eigenvalues --  -18.77145 -18.76797 -14.06194 -14.04698  -9.95151
 Alpha  occ. eigenvalues --   -9.94907  -9.93126  -9.92016  -9.91926  -9.91805
 Alpha  occ. eigenvalues --   -9.91628  -9.91024  -9.90916  -9.90839  -9.89455
 Alpha  occ. eigenvalues --   -9.89337  -0.69600  -0.68220  -0.66437  -0.62551
 Alpha  occ. eigenvalues --   -0.58516  -0.51424  -0.48421  -0.46767  -0.46113
 Alpha  occ. eigenvalues --   -0.40658  -0.38134  -0.34038  -0.32665  -0.29067
 Alpha  occ. eigenvalues --   -0.26945  -0.24942  -0.23114  -0.21163  -0.20712
 Alpha  occ. eigenvalues --   -0.19729  -0.18623  -0.17320  -0.16130  -0.15800
 Alpha  occ. eigenvalues --   -0.14676  -0.13640  -0.13179  -0.12721  -0.10971
 Alpha  occ. eigenvalues --   -0.10207  -0.09460  -0.08389  -0.06826  -0.06070
 Alpha  occ. eigenvalues --   -0.03365   0.01069   0.01405   0.02468   0.05047
 Alpha  occ. eigenvalues --    0.05446   0.06055   0.14033
 Alpha virt. eigenvalues --    0.15685   0.16516   0.17771   0.18225   0.19303
 Alpha virt. eigenvalues --    0.19780   0.21006   0.21941   0.22020   0.22457
 Alpha virt. eigenvalues --    0.22855   0.23460   0.24450   0.25054   0.26148

  Beta  occ. eigenvalues --  -18.77145 -18.76797 -14.06194 -14.04698  -9.95151
  Beta  occ. eigenvalues --   -9.94907  -9.93126  -9.92016  -9.91926  -9.91805
  Beta  occ. eigenvalues --   -9.91628  -9.91024  -9.90916  -9.90839  -9.89455
  Beta  occ. eigenvalues --   -9.89337  -0.69600  -0.68220  -0.66437  -0.62551
  Beta  occ. eigenvalues --   -0.58516  -0.51424  -0.48421  -0.46767  -0.46113
  Beta  occ. eigenvalues --   -0.40658  -0.38134  -0.34038  -0.32665  -0.29067
  Beta  occ. eigenvalues --   -0.26945  -0.24942  -0.23114  -0.21163  -0.20712
  Beta  occ. eigenvalues --   -0.19729  -0.18623  -0.17320  -0.16130  -0.15800
  Beta  occ. eigenvalues --   -0.14676  -0.13640  -0.13179  -0.12721  -0.10971
  Beta  occ. eigenvalues --   -0.10207  -0.09460  -0.08389  -0.06826  -0.06070
  Beta  occ. eigenvalues --   -0.03365   0.01069   0.01405   0.02468   0.05047
  Beta  occ. eigenvalues --    0.05446   0.06055   0.14033
  Beta virt. eigenvalues --    0.15685   0.16516   0.17771   0.18225   0.19303
  Beta virt. eigenvalues --    0.19780   0.21006   0.21941   0.22020   0.22457
  Beta virt. eigenvalues --    0.22855   0.23460   0.24450   0.25054   0.26148

 Mulliken charges and spin densities:
               1          2
     1  C   -0.272816   0.000000
     2  C   -0.235040  -0.000000
     3  C   -0.321497  -0.000000
     4  C    1.101746  -0.000000
     5  C    0.523499   0.000000
     6  C   -0.123648  -0.000000
     7  C   -1.141930   0.000000
     8  C    0.251025   0.000000
     9  C   -0.293813  -0.000000
    10  C   -1.170538   0.000000
    11  O   -0.571940   0.000000
    12  O   -0.476614   0.000000
    13  N   -0.448831  -0.000000
    14  H    0.115701   0.000000
    15  H    0.066075  -0.000000
    16  H    0.062018  -0.000000
    17  H    0.120090   0.000000
    18  H    0.244090  -0.000000
    19  H    0.229394  -0.000000
    20  N    0.175032  -0.000000
    21  C    0.252751   0.000000
    22  C   -0.042954   0.000000
    23  H   -0.000816  -0.000000
    24  H   -0.405685  -0.000000
    25  H    0.149896  -0.000000
    26  H    0.121634   0.000000
    27  H    0.107642  -0.000000
    28  H   -0.014471  -0.000000
 Sum of Mulliken charges =  -2.00000   0.00000

 Dipole moment (field-independent basis, Debye):
    X=            -17.8146    Y=            -22.7540    Z=              3.2625  Tot=             29.0818
 Quadrupole moment (field-independent basis, Debye-Ang):
   XX=           -197.0292   YY=           -213.4110   ZZ=           -115.8356
   XY=            -28.5600   XZ=             10.7890   YZ=             18.1486

  Exact polarizability:1761.001-552.912 612.826 -79.169 114.902 344.592
 Approx polarizability:2713.881-906.960 859.124 -43.976 -25.638 325.957

                      1                      2                      3
                      A                      A                      A
 Frequencies --     46.0040                66.6586               114.0985
 Red. masses --      2.8661                 4.7509                 4.3265
 Frc consts  --      0.0036                 0.0124                 0.0332
 IR Inten    --      5.6745                 2.3084                 6.2144

                      4                      5                      6
                      A                      A                      A
 Frequencies --    142.9287               159.8671               185.1882
 Red. masses --      4.2569                 3.1162                 3.3648
 Frc consts  --      0.0512                 0.0469                 0.0680
 IR Inten    --      8.1433                 9.8608                 8.9404

                      7                      8                      9
                      A                      A                      A
 Frequencies --    199.4133               226.0886               238.7935
 Red. masses --      1.2231                 2.0960                 1.7364
 Frc consts  --      0.0287                 0.0631                 0.0583
 IR Inten    --     12.8636                 4.9245                 4.7524

                     10                     11                     12
                      A                      A                      A
 Frequencies --    257.5538               279.6624               321.5346
 Red. masses --      3.4466                 3.4172                 2.7317
 Frc consts  --      0.1347                 0.1575                 0.1664
 IR Inten    --      2.6433                35.1347                57.5491

                     13                     14                     15
                      A                      A                      A
 Frequencies --    353.6923               363.9186               405.2419
 Red. masses --      6.3852                 7.7944                 3.5346
 Frc consts  --      0.4706                 0.6082                 0.3420
 IR Inten    --      6.4785                 0.7414                21.2062

                     16                     17                     18
                      A                      A                      A
 Frequencies --    424.6895               430.3969               447.5477
 Red. masses --      5.0754                 6.1962                 3.3526
 Frc consts  --      0.5393                 0.6763                 0.3957
 IR Inten    --    206.5565               267.4172               536.2111

                     19                     20                     21
                      A                      A                      A
 Frequencies --    471.4889               482.2993               509.1593
 Red. masses --      2.2820                 2.2108                 4.9615
 Frc consts  --      0.2989                 0.3030                 0.7578
 IR Inten    --     40.7233                32.9666               303.8074

                     22                     23                     24
                      A                      A                      A
 Frequencies --    570.4223               600.0172               659.0667
 Red. masses --      4.9495                 5.3071                 5.7584
 Frc consts  --      0.9489                 1.1257                 1.4737
 IR Inten    --     27.2840                20.0476                38.7851

                     25                     26                     27
                      A                      A                      A
 Frequencies --    674.9628               696.8699               711.6730
 Red. masses --      2.2230                 2.3354                 5.7921
 Frc consts  --      0.5967                 0.6682                 1.7284
 IR Inten    --    119.0204                54.6624                 2.2930

                     28                     29                     30
                      A                      A                      A
 Frequencies --    733.0599               767.5182               783.5671
 Red. masses --      2.1285                 2.0165                 1.7627
 Frc consts  --      0.6739                 0.6999                 0.6376
 IR Inten    --    149.9175                36.7451               262.2932

                     31                     32                     33
                      A                      A                      A
 Frequencies --    814.1368               850.5008               882.3191
 Red. masses --      4.2550                 4.5254                 5.3808
 Frc consts  --      1.6617                 1.9287                 2.4680
 IR Inten    --     28.1929                48.0088                 9.2642

                     34                     35                     36
                      A                      A                      A
 Frequencies --    940.9054               951.4058               967.7672
 Red. masses --      1.2628                 1.3318                 3.6832
 Frc consts  --      0.6587                 0.7103                 2.0324
 IR Inten    --      3.1055                 2.9076                29.2361

                     37                     38                     39
                      A                      A                      A
 Frequencies --   1010.4684              1039.5133              1045.7055
 Red. masses --      2.1785                 2.0513                 2.7460
 Frc consts  --      1.3105                 1.3060                 1.7692
 IR Inten    --    573.2706                91.2026                25.8817

                     40                     41                     42
                      A                      A                      A
 Frequencies --   1088.9154              1095.9752              1119.1758
 Red. masses --      2.1360                 1.2235                 1.4423
 Frc consts  --      1.4923                 0.8659                 1.0644
 IR Inten    --    132.3812                 8.3481               187.4408

                     43                     44                     45
                      A                      A                      A
 Frequencies --   1158.4520              1162.9290              1176.9972
 Red. masses --      2.0451                 1.6240                 2.2104
 Frc consts  --      1.6171                 1.2940                 1.8041
 IR Inten    --    190.2789                26.3778               115.6052

                     46                     47                     48
                      A                      A                      A
 Frequencies --   1205.0636              1223.7346              1233.3416
 Red. masses --      1.8992                 2.9090                 2.8048
 Frc consts  --      1.6249                 2.5667                 2.5137
 IR Inten    --    107.0353                71.0375               157.5374

                     49                     50                     51
                      A                      A                      A
 Frequencies --   1282.2585              1297.1870              1318.4103
 Red. masses --      2.1637                 2.8343                 6.0576
 Frc consts  --      2.0960                 2.8100                 6.2037
 IR Inten    --     31.3512               140.8338              2518.0444

                     52                     53                     54
                      A                      A                      A
 Frequencies --   1390.6200              1402.0873              1403.3953
 Red. masses --      2.9218                 1.2314                 6.4039
 Frc consts  --      3.3290                 1.4263                 7.4311
 IR Inten    --    746.8413               129.8175              3928.3022

                     55                     56                     57
                      A                      A                      A
 Frequencies --   1423.8519              1434.7197              1453.9616
 Red. masses --      2.6129                 1.6639                 2.0919
 Frc consts  --      3.1211                 2.0179                 2.6055
 IR Inten    --    667.6887                 4.3323                79.5221

                     58                     59                     60
                      A                      A                      A
 Frequencies --   1455.9006              1466.8317              1493.2122
 Red. masses --      1.0773                 1.1988                 2.7346
 Frc consts  --      1.3453                 1.5197                 3.5925
 IR Inten    --     32.7008                48.7321               369.6671

                     61                     62                     63
                      A                      A                      A
 Frequencies --   1502.0992              1509.0369              1518.2697
 Red. masses --      1.0959                 4.2876                 1.0917
 Frc consts  --      1.4569                 5.7526                 1.4826
 IR Inten    --     29.4276               213.3638                93.1127

                     64                     65                     66
                      A                      A                      A
 Frequencies --   1540.5703              1561.1797              1579.3862
 Red. masses --      1.5972                 3.7856                 5.2693
 Frc consts  --      2.2334                 5.4361                 7.7443
 IR Inten    --    269.0589              2401.0364               771.2690

                     67                     68                     69
                      A                      A                      A
 Frequencies --   2921.6300              2944.0761              2959.9989
 Red. masses --      1.0403                 1.0404                 1.0984
 Frc consts  --      5.2319                 5.3131                 5.6704
 IR Inten    --     37.5839               549.3314                71.3797

                     70                     71                     72
                      A                      A                      A
 Frequencies --   2991.0706              3045.3269              3068.9330
 Red. masses --      1.0996                 1.0947                 1.0914
 Frc consts  --      5.7960                 5.9818                 6.0563
 IR Inten    --    287.9293               159.6376                14.4131

                     73                     74                     75
                      A                      A                      A
 Frequencies --   3081.4568              3107.3351              3148.4738
 Red. masses --      1.0823                 1.0901                 1.0902
 Frc consts  --      6.0551                 6.2012                 6.3671
 IR Inten    --     75.3774               337.1423                59.0156

                     76                     77                     78
                      A                      A                      A
 Frequencies --   3152.3156              3454.2269              3593.1953
 Red. masses --      1.0910                 1.0474                 1.0951
 Frc consts  --      6.3873                 7.3632                 8.3304
 IR Inten    --    210.7097               188.4824                20.0108

 - Thermochemistry -
 -------------------
 Temperature   298.150 Kelvin.  Pressure   1.00000 Atm.
 Atom     1 has atomic number  6 and mass  12.00000

 Molecular mass:   216.08988 amu.
 Principal axes and moments of inertia in atomic units:
                           1         2         3
     Eigenvalues --  2057.566444040.414795750.26648
           X            0.93138   0.20980   0.29752
           Y           -0.29328   0.91660   0.27173
           Z           -0.21570  -0.34034   0.91523
 This molecule is an asymmetric top.
 Rotational symmetry number  1.
 Warning -- assumption of classical behavior for rotation
           may cause significant error
 Rotational temperatures (Kelvin)      0.04210     0.02144     0.01506
 Rotational constants (GHZ):           0.87712     0.44667     0.31385
 Zero-point vibrational energy     566980.3 (Joules/Mol)
                                  135.51155 (Kcal/Mol)
 Warning -- explicit consideration of  23 degrees of freedom as
           vibrations may cause significant error
 Vibrational temperatures:     66.19    95.91   164.16   205.64   230.01
          (Kelvin)            266.44   286.91   325.29   343.57   370.56
                              402.37   462.62   508.88   523.60   583.05
                              611.03   619.25   643.92   678.37   693.92
                              732.57   820.71   863.29   948.25   971.12
                             1002.64  1023.94  1054.71  1104.29  1127.38
                             1171.36  1223.68  1269.46  1353.75  1368.86
                             1392.40  1453.84  1495.63  1504.54  1566.71
                             1576.86  1610.24  1666.75  1673.20  1693.44
                             1733.82  1760.68  1774.50  1844.88  1866.36
                             1896.90  2000.79  2017.29  2019.17  2048.61
                             2064.24  2091.93  2094.72  2110.44  2148.40
                             2161.19  2171.17  2184.45  2216.54  2246.19
                             2272.38  4203.57  4235.87  4258.78  4303.48
                             4381.55  4415.51  4433.53  4470.76  4529.95
                             4535.48  4969.86  5169.81

 Zero-point correction=                           0.215951 (Hartree/Particle)
 Thermal correction to Energy=                    0.230252
 Thermal correction to Enthalpy=                  0.231196
 Thermal correction to Gibbs Free Energy=         0.175481
 Sum of electronic and zero-point Energies=           -724.397851
 Sum of electronic and thermal Energies=              -724.383551
 Sum of electronic and thermal Enthalpies=            -724.382607
 Sum of electronic and thermal Free Energies=         -724.438322

                     E (Thermal)             CV                S
                      KCal/Mol        Cal/Mol-Kelvin    Cal/Mol-Kelvin
 Total                  144.485             56.166            117.262
 Electronic               0.000              0.000              0.000
 Translational            0.889              2.981             42.015
 Rotational               0.889              2.981             32.236
 Vibrational            142.708             50.205             43.011
 Vibration     1          0.595              1.979              4.982
 Vibration     2          0.598              1.970              4.250
 Vibration     3          0.607              1.938              3.198
 Vibration     4          0.616              1.910              2.764
 Vibration     5          0.622              1.892              2.551
 Vibration     6          0.631              1.860              2.275
 Vibration     7          0.638              1.841              2.139
 Vibration     8          0.650              1.801              1.910
 Vibration     9          0.657              1.781              1.812
 Vibration    10          0.667              1.750              1.678
 Vibration    11          0.680              1.711              1.536
 Vibration    12          0.707              1.632              1.302
 Vibration    13          0.730              1.568              1.150
 Vibration    14          0.737              1.547              1.105
 Vibration    15          0.770              1.459              0.944
 Vibration    16          0.787              1.417              0.876
 Vibration    17          0.792              1.404              0.857
 Vibration    18          0.807              1.366              0.803
 Vibration    19          0.828              1.313              0.733
 Vibration    20          0.839              1.289              0.704
 Vibration    21          0.864              1.230              0.636
 Vibration    22          0.927              1.095              0.503
 Vibration    23          0.958              1.032              0.450

                           ! Non-Optimized Parameters !
 Normal termination of Gaussian 16 at Wed Dec 27 00:58:38 2023.
