 Q-Chem 5.4, Q-Chem, Inc., Pleasanton, CA (2021)
 Q-Chem 5.4.0 for Intel X86 EM64T Linux

User input:
--------------------------------------------------------------
$molecule
-1 2
C                 -5.8514020000     -2.7907270000      3.6948970000
C                 -6.5888840000     -3.2066440000      2.6005730000
C                 -7.5211160000     -2.3321990000      2.0078300000
C                 -6.0158890000     -1.4986360000      4.2326850000
C                 -6.9539940000     -0.6193130000      3.6357900000
C                 -7.6965020000     -1.0598760000      2.5223150000
C                 -5.2181240000     -1.0854490000      5.3977010000
C                 -5.4427130000      0.2566710000      5.8991380000
C                 -6.3539580000      1.1202340000      5.3019560000
C                 -7.1589810000      0.7371800000      4.1625410000
O                 -4.3837260000     -1.8742860000      5.9227520000
O                 -7.9987700000      1.5232080000      3.6394810000
H                 -6.4503960000     -4.2060490000      2.1980600000
H                 -8.1005190000     -2.6576800000      1.1485590000
C                 -4.6291020000      0.6716910000      7.1017910000
H                 -5.1272490000     -3.4415180000      4.1714860000
H                 -8.4066640000     -0.3650990000      2.0885110000
H                 -3.9095900000      1.4631900000      6.8532160000
H                 -4.0679850000     -0.1891730000      7.4659060000
H                 -5.2636100000      1.0536760000      7.9082750000
C                 -6.5771110000      2.5317910000      5.8194320000
C                 -7.6967260000      2.6011810000      6.8274750000
C                 -7.7141890000      3.1755570000      8.0391940000
C                 -8.9700340000      3.1237840000      8.8865340000
C                 -9.6735490000      4.4940910000      9.0643130000
C                -10.8731340000      4.4102860000      9.9653340000
C                -12.1676220000      4.5973290000      9.6695890000
C                 -6.5421820000      3.8986290000      8.6603180000
C                -13.2247580000      4.4285800000     10.7427780000
C                -14.1430640000      3.1965320000     10.5411680000
C                -15.1972540000      3.0918100000     11.6074660000
C                -15.3791920000      2.1281030000     12.5217780000
C                -12.6833850000      4.9805390000      8.3035620000
C                -14.5288330000      0.8860600000     12.6344750000
C                -16.5093060000      2.2374580000     13.5261200000
C                -16.0416060000      2.4832140000     14.9830120000
C                -17.1915920000      2.5333160000     15.9499320000
C                -17.6143160000      3.5575430000     16.7048210000
C                -16.9582160000      4.9164400000     16.7452810000
C                -18.8206050000      3.3898130000     17.6072060000
C                -20.0668700000      4.1940680000     17.1583650000
C                -21.2164730000      4.0431000000     18.1154770000
C                -22.4203390000      3.4911870000     17.9065760000
C                -22.8779610000      2.9125310000     16.5897620000
C                -23.4331090000      3.4294220000     19.0325950000
C                -23.7113780000      1.9987600000     19.5591060000
C                -24.7546760000      1.9835840000     20.6416710000
C                -24.6278150000      1.6285510000     21.9282860000
C                -23.3496890000      1.1247940000     22.5536140000
C                -25.8211810000      1.7062140000     22.8595690000
C                -25.7163290000      2.8164850000     23.9355320000
C                -26.8903360000      2.8110340000     24.8748930000
C                -27.8252170000      3.7538620000     25.0608300000
C                -27.8571430000      5.0793270000     24.3393740000
C                -28.9413420000      3.5296150000     26.0613950000
H                 -6.8729580000      3.1416710000      4.9580270000
H                 -5.6516070000      2.9464960000      6.2231860000
H                 -8.6067810000      2.1083870000      6.4905620000
H                 -8.7257190000      2.7293170000      9.8839000000
H                 -9.6824380000      2.4244430000      8.4397320000
H                 -9.9339110000      4.8812170000      8.0767640000
H                 -8.9603810000      5.2056730000      9.4989810000
H                -10.6403820000      4.1354530000     10.9951620000
H                 -5.6282760000      3.7853240000      8.0778610000
H                 -6.3450250000      3.5197320000      9.6713860000
H                 -6.7358210000      4.9739200000      8.7608590000
H                -13.8556010000      5.3281300000     10.7802790000
H                -12.7423080000      4.3442090000     11.7211700000
H                -13.5207710000      2.3003510000     10.4973280000
H                -14.6386200000      3.2770840000      9.5660720000
H                -15.8930370000      3.9315650000     11.6329170000
H                -11.8848430000      5.1467780000      7.5817960000
H                -13.2824870000      5.8977480000      8.3633200000
H                -13.3384240000      4.2046990000      7.8924050000
H                -13.7573230000      0.8279120000     11.8679230000
H                -15.1525750000     -0.0121510000     12.5516270000
H                -14.0301490000      0.8311530000     13.6082520000
H                -17.1065930000      1.3153960000     13.5045250000
H                -17.1805120000      3.0511540000     13.2358690000
H                -15.4499870000      3.4008340000     15.0101990000
H                -15.3682530000      1.6712410000     15.2831820000
H                -17.7543270000      1.6020690000     16.0241330000
H                -16.0706700000      4.9789800000     16.1168100000
H                -16.6622040000      5.1666530000     17.7711560000
H                -17.6487580000      5.7017910000     16.4194050000
H                -18.5571770000      3.6995070000     18.6279960000
H                -19.0927170000      2.3317760000     17.6628110000
H                -20.3386550000      3.8829820000     16.1473330000
H                -19.8025000000      5.2566630000     17.0952760000
H                -21.0196170000      4.4313790000     19.1153700000
H                -22.1367530000      3.0167460000     15.7982650000
H                -23.7983560000      3.4062210000     16.2557020000
H                -23.1121200000      1.8467310000     16.6837770000
H                -24.3826910000      3.8647470000     18.6921250000
H                -23.0894890000      4.0454540000     19.8686460000
H                -22.7700420000      1.5617780000     19.8993350000
H                -24.0609880000      1.3737770000     18.7283880000
H                -25.7398950000      2.3215010000     20.3185830000
H                -22.5280330000      1.0489430000     21.8423590000
H                -23.5061250000      0.1326280000     22.9934960000
H                -23.0212080000      1.7788000000     23.3684380000
H                -25.9481200000      0.7408310000     23.3683340000
H                -26.7315350000      1.8735230000     22.2766620000
H                -25.6040320000      3.7802870000     23.4341680000
H                -24.8011530000      2.6624250000     24.5200640000
H                -26.9824030000      1.9018390000     25.4698760000
H                -27.0107700000      5.2195340000     23.6679010000
H                -27.8549220000      5.9056220000     25.0601530000
H                -28.7709690000      5.1863710000     23.7451760000
H                -28.9838300000      4.3805710000     26.7549900000
H                -28.7192920000      2.6454930000     26.6659200000
C                -30.3415920000      3.3483840000     25.4227780000
C                -31.4195350000      3.1765720000     26.4569340000
C                -32.2042530000      2.1140270000     26.6865260000
C                -32.1668800000      0.8352410000     25.8855070000
C                -33.2238240000      2.1503040000     27.8074730000
C                -32.8876350000      1.2206720000     29.0009580000
C                -33.9544980000      1.2445440000     30.0603040000
C                -33.8737530000      1.6771650000     31.3267120000
C                -32.6202180000      2.2260280000     31.9636640000
C                -35.0908940000      1.6211840000     32.2282000000
C                -35.6840860000      3.0079990000     32.5827600000
C                -36.8498340000      2.9044180000     33.5268040000
C                -38.1296030000      3.2411480000     33.3175960000
C                -38.6691610000      3.8275200000     32.0371030000
C                -39.1657570000      3.0528830000     34.3993970000
H                -30.3050820000      2.5022540000     24.7330970000
H                -30.5757290000      4.2323910000     24.8172320000
H                -31.5579770000      4.0411690000     27.1068770000
H                -31.4464670000      0.8644170000     25.0688030000
H                -33.1538220000      0.6260670000     25.4559920000
H                -31.9141210000     -0.0223840000     26.5180180000
H                -34.2087550000      1.8661900000     27.4125190000
H                -33.3212740000      3.1733700000     28.1820290000
H                -31.9129020000      1.5058710000     29.4028070000
H                -32.7828880000      0.1922230000     28.6345930000
H                -34.9213750000      0.8631920000     29.7305030000
H                -31.7625610000      2.2204320000     31.2918550000
H                -32.3559000000      1.6393310000     32.8514960000
H                -32.7664410000      3.2568280000     32.3035290000
H                -34.8270820000      1.1073760000     33.1626670000
H                -35.8724450000      1.0213700000     31.7530280000
H                -35.9592040000      3.5194270000     31.6576040000
H                -34.9059450000      3.6203560000     33.0545450000
H                -36.6020390000      2.4853820000     34.5023140000
H                -37.9137100000      3.9360090000     31.2595840000
H                -39.1075330000      4.8155900000     32.2216250000
H                -39.4752440000      3.2000880000     31.6388530000
H                -38.7326880000      2.6272770000     35.3068900000
H                -39.9708360000      2.3894740000     34.0611480000
H                -39.6376610000      4.0075250000     34.6616710000
$end
$rem
MAX_SCF_CYCLES=200
SCF_algorithm=DIIS_GDM
BASIS  =  6-311++G(d,p)
GUI  =  2
JOB_TYPE  =  SP
METHOD  =  B3LYP
THRESH = 14
SCF_CONVERGENCE = 8
SOLVENT_METHOD = COSMO
$end
$solvent
dielectric 37.219
opticaldielectric 1.43
$end

--------------------------------------------------------------

             Standard Nuclear Orientation (Angstroms)
    I     Atom           X                Y                Z
 ----------------------------------------------------------------
    1      C     -19.5216923538     4.1526886899     0.4439054106
    2      C     -19.7296167162     4.8643779411    -0.7242887245
    3      C     -19.3975468383     4.2886436463    -1.9665907980
    4      C     -18.9797088326     2.8522282242     0.4151391412
    5      C     -18.6458562969     2.2735408790    -0.8351396322
    6      C     -18.8640473516     3.0129695520    -2.0144946949
    7      C     -18.7690660393     2.1207674259     1.6741107400
    8      C     -18.2047142023     0.7890604366     1.5681443433
    9      C     -17.8916512831     0.2204210843     0.3387641166
   10      C     -18.0783576612     0.9202674813    -0.9135995241
   11      O     -19.0702514994     2.6428738095     2.7835496209
   12      O     -17.7719761997     0.4016419916    -2.0243809366
   13      H     -20.1481308485     5.8660316760    -0.6850240844
   14      H     -19.5605181606     4.8464652612    -2.8843422695
   15      C     -17.9804506985     0.0470748774     2.8641929569
   16      H     -19.7674960544     4.5699032722     1.4137384380
   17      H     -18.5978594905     2.5439735947    -2.9549296321
   18      H     -18.6432921339    -0.8237807026     2.9547992817
   19      H     -18.1907629836     0.7166927859     3.6983988348
   20      H     -16.9521620103    -0.3195351198     2.9487439369
   21      C     -17.3144083014    -1.1812600836     0.2285267360
   22      C     -15.8062730970    -1.1800232321     0.2230417079
   23      C     -14.9537096122    -1.9148142454     0.9522147681
   24      C     -13.4582029591    -1.7453616092     0.7717768630
   25      C     -12.7554363056    -2.9619537170     0.1158022626
   26      C     -11.2669975370    -2.7805386936     0.0183091143
   27      C     -10.4991332739    -2.6636114957    -1.0747882623
   28      C     -15.3707733144    -2.9384461070     1.9820032071
   29      C      -9.0044374470    -2.4536199925    -0.9350194141
   30      C      -8.5168925347    -1.0493879149    -1.3735476423
   31      C      -7.0260610880    -0.9009873831    -1.2524131801
   32      C      -6.3220488831    -0.0684530555    -0.4719950487
   33      C     -11.0167632281    -2.7290830066    -2.4913558932
   34      C      -6.9326146493     0.9515103369     0.4582554443
   35      C      -4.8067943212    -0.1033310957    -0.4966153055
   36      C      -4.1637336820    -0.6515590784     0.8024584779
   37      C      -2.6616136733    -0.6195115882     0.7522515571
   38      C      -1.7951552936    -1.6422923452     0.7798799726
   39      C      -2.1910318359    -3.0938756300     0.9019168884
   40      C      -0.3046949862    -1.3784386340     0.6994157962
   41      C       0.3530813039    -1.8461384380    -0.6234780182
   42      C       1.8391013542    -1.6178470041    -0.6317970608
   43      C       2.5642675891    -0.8156141376    -1.4243229549
   44      C       1.9924783038     0.0322431576    -2.5344827597
   45      C       4.0665085897    -0.7259151603    -1.2435943013
   46      C       4.5600711293     0.6361410182    -0.6934668489
   47      C       6.0578738882     0.6931919737    -0.5752294147
   48      C       6.8112408650     0.8195265933     0.5265863887
   49      C       6.2621432510     0.9633258591     1.9252378378
   50      C       8.3228042863     0.8387141115     0.4159073920
   51      C       9.0183641274    -0.4190316004     0.9952727726
   52      C      10.5172089904    -0.3243087086     0.9230724397
   53      C      11.3770034561    -1.0824980311     0.2278011849
   54      C      10.9772771222    -2.2525626543    -0.6379604054
   55      C      12.8640527335    -0.7962727081     0.2903436743
   56      H     -17.6456552227    -1.5851474324    -0.7351371694
   57      H     -17.7091415245    -1.8251457085     1.0166588114
   58      H     -15.3816949449    -0.4735122859    -0.4876847337
   59      H     -12.9876834340    -1.5604943896     1.7487458793
   60      H     -13.2631024708    -0.8609847348     0.1585536865
   61      H     -13.2078312138    -3.1380314964    -0.8625859021
   62      H     -12.9586838578    -3.8565240663     0.7177392461
   63      H     -10.7606413540    -2.7142018585     0.9823916944
   64      H     -16.4430855097    -2.9205718944     2.1747346912
   65      H     -14.8554510604    -2.7614728068     2.9347968602
   66      H     -15.1106426219    -3.9575634694     1.6696138440
   67      H      -8.4712081533    -3.2072467877    -1.5319051587
   68      H      -8.7086039430    -2.6131106603     0.1062166968
   69      H      -9.0478956456    -0.2963990966    -0.7875831009
   70      H      -8.8009923542    -0.8841202315    -2.4198986678
   71      H      -6.4556173693    -1.5821280027    -1.8853362533
   72      H     -12.0843816676    -2.9386008915    -2.5417941040
   73      H     -10.4912694220    -3.5093829024    -3.0559397284
   74      H     -10.8436954284    -1.7871660129    -3.0232335008
   75      H      -8.0205960391     0.9714506873     0.4123237937
   76      H      -6.5679724708     1.9566683264     0.2145458383
   77      H      -6.6505367507     0.7609753588     1.4994425733
   78      H      -4.4217100579     0.9105714699    -0.6730469746
   79      H      -4.4676201508    -0.7167217918    -1.3366016470
   80      H      -4.5410751170    -1.6608836641     0.9803796982
   81      H      -4.4977599494    -0.0417457574     1.6506097677
   82      H      -2.2382205239     0.3821581884     0.6698298165
   83      H      -3.2666484408    -3.2343400396     1.0016345916
   84      H      -1.7100219447    -3.5481534950     1.7765083765
   85      H      -1.8627633144    -3.6706669700     0.0304978489
   86      H       0.1997419078    -1.8832051375     1.5349222928
   87      H      -0.1146323089    -0.3081075580     0.8212628985
   88      H      -0.1386870708    -1.3398466526    -1.4569405454
   89      H       0.1639331009    -2.9182465475    -0.7568459743
   90      H       2.3823772000    -2.1825799404     0.1266401113
   91      H       0.9176308006    -0.0954749711    -2.6573993605
   92      H       2.4719241827    -0.2156086888    -3.4890266126
   93      H       2.1798832439     1.0968973981    -2.3584440303
   94      H       4.5605669290    -0.9105232963    -2.2074199311
   95      H       4.4016901448    -1.5155796010    -0.5648934833
   96      H       4.0718760144     0.8240081024     0.2652792040
   97      H       4.2324897446     1.4348548985    -1.3699798730
   98      H       6.5854923540     0.6073615695    -1.5257461841
   99      H       5.1733602571     0.9822997168     1.9560147203
  100      H       6.6275583147     1.8895443398     2.3845339566
  101      H       6.5960229131     0.1430126277     2.5695765221
  102      H       8.7138569916     1.7228696188     0.9376990097
  103      H       8.6128146658     0.9424729431    -0.6336855587
  104      H       8.6430394825    -1.2998928809     0.4698152697
  105      H       8.7264851176    -0.5368186956     2.0459354670
  106      H      10.9429075200     0.4856363811     1.5162725446
  107      H       9.9068288927    -2.4537717474    -0.6147928305
  108      H      11.4973429908    -3.1617573930    -0.3136347260
  109      H      11.2595106659    -2.0880302187    -1.6833698677
  110      H      13.4000855152    -1.7165234383     0.5601821791
  111      H      13.0648973237    -0.0736553935     1.0865308735
  112      C      13.4631317692    -0.2503359456    -1.0304264688
  113      C      14.9468840077    -0.0274456224    -0.9316423326
  114      C      15.6327821543     1.1217024574    -1.0122594908
  115      C      15.0087871106     2.4736500615    -1.2596249583
  116      C      17.1411533390     1.1184866828    -0.8633660737
  117      C      17.6507490056     1.7745502344     0.4448915528
  118      C      19.1521964778     1.8018625787     0.5216379210
  119      C      19.9622931951     1.1769848544     1.3880910620
  120      C      19.4875313542     0.3038116561     2.5240832273
  121      C      21.4653125416     1.3348095834     1.2728916731
  122      C      22.2058608097     0.0540895314     0.8122510347
  123      C      23.6972316149     0.2415848318     0.7725631169
  124      C      24.5191604283     0.1975997231    -0.2845376869
  125      C      24.0858734188    -0.0729014460    -1.7035897528
  126      C      26.0032158947     0.4210979581    -0.1202813715
  127      H      12.9343705774     0.6658237982    -1.3024407417
  128      H      13.2705395952    -0.9703184536    -1.8351052318
  129      H      15.5252401264    -0.9355556227    -0.7585513442
  130      H      13.9289613262     2.4265052991    -1.3960258370
  131      H      15.4411259398     2.9342730643    -2.1558397735
  132      H      15.2069107566     3.1603734457    -0.4297840504
  133      H      17.5917589805     1.6461567847    -1.7150217090
  134      H      17.5116269511     0.0900463317    -0.9022567776
  135      H      17.2123662077     1.2467951845     1.2947272072
  136      H      17.2801267952     2.8055483976     0.4957300974
  137      H      19.6287073415     2.4104566835    -0.2475173253
  138      H      18.4018130389     0.2417320222     2.5896273812
  139      H      19.8609075946     0.6874554765     3.4810213848
  140      H      19.8711629694    -0.7173592820     2.4267450395
  141      H      21.8737103290     1.6409291899     2.2456845802
  142      H      21.6971032720     2.1405509694     0.5704380404
  143      H      21.8119680711    -0.2489020475    -0.1604805578
  144      H      21.9748958506    -0.7626304227     1.5070094832
  145      H      24.1493790373     0.4528541947     1.7418624804
  146      H      23.0100656174    -0.2096494836    -1.8082292319
  147      H      24.5794375593    -0.9720895647    -2.0913472415
  148      H      24.3861741411     0.7528854055    -2.3592873448
  149      H      26.2723298641     0.6125948922     0.9204584455
  150      H      26.3413922837     1.2725589698    -0.7230474613
  151      H      26.5722392237    -0.4507738929    -0.4650629124
 ----------------------------------------------------------------

   30   -2528.5763978242      7.88e-09  Convergence criterion met
 Total energy in the final basis set =    -2528.5763978242
   23   -2528.6725962901      4.94e-09  Convergence criterion met
 Total energy in the final basis set =    -2528.6725962901

                    Orbital Energies (a.u.)
 --------------------------------------------------------------

 Alpha MOs
 -- Occupied --
-19.0758 -19.0752 -10.2196 -10.2189 -10.1744 -10.1721 -10.1721 -10.1720
-10.1719 -10.1718 -10.1717 -10.1714 -10.1710 -10.1708 -10.1707 -10.1703
-10.1702 -10.1687 -10.1685 -10.1678 -10.1677 -10.1661 -10.1645 -10.1643
-10.1643 -10.1642 -10.1641 -10.1640 -10.1639 -10.1639 -10.1639 -10.1638
-10.1638 -10.1637 -10.1636 -10.1634 -10.1634 -10.1631 -10.1627 -10.1621
-10.1597 -10.1580 -10.1577 -10.1577 -10.1576 -10.1575 -10.1575 -10.1575
-10.1575 -10.1574 -10.1574 -10.1573 -10.1573 -10.1573 -10.1572 -10.1571
-10.1570 -10.1567 -10.1565 -10.1563 -10.1563 -10.1559 -10.1500  -1.0011
 -0.9983  -0.8564  -0.8294  -0.8282  -0.8267  -0.8247  -0.8222  -0.8190
 -0.8152  -0.8109  -0.8065  -0.8026  -0.8005  -0.7749  -0.7698  -0.7637
 -0.7578  -0.7519  -0.7482  -0.7451  -0.7380  -0.7312  -0.7253  -0.7206
 -0.7176  -0.6889  -0.6872  -0.6856  -0.6851  -0.6844  -0.6834  -0.6818
 -0.6794  -0.6759  -0.6711  -0.6658  -0.6581  -0.6484  -0.6413  -0.6319
 -0.6220  -0.6124  -0.6037  -0.5972  -0.5933  -0.5881  -0.5837  -0.5807
 -0.5784  -0.5510  -0.5202  -0.5197  -0.5190  -0.5183  -0.5173  -0.5156
 -0.5135  -0.5115  -0.5097  -0.5086  -0.5054  -0.4891  -0.4765  -0.4762
 -0.4753  -0.4748  -0.4742  -0.4734  -0.4711  -0.4672  -0.4646  -0.4631
 -0.4609  -0.4446  -0.4445  -0.4433  -0.4417  -0.4395  -0.4369  -0.4342
 -0.4334  -0.4302  -0.4288  -0.4278  -0.4263  -0.4232  -0.4214  -0.4194
 -0.4153  -0.4152  -0.4143  -0.4141  -0.4120  -0.4106  -0.4092  -0.4082
 -0.4060  -0.4060  -0.4011  -0.4005  -0.3995  -0.3992  -0.3989  -0.3960
 -0.3951  -0.3917  -0.3894  -0.3883  -0.3881  -0.3813  -0.3788  -0.3737
 -0.3727  -0.3708  -0.3704  -0.3699  -0.3697  -0.3690  -0.3681  -0.3674
 -0.3671  -0.3668  -0.3660  -0.3642  -0.3632  -0.3627  -0.3611  -0.3603
 -0.3591  -0.3587  -0.3575  -0.3556  -0.3536  -0.3519  -0.3517  -0.3481
 -0.3472  -0.3425  -0.3369  -0.3348  -0.3345  -0.3340  -0.3329  -0.3321
 -0.3314  -0.3304  -0.3260  -0.3252  -0.3249  -0.3243  -0.3239  -0.3205
 -0.3156  -0.3111  -0.3076  -0.3056  -0.2686  -0.2558  -0.2505  -0.2492
 -0.2476  -0.2472  -0.2447  -0.2414  -0.2385  -0.2371  -0.2333  -0.2293
 -0.2256  -0.2225  -0.2205  -0.1512

 Beta MOs
 -- Occupied --
-19.0698 -19.0693 -10.2177 -10.2171 -10.1744 -10.1721 -10.1721 -10.1720
-10.1719 -10.1718 -10.1717 -10.1714 -10.1710 -10.1704 -10.1702 -10.1699
-10.1697 -10.1687 -10.1678 -10.1676 -10.1671 -10.1648 -10.1645 -10.1643
-10.1643 -10.1642 -10.1641 -10.1640 -10.1639 -10.1639 -10.1639 -10.1638
-10.1638 -10.1637 -10.1636 -10.1634 -10.1634 -10.1631 -10.1627 -10.1621
-10.1598 -10.1580 -10.1577 -10.1577 -10.1576 -10.1575 -10.1575 -10.1575
-10.1575 -10.1574 -10.1574 -10.1573 -10.1573 -10.1573 -10.1572 -10.1571
-10.1570 -10.1567 -10.1565 -10.1563 -10.1562 -10.1559 -10.1501  -0.9906
 -0.9877  -0.8543  -0.8294  -0.8282  -0.8265  -0.8243  -0.8217  -0.8184
 -0.8147  -0.8104  -0.8060  -0.8022  -0.7999  -0.7749  -0.7696  -0.7632
 -0.7570  -0.7513  -0.7463  -0.7447  -0.7376  -0.7307  -0.7248  -0.7202
 -0.7174  -0.6889  -0.6856  -0.6852  -0.6851  -0.6844  -0.6834  -0.6818
 -0.6794  -0.6758  -0.6710  -0.6657  -0.6546  -0.6455  -0.6406  -0.6316
 -0.6218  -0.6122  -0.6035  -0.5968  -0.5927  -0.5877  -0.5832  -0.5803
 -0.5766  -0.5482  -0.5202  -0.5197  -0.5189  -0.5179  -0.5168  -0.5153
 -0.5134  -0.5113  -0.5096  -0.5086  -0.5045  -0.4869  -0.4765  -0.4762
 -0.4753  -0.4748  -0.4742  -0.4734  -0.4710  -0.4670  -0.4631  -0.4617
 -0.4609  -0.4446  -0.4437  -0.4430  -0.4416  -0.4392  -0.4364  -0.4341
 -0.4328  -0.4297  -0.4285  -0.4276  -0.4257  -0.4222  -0.4189  -0.4164
 -0.4151  -0.4142  -0.4140  -0.4119  -0.4104  -0.4092  -0.4085  -0.4074
 -0.4060  -0.4053  -0.4005  -0.4001  -0.3994  -0.3992  -0.3986  -0.3950
 -0.3917  -0.3899  -0.3894  -0.3882  -0.3863  -0.3813  -0.3773  -0.3720
 -0.3708  -0.3704  -0.3699  -0.3697  -0.3690  -0.3681  -0.3674  -0.3671
 -0.3668  -0.3662  -0.3642  -0.3636  -0.3627  -0.3617  -0.3604  -0.3592
 -0.3585  -0.3575  -0.3558  -0.3537  -0.3520  -0.3516  -0.3479  -0.3466
 -0.3425  -0.3380  -0.3357  -0.3347  -0.3335  -0.3330  -0.3327  -0.3316
 -0.3313  -0.3296  -0.3260  -0.3252  -0.3249  -0.3243  -0.3238  -0.3203
 -0.3154  -0.3110  -0.3076  -0.3055  -0.2505  -0.2493  -0.2492  -0.2478
 -0.2462  -0.2439  -0.2420  -0.2405  -0.2366  -0.2324  -0.2295  -0.2284
 -0.2248  -0.2221  -0.2202

          Ground-State Mulliken Net Atomic Charges

     Atom                 Charge (a.u.)    Spin (a.u.)
  --------------------------------------------------------
      1 C                     0.148751       0.032478
      2 C                    -0.523517       0.024993
      3 C                    -0.455692       0.027335
      4 C                    -0.169125      -0.001278
      5 C                     0.150203       0.012534
      6 C                     0.032964       0.031044
      7 C                    -0.687718       0.118956
      8 C                     0.702060       0.099302
      9 C                     0.800701       0.089856
     10 C                    -0.821381       0.110883
     11 O                    -0.512566       0.219501
     12 O                    -0.487710       0.216733
     13 H                     0.196451      -0.002121
     14 H                     0.201070      -0.002193
     15 C                    -0.512601      -0.001195
     16 H                     0.181784      -0.002382
     17 H                     0.179456      -0.002346
     18 H                     0.188495       0.006360
     19 H                     0.178492      -0.001788
     20 H                     0.173214       0.004638
     21 C                    -0.046203       0.012932
     22 C                    -0.769817       0.003910
     23 C                     0.953259       0.002116
     24 C                    -0.754289      -0.000651
     25 C                    -0.303401      -0.000033
     26 C                    -0.410785       0.000317
     27 C                     0.660384      -0.000107
     28 C                    -0.802015      -0.002678
     29 C                    -0.540116       0.000122
     30 C                    -0.266978      -0.000021
     31 C                    -0.356936       0.000006
     32 C                     0.499135       0.000008
     33 C                    -0.707461      -0.000013
     34 C                    -0.734632       0.000001
     35 C                    -0.404659       0.000001
     36 C                    -0.310236      -0.000001
     37 C                    -0.333517      -0.000000
     38 C                     0.493615       0.000000
     39 C                    -0.727240       0.000000
     40 C                    -0.421335       0.000000
     41 C                    -0.301815      -0.000000
     42 C                    -0.327191       0.000000
     43 C                     0.494775       0.000000
     44 C                    -0.729134      -0.000000
     45 C                    -0.423805      -0.000000
     46 C                    -0.304098       0.000000
     47 C                    -0.322528       0.000000
     48 C                     0.486744       0.000000
     49 C                    -0.730291       0.000000
     50 C                    -0.421758      -0.000000
     51 C                    -0.303663       0.000000
     52 C                    -0.313399      -0.000000
     53 C                     0.499151       0.000000
     54 C                    -0.731529       0.000000
     55 C                    -0.448079      -0.000000
     56 H                     0.210987       0.002810
     57 H                     0.186778      -0.000026
     58 H                     0.234418      -0.000209
     59 H                     0.160272       0.000281
     60 H                     0.138563      -0.000468
     61 H                     0.157910       0.000074
     62 H                     0.141814       0.000248
     63 H                     0.192326      -0.000025
     64 H                     0.111715       0.000239
     65 H                     0.180064       0.000090
     66 H                     0.178375      -0.000198
     67 H                     0.143163      -0.000000
     68 H                     0.185929      -0.000000
     69 H                     0.154492       0.000011
     70 H                     0.133145       0.000001
     71 H                     0.202889      -0.000000
     72 H                     0.132421      -0.000038
     73 H                     0.168668       0.000002
     74 H                     0.175561      -0.000004
     75 H                     0.138973      -0.000002
     76 H                     0.170228       0.000000
     77 H                     0.174624       0.000000
     78 H                     0.145204       0.000000
     79 H                     0.181160       0.000000
     80 H                     0.144209      -0.000000
     81 H                     0.134350      -0.000000
     82 H                     0.201815      -0.000000
     83 H                     0.138829       0.000000
     84 H                     0.169715       0.000000
     85 H                     0.174624       0.000000
     86 H                     0.145291       0.000000
     87 H                     0.180601       0.000000
     88 H                     0.144999      -0.000000
     89 H                     0.134056       0.000000
     90 H                     0.200330       0.000000
     91 H                     0.137961      -0.000000
     92 H                     0.169975       0.000000
     93 H                     0.175043       0.000000
     94 H                     0.145366      -0.000000
     95 H                     0.182198      -0.000000
     96 H                     0.144789      -0.000000
     97 H                     0.133719      -0.000000
     98 H                     0.201838       0.000000
     99 H                     0.138351      -0.000000
    100 H                     0.169986       0.000000
    101 H                     0.174625      -0.000000
    102 H                     0.145270       0.000000
    103 H                     0.180882       0.000000
    104 H                     0.145018       0.000000
    105 H                     0.133966       0.000000
    106 H                     0.201413       0.000000
    107 H                     0.137895       0.000000
    108 H                     0.169918       0.000000
    109 H                     0.175616       0.000000
    110 H                     0.146744      -0.000000
    111 H                     0.176005       0.000000
    112 C                    -0.285251       0.000000
    113 C                    -0.411784       0.000000
    114 C                     0.547847      -0.000000
    115 C                    -0.724926      -0.000000
    116 C                    -0.407468       0.000000
    117 C                    -0.232297       0.000000
    118 C                    -0.202092       0.000000
    119 C                     0.460637       0.000000
    120 C                    -0.767664       0.000000
    121 C                    -0.595642      -0.000000
    122 C                    -0.280127       0.000000
    123 C                     0.007966      -0.000000
    124 C                     0.287764       0.000000
    125 C                    -0.702354       0.000000
    126 C                    -0.640324      -0.000000
    127 H                     0.140560       0.000000
    128 H                     0.135269       0.000000
    129 H                     0.196348       0.000000
    130 H                     0.139303       0.000000
    131 H                     0.170087       0.000000
    132 H                     0.174100       0.000000
    133 H                     0.140237       0.000000
    134 H                     0.186084      -0.000000
    135 H                     0.152141       0.000000
    136 H                     0.130286      -0.000000
    137 H                     0.216643       0.000000
    138 H                     0.135177      -0.000000
    139 H                     0.171392       0.000000
    140 H                     0.176240       0.000000
    141 H                     0.144706       0.000000
    142 H                     0.170842       0.000000
    143 H                     0.144684      -0.000000
    144 H                     0.131440       0.000000
    145 H                     0.203867       0.000000
    146 H                     0.147310       0.000000
    147 H                     0.153442      -0.000000
    148 H                     0.155532      -0.000000
    149 H                     0.158392       0.000000
    150 H                     0.158673      -0.000000
    151 H                     0.154395      -0.000000
  --------------------------------------------------------
  Sum of atomic charges =    -1.000000

                    Cartesian Multipole Moments
 -----------------------------------------------------------------
    Charge (ESU x 10^10)
                -4.8032
    Dipole Moment (Debye)
         X      88.4011      Y      -8.1261      Z      -1.6569
       Tot      88.7893
    Quadrupole Moments (Debye-Ang)
        XX   -2024.3859     XY     147.6705     YY    -414.9177
        XZ      29.6675     YZ     -20.1099     ZZ    -423.7605

 Total job time:  12446.38s(wall), 87253.71s(cpu)
        *  Thank you very much for using Q-Chem.  Have a nice day.  *
