 Q-Chem 5.4, Q-Chem, Inc., Pleasanton, CA (2021)
 Q-Chem 5.4.0 for Intel X86 EM64T Linux

User input:
--------------------------------------------------------------
$molecule
0 1
C                  0.0805730000      1.8262940000     -2.1014110000
C                 -1.3630410000      1.8894910000     -1.7620660000
C                 -2.0704220000      0.7856540000     -1.4900340000
C                 -1.4379250000     -0.5565930000     -1.5203250000
C                  0.0011540000     -0.6260160000     -1.8742530000
C                  0.7247190000      0.4761720000     -2.1278400000
O                  0.7113500000      2.8358310000     -2.3619320000
O                 -2.0749820000     -1.5642160000     -1.2620920000
C                  3.2377370000      0.8373100000     -1.6081940000
C                  4.5619150000      0.8955960000     -2.0665720000
C                  2.9520350000      1.1817490000     -0.2814030000
C                  3.9743760000      1.5771240000      0.5763640000
C                  5.5791830000      1.2975000000     -1.2115010000
C                  5.2868970000      1.6377840000      0.1114320000
H                 -1.7990770000      2.8824960000     -1.7564320000
H                 -3.1256500000      0.8109130000     -1.2415440000
H                  0.4327180000     -1.6207680000     -1.9110720000
H                  4.7679130000      0.6248200000     -3.0947700000
H                  1.9345330000      1.1335130000      0.0883660000
H                  3.7481000000      1.8385280000      1.6034820000
H                  6.6004550000      1.3473510000     -1.5711920000
H                  6.0826390000      1.9503240000      0.7783040000
C                  2.1803350000      0.3839490000     -2.5499750000
O                  2.4299850000     -0.0799070000     -3.6451790000
$end

$rem
BASIS  =  6-311++G(d,p)
GUI  =  2
JOB_TYPE  =  SP
METHOD  =  B3LYP
SCF_CONVERGENCE  = 8
SOLVENT_METHOD = sm12
$end

$smx
solvent dimethylformamide
charges CM5
$end

--------------------------------------------------------------

             Standard Nuclear Orientation (Angstroms)
    I     Atom           X                Y                Z
 ----------------------------------------------------------------
    1      C       0.0805730000     1.8262940000    -2.1014110000
    2      C      -1.3630410000     1.8894910000    -1.7620660000
    3      C      -2.0704220000     0.7856540000    -1.4900340000
    4      C      -1.4379250000    -0.5565930000    -1.5203250000
    5      C       0.0011540000    -0.6260160000    -1.8742530000
    6      C       0.7247190000     0.4761720000    -2.1278400000
    7      O       0.7113500000     2.8358310000    -2.3619320000
    8      O      -2.0749820000    -1.5642160000    -1.2620920000
    9      C       3.2377370000     0.8373100000    -1.6081940000
   10      C       4.5619150000     0.8955960000    -2.0665720000
   11      C       2.9520350000     1.1817490000    -0.2814030000
   12      C       3.9743760000     1.5771240000     0.5763640000
   13      C       5.5791830000     1.2975000000    -1.2115010000
   14      C       5.2868970000     1.6377840000     0.1114320000
   15      H      -1.7990770000     2.8824960000    -1.7564320000
   16      H      -3.1256500000     0.8109130000    -1.2415440000
   17      H       0.4327180000    -1.6207680000    -1.9110720000
   18      H       4.7679130000     0.6248200000    -3.0947700000
   19      H       1.9345330000     1.1335130000     0.0883660000
   20      H       3.7481000000     1.8385280000     1.6034820000
   21      H       6.6004550000     1.3473510000    -1.5711920000
   22      H       6.0826390000     1.9503240000     0.7783040000
   23      C       2.1803350000     0.3839490000    -2.5499750000
   24      O       2.4299850000    -0.0799070000    -3.6451790000
 ----------------------------------------------------------------

   15    -726.0250100172      6.90e-09  Convergence criterion met
 Total energy in the final basis set =     -726.0495697628

                    Orbital Energies (a.u.)
 --------------------------------------------------------------

 Alpha MOs
 -- Occupied --
-19.1472 -19.1446 -19.1355 -10.2949 -10.2898 -10.2885 -10.2286 -10.2208
-10.2152 -10.2142 -10.2018 -10.1990 -10.1946 -10.1937 -10.1908 -10.1900
 -1.0800  -1.0738  -1.0694  -0.8795  -0.8721  -0.8106  -0.7793  -0.7667
 -0.7210  -0.6770  -0.6399  -0.6269  -0.6171  -0.5715  -0.5369  -0.5318
 -0.5105  -0.4960  -0.4798  -0.4767  -0.4622  -0.4567  -0.4486  -0.4471
 -0.4403  -0.4392  -0.4251  -0.4194  -0.4111  -0.3783  -0.3764  -0.3617
 -0.3208  -0.3108  -0.2970  -0.2946  -0.2767  -0.2739  -0.2701

          Ground-State Mulliken Net Atomic Charges

     Atom                 Charge (a.u.)
  ----------------------------------------
      1 C                    -1.225167
      2 C                     0.471882
      3 C                     0.810671
      4 C                    -0.933328
      5 C                     0.760781
      6 C                     0.661021
      7 O                    -0.310146
      8 O                    -0.322694
      9 C                     0.163108
     10 C                    -0.291879
     11 C                    -0.639146
     12 C                     0.036990
     13 C                    -0.232142
     14 C                     0.106421
     15 H                     0.345333
     16 H                     0.349909
     17 H                     0.319903
     18 H                     0.195807
     19 H                     0.236698
     20 H                     0.292440
     21 H                     0.280345
     22 H                     0.289483
     23 C                    -1.069136
     24 O                    -0.297151
  ----------------------------------------
  Sum of atomic charges =     0.000000

                    Cartesian Multipole Moments
 -----------------------------------------------------------------
    Charge (ESU x 10^10)
                 0.0000
    Dipole Moment (Debye)
         X       0.6038      Y       1.8487      Z       3.5445
       Tot       4.0430
    Quadrupole Moments (Debye-Ang)
        XX     -74.6261     XY      -4.9352     YY    -100.4277
        XZ      10.4673     YZ       3.2121     ZZ    -104.2447

 Total job time:  424.65s(wall), 3319.21s(cpu)
        *  Thank you very much for using Q-Chem.  Have a nice day.  *
