 Gaussian 16, Revision A.03,
 Gaussian 16:  ES64L-G16RevA.03 25-Dec-2016

 --------------------------------------
 #P UB3LYP/6-311++G(d,p) nosym opt freq
 --------------------------------------

 -------
 Reduced
 -------
 Symbolic Z-matrix:
 Charge = -2 Multiplicity = 1

 SCF Done:  E(UB3LYP) =  -817.248639195     A.U. after   25 cycles
 SCF Done:  E(UB3LYP) =  -817.248638851     A.U. after   16 cycles
 SCF Done:  E(UB3LYP) =  -817.248639057     A.U. after   15 cycles
 SCF Done:  E(UB3LYP) =  -817.248639251     A.U. after   12 cycles
 SCF Done:  E(UB3LYP) =  -817.248639269     A.U. after   12 cycles
 Optimization completed.
    -- Stationary point found.
 Normal termination of Gaussian 16 at Wed Jan 10 17:11:40 2024.

 ----------------------------------------------------------------------
 #P Geom=AllCheck Guess=TCheck SCRF=Check GenChk UB3LYP/6-311++G(d,p) F
 req
 ----------------------------------------------------------------------

 Structure from the checkpoint file:  "099-an.chk"
 -------
 Reduced
 -------
 Charge = -2 Multiplicity = 1

                          Input orientation:
 ---------------------------------------------------------------------
 Center     Atomic      Atomic             Coordinates (Angstroms)
 Number     Number       Type             X           Y           Z
 ---------------------------------------------------------------------
      1          6           0       -0.130295   -0.815598    1.509420
      2          6           0       -0.183222   -0.748401    0.043947
      3          6           0       -0.675946   -1.855086   -0.690945
      4          6           0       -1.165443   -3.059197   -0.123217
      5          6           0       -1.108574   -3.093956    1.332580
      6          6           0       -0.628418   -2.057699    2.082192
      7          8           0        0.356429    0.080297    2.248076
      8          8           0       -1.642314   -4.048938   -0.790686
      9          6           0        0.467954    0.350214   -0.657012
     10          1           0       -1.481486   -4.000777    1.809070
     11          1           0       -0.746335   -1.777534   -1.773112
     12          1           0       -0.608087   -2.110392    3.169370
     13          6           0        0.423000    1.764735   -0.356435
     14          6           0        1.289104    2.665204   -1.029888
     15          6           0        2.123133    2.252532   -2.043350
     16          6           0        2.112351    0.892594   -2.431438
     17          6           0        1.304807    0.000054   -1.752140
     18          7           0       -0.560288    2.366674    0.467130
     19          8           0       -0.571273    3.642711    0.578115
     20          8           0       -1.412959    1.663696    1.037027
     21          1           0        1.241739    3.702040   -0.727464
     22          1           0        2.778174    2.967019   -2.535747
     23          1           0        2.770510    0.536238   -3.220233
     24          1           0        1.354283   -1.052480   -2.005032
 ---------------------------------------------------------------------

 SCF Done:  E(UB3LYP) =  -817.248639269     A.U. after    2 cycles

 Alpha  occ. eigenvalues --  -18.86914 -18.85748 -18.81028 -18.78976 -14.24634
 Alpha  occ. eigenvalues --   -9.97321  -9.96309  -9.95323  -9.95226  -9.95179
 Alpha  occ. eigenvalues --   -9.94876  -9.94852  -9.94617  -9.91828  -9.91551
 Alpha  occ. eigenvalues --   -9.91163  -9.88840  -0.92068  -0.74654  -0.72962
 Alpha  occ. eigenvalues --   -0.70238  -0.63332  -0.56405  -0.55275  -0.53091
 Alpha  occ. eigenvalues --   -0.48058  -0.44398  -0.41797  -0.38086  -0.34843
 Alpha  occ. eigenvalues --   -0.33544  -0.30634  -0.28158  -0.25263  -0.24486
 Alpha  occ. eigenvalues --   -0.24155  -0.21650  -0.21360  -0.20767  -0.19543
 Alpha  occ. eigenvalues --   -0.19251  -0.17088  -0.14523  -0.13951  -0.13187
 Alpha  occ. eigenvalues --   -0.12678  -0.12337  -0.10369  -0.09621  -0.08834
 Alpha  occ. eigenvalues --   -0.04383  -0.03815  -0.02814  -0.02620  -0.00962
 Alpha  occ. eigenvalues --    0.00064   0.02081   0.02743   0.03772   0.11259
 Alpha virt. eigenvalues --    0.15216   0.16103   0.17184   0.18253   0.19749
 Alpha virt. eigenvalues --    0.20308   0.20511   0.21318   0.22194   0.24056
 Alpha virt. eigenvalues --    0.24450   0.25159   0.25817   0.25931   0.26891

  Beta  occ. eigenvalues --  -18.86914 -18.85748 -18.81028 -18.78976 -14.24634
  Beta  occ. eigenvalues --   -9.97321  -9.96309  -9.95323  -9.95226  -9.95179
  Beta  occ. eigenvalues --   -9.94876  -9.94852  -9.94617  -9.91828  -9.91551
  Beta  occ. eigenvalues --   -9.91163  -9.88840  -0.92068  -0.74654  -0.72962
  Beta  occ. eigenvalues --   -0.70238  -0.63332  -0.56405  -0.55275  -0.53091
  Beta  occ. eigenvalues --   -0.48058  -0.44398  -0.41797  -0.38086  -0.34843
  Beta  occ. eigenvalues --   -0.33544  -0.30634  -0.28158  -0.25263  -0.24486
  Beta  occ. eigenvalues --   -0.24155  -0.21650  -0.21360  -0.20767  -0.19543
  Beta  occ. eigenvalues --   -0.19251  -0.17088  -0.14523  -0.13951  -0.13187
  Beta  occ. eigenvalues --   -0.12678  -0.12337  -0.10369  -0.09621  -0.08833
  Beta  occ. eigenvalues --   -0.04383  -0.03815  -0.02814  -0.02620  -0.00962
  Beta  occ. eigenvalues --    0.00064   0.02081   0.02743   0.03772   0.11259
  Beta virt. eigenvalues --    0.15216   0.16103   0.17184   0.18253   0.19749
  Beta virt. eigenvalues --    0.20308   0.20511   0.21318   0.22194   0.24056
  Beta virt. eigenvalues --    0.24450   0.25159   0.25817   0.25931   0.26891

 Mulliken charges and spin densities:
               1          2
     1  C   -1.792342   0.000000
     2  C    2.021859   0.000000
     3  C   -0.543779  -0.000000
     4  C   -0.600381   0.000000
     5  C    0.018199   0.000000
     6  C    0.268015   0.000000
     7  O   -0.383595   0.000001
     8  O   -0.535641   0.000000
     9  C    1.544653  -0.000000
    10  H    0.096142  -0.000000
    11  H    0.116346  -0.000000
    12  H    0.102868  -0.000000
    13  C   -0.266374  -0.000000
    14  C   -0.395630  -0.000000
    15  C   -0.473063   0.000000
    16  C   -0.451446  -0.000000
    17  C   -0.715623   0.000000
    18  N   -0.339501  -0.000000
    19  O   -0.154970  -0.000000
    20  O   -0.062183  -0.000000
    21  H    0.212764   0.000000
    22  H    0.091733  -0.000000
    23  H    0.090752   0.000000
    24  H    0.151197  -0.000000
 Sum of Mulliken charges =  -2.00000  -0.00000

 Dipole moment (field-independent basis, Debye):
    X=              5.3365    Y=              3.3555    Z=             -2.8626  Tot=              6.9233
 Quadrupole moment (field-independent basis, Debye-Ang):
   XX=           -125.5676   YY=           -193.2312   ZZ=           -129.9965
   XY=            -17.1009   XZ=              0.8169   YZ=            -12.6458

  Exact polarizability: 181.767  76.842 407.093 -56.387 -50.185 226.871
 Approx polarizability: 308.744 194.3491149.407-114.925-167.365 419.388

                      1                      2                      3
                      A                      A                      A
 Frequencies --     42.0480                67.2149                94.3340
 Red. masses --     10.1552                 5.3575                 6.5472
 Frc consts  --      0.0106                 0.0143                 0.0343
 IR Inten    --      1.3594                 3.3905                 1.4397

                      4                      5                      6
                      A                      A                      A
 Frequencies --    106.0172               142.5557               172.7078
 Red. masses --      6.2840                 6.3122                12.2167
 Frc consts  --      0.0416                 0.0756                 0.2147
 IR Inten    --      2.8820                 2.4758                 3.5174

                      7                      8                      9
                      A                      A                      A
 Frequencies --    197.7646               261.8741               275.5838
 Red. masses --      9.3613                 7.3706                 6.9937
 Frc consts  --      0.2157                 0.2978                 0.3129
 IR Inten    --      0.7201                 0.3141                 0.9238

                     10                     11                     12
                      A                      A                      A
 Frequencies --    320.7708               347.8004               398.9395
 Red. masses --      7.0752                 5.5666                 9.8489
 Frc consts  --      0.4289                 0.3967                 0.9235
 IR Inten    --      2.8373                 0.1645                 3.5520

                     13                     14                     15
                      A                      A                      A
 Frequencies --    420.3870               441.7252               454.4923
 Red. masses --      5.7348                 4.1473                 6.5363
 Frc consts  --      0.5971                 0.4768                 0.7955
 IR Inten    --     33.9011                 3.3792                76.9938

                     16                     17                     18
                      A                      A                      A
 Frequencies --    476.9714               521.3675               546.4495
 Red. masses --      6.7733                 2.9335                 5.6375
 Frc consts  --      0.9079                 0.4698                 0.9918
 IR Inten    --     63.5159                 7.3827                 4.2840

                     19                     20                     21
                      A                      A                      A
 Frequencies --    575.0489               612.1686               638.6913
 Red. masses --      4.7872                 3.0598                 5.9398
 Frc consts  --      0.9327                 0.6756                 1.4276
 IR Inten    --      3.6741                16.3697                 1.4127

                     22                     23                     24
                      A                      A                      A
 Frequencies --    649.8248               665.4920               714.4853
 Red. masses --      5.5587                 6.5358                 7.2982
 Frc consts  --      1.3830                 1.7054                 2.1951
 IR Inten    --     17.3111                 7.7581                25.5093

                     25                     26                     27
                      A                      A                      A
 Frequencies --    723.6098               729.5131               749.1701
 Red. masses --      1.9330                 2.5180                 2.0133
 Frc consts  --      0.5963                 0.7895                 0.6657
 IR Inten    --     58.9933                15.2520                 3.0624

                     28                     29                     30
                      A                      A                      A
 Frequencies --    805.9886               818.5677               823.9362
 Red. masses --      1.7696                 3.4707                 2.8661
 Frc consts  --      0.6773                 1.3702                 1.1464
 IR Inten    --      9.6439                36.9607                 7.5312

                     31                     32                     33
                      A                      A                      A
 Frequencies --    826.3011               840.4476               891.7130
 Red. masses --      6.0713                 1.9863                 4.9277
 Frc consts  --      2.4424                 0.8266                 2.3086
 IR Inten    --     18.7960                45.7638                 4.7370

                     34                     35                     36
                      A                      A                      A
 Frequencies --    940.2522               944.7332               951.6057
 Red. masses --      1.2908                 1.2711                 1.3648
 Frc consts  --      0.6723                 0.6684                 0.7282
 IR Inten    --      3.3794                 3.4257                 0.6229

                     37                     38                     39
                      A                      A                      A
 Frequencies --    995.8383              1038.1514              1083.1741
 Red. masses --      3.2263                 2.2971                 3.2390
 Frc consts  --      1.8851                 1.4587                 2.2390
 IR Inten    --     34.0813                71.7657               104.2256

                     40                     41                     42
                      A                      A                      A
 Frequencies --   1095.7326              1143.0581              1162.5127
 Red. masses --      1.7489                 1.5544                 1.4232
 Frc consts  --      1.2372                 1.1966                 1.1332
 IR Inten    --     63.5458               264.3390                93.4735

                     43                     44                     45
                      A                      A                      A
 Frequencies --   1177.4281              1229.2362              1229.6363
 Red. masses --      2.0195                 2.2728                 2.8267
 Frc consts  --      1.6495                 2.0234                 2.5182
 IR Inten    --    473.0690               461.6027               659.9181

                     46                     47                     48
                      A                      A                      A
 Frequencies --   1252.3016              1278.1018              1325.3349
 Red. masses --      2.0321                 3.2626                 2.7986
 Frc consts  --      1.8777                 3.1401                 2.8962
 IR Inten    --    379.9933               289.5331                33.6132

                     49                     50                     51
                      A                      A                      A
 Frequencies --   1346.7768              1403.7527              1409.3954
 Red. masses --      4.1218                 6.9486                 4.7493
 Frc consts  --      4.4048                 8.0674                 5.5583
 IR Inten    --    150.1712               147.4839                30.3622

                     52                     53                     54
                      A                      A                      A
 Frequencies --   1427.5980              1455.7882              1474.0736
 Red. masses --      2.8525                 3.9894                 3.4283
 Frc consts  --      3.4252                 4.9814                 4.3891
 IR Inten    --     77.7972                46.0098               209.6529

                     55                     56                     57
                      A                      A                      A
 Frequencies --   1481.6998              1526.6125              1554.7018
 Red. masses --      3.4350                 6.4203                 7.0133
 Frc consts  --      4.4432                 8.8158                 9.9878
 IR Inten    --    114.4214               189.1574               271.9546

                     58                     59                     60
                      A                      A                      A
 Frequencies --   1592.4104              1618.9404              3089.7891
 Red. masses --      5.2091                 6.4792                 1.0842
 Frc consts  --      7.7826                10.0053                 6.0984
 IR Inten    --    140.3668               343.4084                63.7304

                     61                     62                     63
                      A                      A                      A
 Frequencies --   3112.2479              3121.2129              3126.0539
 Red. masses --      1.0835                 1.0919                 1.0887
 Frc consts  --      6.1837                 6.2675                 6.2681
 IR Inten    --     44.8929               147.9260                43.3934

                     64                     65                     66
                      A                      A                      A
 Frequencies --   3134.7451              3175.8592              3207.9226
 Red. masses --      1.0920                 1.0908                 1.0906
 Frc consts  --      6.3221                 6.4819                 6.6126
 IR Inten    --    103.6493                20.4399                14.1648

 - Thermochemistry -
 -------------------
 Temperature   298.150 Kelvin.  Pressure   1.00000 Atm.
 Atom     1 has atomic number  6 and mass  12.00000

 Molecular mass:   229.03751 amu.
 Principal axes and moments of inertia in atomic units:
                           1         2         3
     Eigenvalues --  2216.108735038.608396422.07574
           X            0.31321  -0.42803   0.84776
           Y            0.92882   0.32415  -0.17950
           Z           -0.19797   0.84364   0.49909
 This molecule is an asymmetric top.
 Rotational symmetry number  1.
 Warning -- assumption of classical behavior for rotation
           may cause significant error
 Rotational temperatures (Kelvin)      0.03908     0.01719     0.01349
 Rotational constants (GHZ):           0.81437     0.35818     0.28102
 Zero-point vibrational energy     427429.5 (Joules/Mol)
                                  102.15811 (Kcal/Mol)
 Warning -- explicit consideration of  20 degrees of freedom as
           vibrations may cause significant error
 Vibrational temperatures:     60.50    96.71   135.73   152.54   205.11
          (Kelvin)            248.49   284.54   376.78   396.50   461.52
                              500.41   573.98   604.84   635.54   653.91
                              686.26   750.13   786.22   827.37   880.77
                              918.93   934.95   957.49  1027.99  1041.11
                             1049.61  1077.89  1159.64  1177.74  1185.46
                             1188.86  1209.22  1282.98  1352.81  1359.26
                             1369.15  1432.79  1493.67  1558.45  1576.51
                             1644.61  1672.60  1694.06  1768.60  1769.17
                             1801.78  1838.90  1906.86  1937.71  2019.69
                             2027.81  2054.00  2094.55  2120.86  2131.84
                             2196.45  2236.87  2291.12  2329.29  4445.52
                             4477.83  4490.73  4497.69  4510.20  4569.35
                             4615.49

 Zero-point correction=                           0.162799 (Hartree/Particle)
 Thermal correction to Energy=                    0.176026
 Thermal correction to Enthalpy=                  0.176970
 Thermal correction to Gibbs Free Energy=         0.122417
 Sum of electronic and zero-point Energies=           -817.085840
 Sum of electronic and thermal Energies=              -817.072613
 Sum of electronic and thermal Enthalpies=            -817.071669
 Sum of electronic and thermal Free Energies=         -817.126222

                     E (Thermal)             CV                S
                      KCal/Mol        Cal/Mol-Kelvin    Cal/Mol-Kelvin
 Total                  110.458             52.009            114.817
 Electronic               0.000              0.000              0.000
 Translational            0.889              2.981             42.188
 Rotational               0.889              2.981             32.639
 Vibrational            108.681             46.047             39.990
 Vibration     1          0.595              1.980              5.160
 Vibration     2          0.598              1.970              4.233
 Vibration     3          0.603              1.953              3.568
 Vibration     4          0.605              1.944              3.341
 Vibration     5          0.616              1.911              2.769
 Vibration     6          0.626              1.876              2.406
 Vibration     7          0.637              1.843              2.154
 Vibration     8          0.669              1.743              1.649
 Vibration     9          0.677              1.719              1.561
 Vibration    10          0.706              1.634              1.306
 Vibration    11          0.725              1.580              1.176
 Vibration    12          0.765              1.472              0.967
 Vibration    13          0.783              1.426              0.891
 Vibration    14          0.801              1.379              0.821
 Vibration    15          0.813              1.351              0.782
 Vibration    16          0.834              1.301              0.718
 Vibration    17          0.876              1.203              0.607
 Vibration    18          0.902              1.147              0.552
 Vibration    19          0.931              1.085              0.495
 Vibration    20          0.971              1.006              0.429

 Optimization completed.
    -- Stationary point found.
 Normal termination of Gaussian 16 at Wed Jan 10 18:02:22 2024.
