 Gaussian 16, Revision A.03,
 Gaussian 16:  ES64L-G16RevA.03 25-Dec-2016

 ----------------------------------------------------------------
 #P UB3LYP/6-311++G(d,p) SCRF=(PCM,Solvent=n,n-DiMethylFormamide)
 ----------------------------------------------------------------

 -------
 Reduced
 -------
 Symbolic Z-matrix:
 Charge = -2 Multiplicity = 1

                         Standard orientation:
 ---------------------------------------------------------------------
 Center     Atomic      Atomic             Coordinates (Angstroms)
 Number     Number       Type             X           Y           Z
 ---------------------------------------------------------------------
      1          6           0        1.152305   -1.033199    0.814114
      2          6           0        0.782032    0.150006    0.028079
      3          6           0        1.796142    0.948450   -0.556440
      4          6           0        3.188279    0.690101   -0.472674
      5          6           0        3.525305   -0.494713    0.306055
      6          6           0        2.583287   -1.286064    0.899908
      7          8           0        0.334728   -1.763438    1.433355
      8          8           0        4.104731    1.397644   -1.031248
      9          6           0       -0.595338    0.624498    0.034224
     10          1           0        4.585993   -0.732088    0.389859
     11          1           0        1.507226    1.799329   -1.168475
     12          1           0        2.866749   -2.170742    1.467482
     13          6           0       -1.814047   -0.141971   -0.108998
     14          6           0       -3.073085    0.468566    0.128883
     15          6           0       -3.190307    1.810972    0.406755
     16          6           0       -2.023091    2.608439    0.449321
     17          6           0       -0.789088    2.014656    0.262615
     18          7           0       -1.864448   -1.453742   -0.642067
     19          8           0       -3.009058   -1.998533   -0.825852
     20          8           0       -0.814317   -2.041044   -0.955611
     21          1           0       -3.943454   -0.168111    0.052514
     22          1           0       -4.169512    2.246797    0.589073
     23          1           0       -2.084938    3.669343    0.679578
     24          1           0        0.106033    2.616180    0.368241
 ---------------------------------------------------------------------

 SCF Done:  E(UB3LYP) =  -817.509907348     A.U. after   20 cycles

 The electronic state is 1-A.
 Alpha  occ. eigenvalues --  -19.11752 -19.10461 -19.04926 -19.03124 -14.49289
 Alpha  occ. eigenvalues --  -10.20884 -10.19926 -10.18628 -10.18562 -10.17097
 Alpha  occ. eigenvalues --  -10.17080 -10.16900 -10.16752 -10.15387 -10.14570
 Alpha  occ. eigenvalues --  -10.14196 -10.12576  -1.16866  -0.99409  -0.97111
 Alpha  occ. eigenvalues --   -0.94563  -0.86147  -0.79787  -0.78417  -0.75928
 Alpha  occ. eigenvalues --   -0.70938  -0.67627  -0.65229  -0.60749  -0.57733
 Alpha  occ. eigenvalues --   -0.56699  -0.53999  -0.51448  -0.48918  -0.48320
 Alpha  occ. eigenvalues --   -0.47705  -0.45189  -0.44447  -0.43824  -0.42969
 Alpha  occ. eigenvalues --   -0.41671  -0.39882  -0.37596  -0.37369  -0.36645
 Alpha  occ. eigenvalues --   -0.35832  -0.35153  -0.33749  -0.33172  -0.33104
 Alpha  occ. eigenvalues --   -0.28840  -0.28119  -0.26509  -0.25611  -0.25421
 Alpha  occ. eigenvalues --   -0.24008  -0.21582  -0.21393  -0.20671  -0.12881
 Alpha virt. eigenvalues --   -0.07765  -0.01864   0.00131   0.01033   0.01363
 Alpha virt. eigenvalues --    0.01709   0.02389   0.02750   0.02972   0.03886
 Alpha virt. eigenvalues --    0.04866   0.05192   0.05769   0.06228   0.06584

  Beta  occ. eigenvalues --  -19.11752 -19.10461 -19.04926 -19.03124 -14.49289
  Beta  occ. eigenvalues --  -10.20884 -10.19926 -10.18628 -10.18562 -10.17097
  Beta  occ. eigenvalues --  -10.17080 -10.16900 -10.16752 -10.15387 -10.14570
  Beta  occ. eigenvalues --  -10.14196 -10.12576  -1.16866  -0.99409  -0.97111
  Beta  occ. eigenvalues --   -0.94563  -0.86147  -0.79787  -0.78417  -0.75928
  Beta  occ. eigenvalues --   -0.70938  -0.67627  -0.65229  -0.60749  -0.57733
  Beta  occ. eigenvalues --   -0.56699  -0.53999  -0.51448  -0.48918  -0.48320
  Beta  occ. eigenvalues --   -0.47705  -0.45189  -0.44447  -0.43824  -0.42969
  Beta  occ. eigenvalues --   -0.41671  -0.39882  -0.37596  -0.37369  -0.36645
  Beta  occ. eigenvalues --   -0.35832  -0.35153  -0.33749  -0.33172  -0.33104
  Beta  occ. eigenvalues --   -0.28840  -0.28119  -0.26509  -0.25611  -0.25421
  Beta  occ. eigenvalues --   -0.24008  -0.21582  -0.21393  -0.20671  -0.12881
  Beta virt. eigenvalues --   -0.07765  -0.01864   0.00131   0.01033   0.01363
  Beta virt. eigenvalues --    0.01709   0.02389   0.02750   0.02972   0.03886
  Beta virt. eigenvalues --    0.04866   0.05192   0.05769   0.06228   0.06584

 Mulliken charges and spin densities:
               1          2
     1  C   -1.467560  -0.000000
     2  C    1.706631  -0.000000
     3  C   -0.593016  -0.000000
     4  C   -0.239493   0.000000
     5  C   -0.145863  -0.000000
     6  C    0.071113   0.000000
     7  O   -0.513452   0.000000
     8  O   -0.670431   0.000000
     9  C    1.360017   0.000000
    10  H    0.164026   0.000000
    11  H    0.156825  -0.000000
    12  H    0.163364  -0.000000
    13  C   -0.232280   0.000000
    14  C   -0.370951   0.000000
    15  C   -0.458124  -0.000000
    16  C   -0.484549  -0.000000
    17  C   -0.625564  -0.000000
    18  N   -0.299744   0.000000
    19  O   -0.188208   0.000000
    20  O   -0.126531   0.000000
    21  H    0.243023   0.000000
    22  H    0.184040  -0.000000
    23  H    0.181606   0.000000
    24  H    0.185119  -0.000000
 Sum of Mulliken charges =  -2.00000  -0.00000

 Dipole moment (field-independent basis, Debye):
    X=             -9.7028    Y=              6.5074    Z=              2.9646  Tot=             12.0532
 Quadrupole moment (field-independent basis, Debye-Ang):
   XX=           -179.7553   YY=           -133.8775   ZZ=           -120.3818
   XY=            -34.6882   XZ=              8.1836   YZ=              5.9513

 Normal termination of Gaussian 16 at Wed Jan 24 22:53:01 2024.
