 Gaussian 16, Revision A.03,
 Gaussian 16:  ES64L-G16RevA.03 25-Dec-2016

 --------------------------------------
 #P UB3LYP/6-311++G(d,p) nosym opt freq
 --------------------------------------

 --------
 Oxidized
 --------
 Symbolic Z-matrix:
 Charge =  0 Multiplicity = 1

 SCF Done:  E(UB3LYP) =  -5528.62622802     A.U. after   16 cycles
 SCF Done:  E(UB3LYP) =  -5528.63825142     A.U. after   14 cycles
 SCF Done:  E(UB3LYP) =  -5528.63946986     A.U. after   13 cycles
 SCF Done:  E(UB3LYP) =  -5528.63954929     A.U. after   11 cycles
 SCF Done:  E(UB3LYP) =  -5528.63955382     A.U. after   10 cycles
 SCF Done:  E(UB3LYP) =  -5528.63955369     A.U. after   10 cycles
 Optimization completed.
    -- Stationary point found.
 Normal termination of Gaussian 16 at Sun Dec 17 21:00:35 2023.

 ----------------------------------------------------------------------
 #P Geom=AllCheck Guess=TCheck SCRF=Check GenChk UB3LYP/6-311++G(d,p) F
 req
 ----------------------------------------------------------------------

 Structure from the checkpoint file:  "012.chk"
 --------
 Oxidized
 --------
 Charge =  0 Multiplicity = 1

                          Input orientation:
 ---------------------------------------------------------------------
 Center     Atomic      Atomic             Coordinates (Angstroms)
 Number     Number       Type             X           Y           Z
 ---------------------------------------------------------------------
      1         35           0       -2.703388   -1.876068   -0.095624
      2          6           0       -1.202512   -0.721090   -0.041441
      3          6           0       -1.338345    0.611088   -0.031085
      4          6           0       -0.153736    1.499797    0.010936
      5          8           0       -0.278019    2.712318    0.021039
      6          6           0        1.186552    0.869330    0.042330
      7          6           0        1.323973   -0.462712    0.032166
      8         35           0        3.027861   -1.289951    0.071925
      9          6           0        0.142955   -1.393994   -0.011382
     10          8           0        0.265849   -2.593803   -0.019651
     11          1           0       -2.303756    1.100780   -0.052678
     12          1           0        2.032566    1.544305    0.073464
 ---------------------------------------------------------------------

 SCF Done:  E(UB3LYP) =  -5528.63955369     A.U. after    1 cycles

 Alpha  occ. eigenvalues -- -482.86252-482.86251 -62.51519 -62.51518 -56.33572
 Alpha  occ. eigenvalues --  -56.33571 -56.33176 -56.33175 -56.33134 -56.33132
 Alpha  occ. eigenvalues --  -19.16926 -19.15890 -10.32280 -10.30819 -10.28630
 Alpha  occ. eigenvalues --  -10.28630 -10.23807 -10.23806  -8.72485  -8.72484
 Alpha  occ. eigenvalues --   -6.55679  -6.55677  -6.54353  -6.54352  -6.54228
 Alpha  occ. eigenvalues --   -6.54226  -2.66765  -2.66764  -2.66406  -2.66405
 Alpha  occ. eigenvalues --   -2.66311  -2.66309  -2.65256  -2.65254  -2.65254
 Alpha  occ. eigenvalues --   -2.65253  -1.10611  -1.08935  -0.90914  -0.87218
 Alpha  occ. eigenvalues --   -0.81567  -0.77732  -0.72989  -0.64716  -0.62865
 Alpha  occ. eigenvalues --   -0.55979  -0.53355  -0.49169  -0.48308  -0.47753
 Alpha  occ. eigenvalues --   -0.47130  -0.44785  -0.44413  -0.42548  -0.38158
 Alpha  occ. eigenvalues --   -0.36412  -0.32356  -0.32052  -0.31714  -0.30644
 Alpha  occ. eigenvalues --   -0.29884  -0.29249
 Alpha virt. eigenvalues --   -0.15885  -0.06189  -0.05311  -0.02500  -0.02491
 Alpha virt. eigenvalues --   -0.01081   0.00401   0.01698   0.02781   0.02793
 Alpha virt. eigenvalues --    0.04310   0.05040   0.05166   0.06541   0.06562

  Beta  occ. eigenvalues -- -482.86252-482.86251 -62.51519 -62.51518 -56.33572
  Beta  occ. eigenvalues --  -56.33571 -56.33176 -56.33175 -56.33134 -56.33132
  Beta  occ. eigenvalues --  -19.16926 -19.15890 -10.32280 -10.30819 -10.28630
  Beta  occ. eigenvalues --  -10.28630 -10.23807 -10.23806  -8.72485  -8.72484
  Beta  occ. eigenvalues --   -6.55679  -6.55677  -6.54353  -6.54352  -6.54228
  Beta  occ. eigenvalues --   -6.54226  -2.66765  -2.66764  -2.66406  -2.66405
  Beta  occ. eigenvalues --   -2.66311  -2.66309  -2.65256  -2.65254  -2.65254
  Beta  occ. eigenvalues --   -2.65253  -1.10611  -1.08935  -0.90914  -0.87218
  Beta  occ. eigenvalues --   -0.81567  -0.77732  -0.72989  -0.64716  -0.62865
  Beta  occ. eigenvalues --   -0.55979  -0.53355  -0.49169  -0.48308  -0.47753
  Beta  occ. eigenvalues --   -0.47130  -0.44785  -0.44413  -0.42548  -0.38158
  Beta  occ. eigenvalues --   -0.36412  -0.32356  -0.32052  -0.31714  -0.30644
  Beta  occ. eigenvalues --   -0.29884  -0.29249
  Beta virt. eigenvalues --   -0.15885  -0.06189  -0.05311  -0.02500  -0.02491
  Beta virt. eigenvalues --   -0.01081   0.00401   0.01698   0.02781   0.02793
  Beta virt. eigenvalues --    0.04310   0.05040   0.05166   0.06541   0.06562

 Mulliken charges and spin densities:
               1          2
     1  Br  -0.034490  -0.000000
     2  C    1.068377   0.000000
     3  C   -0.214452  -0.000000
     4  C   -0.334956   0.000000
     5  O   -0.221995  -0.000000
     6  C   -0.214159  -0.000000
     7  C    1.067901   0.000000
     8  Br  -0.034443   0.000000
     9  C   -1.532869  -0.000000
    10  O   -0.089232   0.000000
    11  H    0.270160   0.000000
    12  H    0.270157   0.000000
 Sum of Mulliken charges =  -0.00000   0.00000

 Dipole moment (field-independent basis, Debye):
    X=             -0.0433    Y=              0.4280    Z=              0.0014  Tot=              0.4302
 Quadrupole moment (field-independent basis, Debye-Ang):
   XX=            -75.4464   YY=            -96.2188   ZZ=            -80.9004
   XY=              2.1488   XZ=              0.1762   YZ=             -0.1012

  Exact polarizability: 138.589  -1.570 153.586   2.162   0.927  61.285
 Approx polarizability: 185.814 -14.129 321.991   2.405   1.988  95.251

                      1                      2                      3
                      A                      A                      A
 Frequencies --     48.7394               122.6878               127.5322
 Red. masses --     17.6630                10.0363                31.5996
 Frc consts  --      0.0247                 0.0890                 0.3028
 IR Inten    --      2.0857                 7.8296                 0.0712

                      4                      5                      6
                      A                      A                      A
 Frequencies --    160.5962               221.9352               265.6087
 Red. masses --      4.7851                14.2910                21.0261
 Frc consts  --      0.0727                 0.4147                 0.8740
 IR Inten    --      0.0000                 0.0168                 0.8342

                      7                      8                      9
                      A                      A                      A
 Frequencies --    274.0614               288.5716               429.6503
 Red. masses --     16.4951                 5.9026                 5.5856
 Frc consts  --      0.7300                 0.2896                 0.6075
 IR Inten    --      0.1061                 0.6106                 0.0019

                     10                     11                     12
                      A                      A                      A
 Frequencies --    438.4649               469.5158               617.4405
 Red. masses --      8.5354                13.0227                 5.9457
 Frc consts  --      0.9668                 1.6914                 1.3355
 IR Inten    --     34.2449                 0.0404                 3.6071

                     13                     14                     15
                      A                      A                      A
 Frequencies --    662.7360               705.5044               771.6212
 Red. masses --      3.9035                11.1945                11.4280
 Frc consts  --      1.0101                 3.2829                 4.0089
 IR Inten    --      1.2276                93.9802                 1.7667

                     16                     17                     18
                      A                      A                      A
 Frequencies --    779.9925               860.5597               883.6504
 Red. masses --      6.6893                 5.2349                 1.3153
 Frc consts  --      2.3978                 2.2841                 0.6051
 IR Inten    --      0.0394                 0.8080                 0.0001

                     19                     20                     21
                      A                      A                      A
 Frequencies --    920.6361               996.8771              1124.6359
 Red. masses --      1.4978                 4.6365                 2.8121
 Frc consts  --      0.7480                 2.7147                 2.0956
 IR Inten    --     45.4093               126.6319                 1.2719

                     22                     23                     24
                      A                      A                      A
 Frequencies --   1271.2461              1291.0016              1310.6827
 Red. masses --      6.6492                 1.4642                 1.9427
 Frc consts  --      6.3311                 1.4378                 1.9663
 IR Inten    --    234.5817                23.6028                 3.7875

                     25                     26                     27
                      A                      A                      A
 Frequencies --   1617.7369              1656.9784              1714.6027
 Red. masses --      9.0405                 8.7054                11.1436
 Frc consts  --     13.9398                14.0823                19.3021
 IR Inten    --    146.0079                23.9412               284.6587

                     28                     29                     30
                      A                      A                      A
 Frequencies --   1758.8091              3204.4557              3205.2067
 Red. masses --     13.2379                 1.0933                 1.0940
 Frc consts  --     24.1272                 6.6143                 6.6220
 IR Inten    --    179.1059                 0.5852                 0.7636

 - Thermochemistry -
 -------------------
 Temperature   298.150 Kelvin.  Pressure   1.00000 Atm.
 Atom     1 has atomic number 35 and mass  78.91834

 Molecular mass:   263.84215 amu.
 Principal axes and moments of inertia in atomic units:
                           1         2         3
     Eigenvalues --  1721.533574991.578226713.11165
           X            0.99439  -0.10195  -0.02814
           Y            0.10169   0.99476  -0.01047
           Z            0.02906   0.00755   0.99955
 This molecule is an asymmetric top.
 Rotational symmetry number  1.
 Warning -- assumption of classical behavior for rotation
           may cause significant error
 Rotational temperatures (Kelvin)      0.05031     0.01735     0.01290
 Rotational constants (GHZ):           1.04833     0.36156     0.26884
 Zero-point vibrational energy     168683.8 (Joules/Mol)
                                   40.31641 (Kcal/Mol)
 Warning -- explicit consideration of  12 degrees of freedom as
           vibrations may cause significant error
 Vibrational temperatures:     70.13   176.52   183.49   231.06   319.32
          (Kelvin)            382.15   394.31   415.19   618.17   630.85
                              675.53   888.36   953.53  1015.06  1110.19
                             1122.24  1238.15  1271.38  1324.59  1434.28
                             1618.10  1829.04  1857.46  1885.78  2327.56
                             2384.02  2466.93  2530.53  4610.50  4611.58

 Zero-point correction=                           0.064248 (Hartree/Particle)
 Thermal correction to Energy=                    0.073437
 Thermal correction to Enthalpy=                  0.074381
 Thermal correction to Gibbs Free Energy=         0.026981
 Sum of electronic and zero-point Energies=          -5528.575305
 Sum of electronic and thermal Energies=             -5528.566117
 Sum of electronic and thermal Enthalpies=           -5528.565172
 Sum of electronic and thermal Free Energies=        -5528.612573

                     E (Thermal)             CV                S
                      KCal/Mol        Cal/Mol-Kelvin    Cal/Mol-Kelvin
 Total                   46.083             31.661             99.763
 Electronic               0.000              0.000              0.000
 Translational            0.889              2.981             42.610
 Rotational               0.889              2.981             32.423
 Vibrational             44.305             25.699             24.731
 Vibration     1          0.595              1.978              4.868
 Vibration     2          0.610              1.930              3.058
 Vibration     3          0.611              1.926              2.983
 Vibration     4          0.622              1.891              2.543
 Vibration     5          0.648              1.808              1.943
 Vibration     6          0.671              1.736              1.625
 Vibration     7          0.676              1.721              1.570
 Vibration     8          0.685              1.695              1.482
 Vibration     9          0.791              1.406              0.860
 Vibration    10          0.799              1.386              0.831
 Vibration    11          0.827              1.318              0.739
 Vibration    12          0.977              0.995              0.421

 Optimization completed.
    -- Stationary point found.
 Normal termination of Gaussian 16 at Sun Dec 17 21:09:17 2023.
