 Q-Chem 5.4, Q-Chem, Inc., Pleasanton, CA (2021)
 Q-Chem 5.4.0 for Intel X86 EM64T Linux

User input:
--------------------------------------------------------------
$molecule
-1 2
C                 -4.5513480000      0.8946280000      0.3461130000
C                 -3.1974480000      0.2556570000      0.1795640000
C                 -3.0624850000     -1.1183940000     -0.0598810000
C                 -1.8186820000     -1.7198770000     -0.2151020000
O                 -1.7668570000     -3.0543970000     -0.4442890000
C                 -0.6369440000     -0.9345710000     -0.1318680000
C                  0.6580460000     -1.5440610000     -0.2906450000
O                  0.7613580000     -2.8193370000     -0.5119540000
C                  1.8359660000     -0.7194390000     -0.2005140000
C                  3.1290160000     -1.2947730000     -0.3532430000
O                  3.2909110000     -2.6201560000     -0.5852880000
C                  4.2585870000     -0.4890110000     -0.2643390000
C                  4.1439760000      0.8841950000     -0.0261630000
C                  2.8982920000      1.4817120000      0.1283450000
O                  2.8403430000      2.8162970000      0.3575400000
C                  1.7179180000      0.6894620000      0.0439670000
C                  0.4217910000      1.2971820000      0.2025290000
O                  0.3158150000      2.5735920000      0.4241760000
C                 -0.7570630000      0.4722550000      0.1124590000
C                 -2.0480730000      1.0468030000      0.2651710000
O                 -2.2050600000      2.3745170000      0.4977200000
H                 -4.7150000000      1.6772840000     -0.4020230000
H                 -4.6430280000      1.3801240000      1.3233550000
H                 -5.3465200000      0.1512270000      0.2513280000
H                 -3.9436990000     -1.7476020000     -0.1294270000
H                 -0.7971330000     -3.2711820000     -0.5225300000
H                  2.3695100000     -2.9991730000     -0.6105240000
H                  5.2314480000     -0.9521640000     -0.3843690000
H                  5.0261580000      1.5106680000      0.0427690000
H                  1.8699070000      3.0295290000      0.4351110000
H                 -1.2796990000      2.7490060000      0.5220070000
$end

$rem
BASIS  =  6-311++G(d,p)
GUI  =  2
JOB_TYPE  =  SP
METHOD  =  B3LYP
SCF_CONVERGENCE  = 8
SOLVENT_METHOD = sm12
$end

$smx
solvent dimethylformamide
charges CM5
$end

--------------------------------------------------------------

             Standard Nuclear Orientation (Angstroms)
    I     Atom           X                Y                Z
 ----------------------------------------------------------------
    1      C      -4.5513480000     0.8946280000     0.3461130000
    2      C      -3.1974480000     0.2556570000     0.1795640000
    3      C      -3.0624850000    -1.1183940000    -0.0598810000
    4      C      -1.8186820000    -1.7198770000    -0.2151020000
    5      O      -1.7668570000    -3.0543970000    -0.4442890000
    6      C      -0.6369440000    -0.9345710000    -0.1318680000
    7      C       0.6580460000    -1.5440610000    -0.2906450000
    8      O       0.7613580000    -2.8193370000    -0.5119540000
    9      C       1.8359660000    -0.7194390000    -0.2005140000
   10      C       3.1290160000    -1.2947730000    -0.3532430000
   11      O       3.2909110000    -2.6201560000    -0.5852880000
   12      C       4.2585870000    -0.4890110000    -0.2643390000
   13      C       4.1439760000     0.8841950000    -0.0261630000
   14      C       2.8982920000     1.4817120000     0.1283450000
   15      O       2.8403430000     2.8162970000     0.3575400000
   16      C       1.7179180000     0.6894620000     0.0439670000
   17      C       0.4217910000     1.2971820000     0.2025290000
   18      O       0.3158150000     2.5735920000     0.4241760000
   19      C      -0.7570630000     0.4722550000     0.1124590000
   20      C      -2.0480730000     1.0468030000     0.2651710000
   21      O      -2.2050600000     2.3745170000     0.4977200000
   22      H      -4.7150000000     1.6772840000    -0.4020230000
   23      H      -4.6430280000     1.3801240000     1.3233550000
   24      H      -5.3465200000     0.1512270000     0.2513280000
   25      H      -3.9436990000    -1.7476020000    -0.1294270000
   26      H      -0.7971330000    -3.2711820000    -0.5225300000
   27      H       2.3695100000    -2.9991730000    -0.6105240000
   28      H       5.2314480000    -0.9521640000    -0.3843690000
   29      H       5.0261580000     1.5106680000     0.0427690000
   30      H       1.8699070000     3.0295290000     0.4351110000
   31      H      -1.2796990000     2.7490060000     0.5220070000
 ----------------------------------------------------------------

   16   -1029.3998170323      9.97e-09  Convergence criterion met
 Total energy in the final basis set =    -1029.4848530752

                    Orbital Energies (a.u.)
 --------------------------------------------------------------

 Alpha MOs
 -- Occupied --
-19.1361 -19.1360 -19.1357 -19.1354 -19.1059 -19.1059 -10.2484 -10.2478
-10.2399 -10.2397 -10.2396 -10.2363 -10.1891 -10.1887 -10.1885 -10.1883
-10.1867 -10.1799 -10.1793 -10.1765 -10.1705  -1.0642  -1.0626  -1.0544
 -1.0530  -1.0129  -1.0115  -0.8717  -0.8535  -0.8087  -0.7696  -0.7544
 -0.7401  -0.7107  -0.6810  -0.6566  -0.6348  -0.6088  -0.5969  -0.5592
 -0.5353  -0.5296  -0.5232  -0.5201  -0.5187  -0.4782  -0.4596  -0.4561
 -0.4518  -0.4373  -0.4360  -0.4335  -0.4173  -0.4171  -0.4158  -0.4129
 -0.4075  -0.4064  -0.3918  -0.3812  -0.3774  -0.3722  -0.3699  -0.3679
 -0.3586  -0.3512  -0.3179  -0.3077  -0.2785  -0.2780  -0.2614  -0.2588
 -0.2333  -0.2114  -0.1516

 Beta MOs
 -- Occupied --
-19.1355 -19.1354 -19.1351 -19.1348 -19.1022 -19.1020 -10.2463 -10.2455
-10.2394 -10.2391 -10.2390 -10.2355 -10.1892 -10.1886 -10.1886 -10.1873
-10.1869 -10.1788 -10.1783 -10.1757 -10.1706  -1.0619  -1.0603  -1.0531
 -1.0518  -1.0070  -1.0053  -0.8694  -0.8516  -0.8053  -0.7680  -0.7508
 -0.7376  -0.7084  -0.6762  -0.6546  -0.6329  -0.6077  -0.5955  -0.5569
 -0.5340  -0.5283  -0.5226  -0.5181  -0.5175  -0.4764  -0.4579  -0.4504
 -0.4489  -0.4341  -0.4334  -0.4292  -0.4162  -0.4148  -0.4119  -0.4097
 -0.4054  -0.4018  -0.3870  -0.3806  -0.3708  -0.3693  -0.3674  -0.3575
 -0.3547  -0.3500  -0.3090  -0.3032  -0.2750  -0.2654  -0.2587  -0.2549
 -0.2201  -0.2028

          Ground-State Mulliken Net Atomic Charges

     Atom                 Charge (a.u.)    Spin (a.u.)
  --------------------------------------------------------
      1 C                     1.440317       0.004494
      2 C                     2.197385       0.077423
      3 C                    -0.355532       0.049608
      4 C                    -0.380739       0.054373
      5 O                    -0.332935       0.018689
      6 C                    -0.477734      -0.020508
      7 C                    -1.279725       0.115532
      8 O                    -0.428105       0.131012
      9 C                    -0.529291      -0.005236
     10 C                    -0.614845       0.046149
     11 O                    -0.329995       0.018140
     12 C                     0.911950       0.077527
     13 C                     0.826229       0.069654
     14 C                    -0.513051       0.055257
     15 O                    -0.335046       0.019322
     16 C                    -0.316214      -0.008408
     17 C                    -1.069068       0.126286
     18 O                    -0.441043       0.138344
     19 C                    -1.215313      -0.037251
     20 C                    -0.438894       0.069114
     21 O                    -0.322573       0.022206
     22 H                     0.209823       0.003268
     23 H                     0.209676       0.003302
     24 H                     0.283894       0.000121
     25 H                     0.188402      -0.005804
     26 H                     0.378160      -0.002369
     27 H                     0.378265      -0.002401
     28 H                     0.287507      -0.006700
     29 H                     0.285768      -0.006251
     30 H                     0.378884      -0.002490
     31 H                     0.403846      -0.002402
  --------------------------------------------------------
  Sum of atomic charges =    -1.000000

                    Cartesian Multipole Moments
 -----------------------------------------------------------------
    Charge (ESU x 10^10)
                -4.8032
    Dipole Moment (Debye)
         X      -3.4047      Y       0.8714      Z       0.2938
       Tot       3.5267
    Quadrupole Moments (Debye-Ang)
        XX    -148.3400     XY       0.2358     YY    -162.2985
        XZ       0.9504     YZ      -5.9996     ZZ    -128.1149

 Total job time:  1012.44s(wall), 7870.27s(cpu)
        *  Thank you very much for using Q-Chem.  Have a nice day.  *
