 Gaussian 16, Revision A.03,
 Gaussian 16:  ES64L-G16RevA.03 25-Dec-2016

 ----------------------------------------------------------------
 #P UB3LYP/6-311++G(d,p) SCRF=(PCM,Solvent=n,n-DiMethylFormamide)
 ----------------------------------------------------------------

 ------------------
 Quinone PCM in DMF
 ------------------
 Symbolic Z-matrix:
 Charge =  0 Multiplicity = 1

                         Standard orientation:
 ---------------------------------------------------------------------
 Center     Atomic      Atomic             Coordinates (Angstroms)
 Number     Number       Type             X           Y           Z
 ---------------------------------------------------------------------
      1          8           0       -0.000146   -2.604515   -0.000102
      2          6           0        0.000202   -1.378921   -0.000091
      3          6           0        1.285257   -0.630790   -0.000112
      4          6           0        2.473723   -1.385543   -0.000101
      5          6           0        3.714606   -0.777124    0.000022
      6          6           0        3.798223    0.621614    0.000147
      7          6           0        2.646623    1.389249    0.000109
      8          6           0        1.384599    0.771306   -0.000019
      9         16           0        0.000091    1.859970   -0.000021
     10          6           0       -1.384613    0.771410   -0.000092
     11          6           0       -2.646564    1.389306   -0.000151
     12          6           0       -3.798190    0.621671   -0.000012
     13          6           0       -3.714727   -0.777076    0.000181
     14          6           0       -2.473875   -1.385433    0.000184
     15          6           0       -1.285410   -0.630657    0.000013
     16          1           0        2.373984   -2.463888   -0.000172
     17          1           0        4.616797   -1.377168    0.000043
     18          1           0        4.765765    1.110786    0.000277
     19          1           0        2.713480    2.471685    0.000213
     20          1           0       -2.713635    2.471675   -0.000249
     21          1           0       -4.765763    1.110750   -0.000036
     22          1           0       -4.616618   -1.377586    0.000315
     23          1           0       -2.373432   -2.463729    0.000296
 ---------------------------------------------------------------------

 SCF Done:  E(UB3LYP) =  -973.809502146     A.U. after   15 cycles

 The electronic state is 1-A.
 Alpha  occ. eigenvalues --  -88.88970 -19.11491 -10.27477 -10.23900 -10.23896
 Alpha  occ. eigenvalues --  -10.20539 -10.20537 -10.19770 -10.19768 -10.19711
 Alpha  occ. eigenvalues --  -10.19709 -10.19334 -10.19330 -10.18943 -10.18942
 Alpha  occ. eigenvalues --   -7.97610  -5.93970  -5.93557  -5.93081  -1.05296
 Alpha  occ. eigenvalues --   -0.90381  -0.88214  -0.82774  -0.78974  -0.77670
 Alpha  occ. eigenvalues --   -0.77047  -0.72563  -0.66830  -0.64130  -0.61834
 Alpha  occ. eigenvalues --   -0.60925  -0.56410  -0.55366  -0.50788  -0.48700
 Alpha  occ. eigenvalues --   -0.48586  -0.47921  -0.45218  -0.44851  -0.44263
 Alpha  occ. eigenvalues --   -0.44217  -0.43573  -0.40465  -0.39443  -0.38777
 Alpha  occ. eigenvalues --   -0.38501  -0.37375  -0.36303  -0.34739  -0.33433
 Alpha  occ. eigenvalues --   -0.28427  -0.27810  -0.27702  -0.27404  -0.23127
 Alpha virt. eigenvalues --   -0.08787  -0.04495  -0.02926  -0.02793  -0.00618
 Alpha virt. eigenvalues --   -0.00433   0.00942   0.01239   0.01708   0.02308
 Alpha virt. eigenvalues --    0.03397   0.03609   0.03926   0.04224   0.04518

  Beta  occ. eigenvalues --  -88.88970 -19.11491 -10.27477 -10.23900 -10.23896
  Beta  occ. eigenvalues --  -10.20539 -10.20537 -10.19770 -10.19768 -10.19711
  Beta  occ. eigenvalues --  -10.19709 -10.19334 -10.19330 -10.18943 -10.18942
  Beta  occ. eigenvalues --   -7.97610  -5.93970  -5.93557  -5.93081  -1.05296
  Beta  occ. eigenvalues --   -0.90381  -0.88214  -0.82774  -0.78974  -0.77670
  Beta  occ. eigenvalues --   -0.77047  -0.72563  -0.66830  -0.64130  -0.61834
  Beta  occ. eigenvalues --   -0.60925  -0.56410  -0.55366  -0.50788  -0.48700
  Beta  occ. eigenvalues --   -0.48586  -0.47921  -0.45218  -0.44851  -0.44263
  Beta  occ. eigenvalues --   -0.44217  -0.43573  -0.40465  -0.39443  -0.38777
  Beta  occ. eigenvalues --   -0.38501  -0.37375  -0.36303  -0.34739  -0.33433
  Beta  occ. eigenvalues --   -0.28427  -0.27810  -0.27702  -0.27404  -0.23127
  Beta virt. eigenvalues --   -0.08787  -0.04495  -0.02926  -0.02793  -0.00618
  Beta virt. eigenvalues --   -0.00433   0.00942   0.01239   0.01708   0.02308
  Beta virt. eigenvalues --    0.03397   0.03609   0.03926   0.04224   0.04518

 Mulliken charges and spin densities:
               1          2
     1  O   -0.313528   0.000000
     2  C   -0.090452  -0.000000
     3  C    1.830667  -0.000000
     4  C    0.306089  -0.000000
     5  C   -0.438384  -0.000000
     6  C   -0.192763   0.000000
     7  C   -0.521349  -0.000000
     8  C   -1.136201   0.000000
     9  S   -0.902138  -0.000000
    10  C   -1.136021   0.000000
    11  C   -0.521381   0.000000
    12  C   -0.193080  -0.000000
    13  C   -0.438253   0.000000
    14  C    0.306716   0.000000
    15  C    1.830789  -0.000000
    16  H    0.192910  -0.000000
    17  H    0.201145   0.000000
    18  H    0.200638   0.000000
    19  H    0.209986  -0.000000
    20  H    0.209977  -0.000000
    21  H    0.200619  -0.000000
    22  H    0.201142   0.000000
    23  H    0.192875   0.000000
 Sum of Mulliken charges =  -0.00000   0.00000

 Dipole moment (field-independent basis, Debye):
    X=              0.0035    Y=              4.1240    Z=              0.0004  Tot=              4.1240
 Quadrupole moment (field-independent basis, Debye-Ang):
   XX=            -66.8007   YY=            -97.0029   ZZ=            -98.9158
   XY=             -0.0004   XZ=              0.0005   YZ=             -0.0007

 Normal termination of Gaussian 16 at Sat Jan 13 19:17:44 2024.
