 Gaussian 16, Revision A.03,
 Gaussian 16:  ES64L-G16RevA.03 25-Dec-2016

 ----------------------------------------------------------------
 #P UB3LYP/6-311++G(d,p) SCRF=(PCM,Solvent=n,n-DiMethylFormamide)
 ----------------------------------------------------------------

 -------
 Reduced
 -------
 Symbolic Z-matrix:
 Charge = -2 Multiplicity = 1

                         Standard orientation:
 ---------------------------------------------------------------------
 Center     Atomic      Atomic             Coordinates (Angstroms)
 Number     Number       Type             X           Y           Z
 ---------------------------------------------------------------------
      1          8           0       -2.386808    2.946607   -0.028534
      2          6           0       -1.756348    1.826054   -0.019826
      3          6           0       -0.338184    1.714110   -0.033710
      4          6           0        0.388894    0.509753   -0.033120
      5          6           0        1.909238    0.580215   -0.039115
      6          6           0        2.543977   -0.117208   -1.263158
      7          6           0        4.077961   -0.024083   -1.254772
      8          6           0        4.671304   -0.591515    0.041333
      9          6           0        4.064547    0.098497    1.271535
     10          6           0        2.529284    0.024859    1.266909
     11          6           0       -0.264992   -0.765408   -0.007370
     12          8           0        0.362790   -1.893130    0.006592
     13          6           0       -1.724607   -0.706663    0.000069
     14          6           0       -2.466429   -1.911178    0.019876
     15          6           0       -3.849631   -1.921355    0.030842
     16          6           0       -4.561559   -0.695397    0.023281
     17          6           0       -3.861644    0.498366    0.006902
     18          6           0       -2.449872    0.538454   -0.004197
     19          1           0        0.211295    2.655570   -0.058551
     20          1           0        2.182797    1.645939   -0.097402
     21          1           0        2.220361   -1.163010   -1.249734
     22          1           0        2.142058    0.333242   -2.179248
     23          1           0        4.498378   -0.549849   -2.122956
     24          1           0        4.386801    1.028782   -1.353318
     25          1           0        4.442498   -1.664764    0.091757
     26          1           0        5.766602   -0.502571    0.046544
     27          1           0        4.382292    1.152186    1.276615
     28          1           0        4.472941   -0.346910    2.191180
     29          1           0        2.125071    0.588280    2.116455
     30          1           0        2.195940   -1.011978    1.376565
     31          1           0       -1.892398   -2.832708    0.026329
     32          1           0       -4.390439   -2.866332    0.044789
     33          1           0       -5.650309   -0.695024    0.031913
     34          1           0       -4.373371    1.456326    0.001731
 ---------------------------------------------------------------------

 SCF Done:  E(UB3LYP) =  -770.241274013     A.U. after   18 cycles

 The electronic state is 1-A.
 Alpha  occ. eigenvalues --  -19.01142 -19.00399 -10.16326 -10.15951 -10.15019
 Alpha  occ. eigenvalues --  -10.14883 -10.14838 -10.14622 -10.14560 -10.14360
 Alpha  occ. eigenvalues --  -10.14222 -10.14090 -10.13717 -10.13543 -10.13056
 Alpha  occ. eigenvalues --  -10.13009 -10.11847 -10.11100  -0.92872  -0.92191
 Alpha  occ. eigenvalues --   -0.82021  -0.81206  -0.76292  -0.72759  -0.71969
 Alpha  occ. eigenvalues --   -0.71760  -0.68632  -0.62966  -0.59689  -0.58919
 Alpha  occ. eigenvalues --   -0.57677  -0.55502  -0.53397  -0.51374  -0.46922
 Alpha  occ. eigenvalues --   -0.46667  -0.44612  -0.42615  -0.42214  -0.41751
 Alpha  occ. eigenvalues --   -0.41648  -0.39679  -0.38556  -0.37373  -0.36770
 Alpha  occ. eigenvalues --   -0.36476  -0.35891  -0.35522  -0.34766  -0.33827
 Alpha  occ. eigenvalues --   -0.32656  -0.32041  -0.31261  -0.31211  -0.30447
 Alpha  occ. eigenvalues --   -0.29934  -0.29519  -0.28069  -0.27833  -0.22512
 Alpha  occ. eigenvalues --   -0.21653  -0.20437  -0.19108  -0.18138  -0.10283
 Alpha virt. eigenvalues --   -0.00321  -0.00054   0.00533   0.01115   0.01410
 Alpha virt. eigenvalues --    0.01975   0.02041   0.02257   0.03587   0.04050
 Alpha virt. eigenvalues --    0.04189   0.04426   0.04678   0.05189   0.06291

  Beta  occ. eigenvalues --  -19.01142 -19.00399 -10.16326 -10.15951 -10.15019
  Beta  occ. eigenvalues --  -10.14883 -10.14838 -10.14622 -10.14560 -10.14360
  Beta  occ. eigenvalues --  -10.14222 -10.14090 -10.13717 -10.13543 -10.13056
  Beta  occ. eigenvalues --  -10.13009 -10.11847 -10.11100  -0.92872  -0.92191
  Beta  occ. eigenvalues --   -0.82021  -0.81206  -0.76292  -0.72759  -0.71969
  Beta  occ. eigenvalues --   -0.71760  -0.68632  -0.62966  -0.59689  -0.58919
  Beta  occ. eigenvalues --   -0.57677  -0.55502  -0.53397  -0.51374  -0.46922
  Beta  occ. eigenvalues --   -0.46667  -0.44612  -0.42615  -0.42214  -0.41751
  Beta  occ. eigenvalues --   -0.41648  -0.39679  -0.38556  -0.37373  -0.36770
  Beta  occ. eigenvalues --   -0.36476  -0.35891  -0.35522  -0.34766  -0.33827
  Beta  occ. eigenvalues --   -0.32656  -0.32041  -0.31261  -0.31211  -0.30447
  Beta  occ. eigenvalues --   -0.29934  -0.29519  -0.28069  -0.27833  -0.22512
  Beta  occ. eigenvalues --   -0.21653  -0.20437  -0.19108  -0.18138  -0.10283
  Beta virt. eigenvalues --   -0.00321  -0.00054   0.00533   0.01115   0.01410
  Beta virt. eigenvalues --    0.01975   0.02041   0.02257   0.03587   0.04050
  Beta virt. eigenvalues --    0.04189   0.04426   0.04678   0.05189   0.06291

 Mulliken charges and spin densities:
               1          2
     1  O   -0.709098  -0.000000
     2  C   -0.601864  -0.000000
     3  C   -0.266268   0.000000
     4  C    0.485049   0.000000
     5  C    0.743737  -0.000000
     6  C   -0.522342   0.000000
     7  C   -0.353521  -0.000000
     8  C   -0.393752   0.000000
     9  C   -0.353828   0.000000
    10  C   -0.517652  -0.000000
    11  C   -0.803723  -0.000000
    12  O   -0.644469   0.000000
    13  C   -0.107234   0.000000
    14  C    0.019077   0.000000
    15  C   -0.531575  -0.000000
    16  C   -0.403050   0.000000
    17  C   -0.031085  -0.000000
    18  C    0.662839   0.000000
    19  H    0.121051   0.000000
    20  H    0.154644  -0.000000
    21  H    0.185185   0.000000
    22  H    0.141104  -0.000000
    23  H    0.158828   0.000000
    24  H    0.113631   0.000000
    25  H    0.105048  -0.000000
    26  H    0.166977  -0.000000
    27  H    0.115405   0.000000
    28  H    0.158350   0.000000
    29  H    0.144934  -0.000000
    30  H    0.177618   0.000000
    31  H    0.140878   0.000000
    32  H    0.153886  -0.000000
    33  H    0.154933   0.000000
    34  H    0.136288  -0.000000
 Sum of Mulliken charges =  -2.00000  -0.00000

 Dipole moment (field-independent basis, Debye):
    X=             11.5432    Y=             -4.3771    Z=              0.1022  Tot=             12.3456
 Quadrupole moment (field-independent basis, Debye-Ang):
   XX=           -158.9957   YY=           -166.1714   ZZ=           -121.7499
   XY=             25.5003   XZ=             -0.1896   YZ=              0.3347

 Normal termination of Gaussian 16 at Sun Jan 21 08:50:40 2024.
