 Gaussian 16, Revision A.03,
 Gaussian 16:  ES64L-G16RevA.03 25-Dec-2016

 ----------------------------------------------------------------
 #P UB3LYP/6-311++G(d,p) SCRF=(PCM,Solvent=n,n-DiMethylFormamide)
 ----------------------------------------------------------------

 -------
 Reduced
 -------
 Symbolic Z-matrix:
 Charge = -2 Multiplicity = 1

                         Standard orientation:
 ---------------------------------------------------------------------
 Center     Atomic      Atomic             Coordinates (Angstroms)
 Number     Number       Type             X           Y           Z
 ---------------------------------------------------------------------
      1          6           0       -1.686978    1.686696    0.018985
      2          6           0       -2.868562    0.979210    0.019391
      3          6           0       -2.830563   -0.432428    0.007173
      4          6           0       -1.614350   -1.106963   -0.014707
      5          6           0       -0.363194   -0.419756    0.009788
      6          6           0       -0.431740    1.033155    0.007589
      7          6           0        0.767150    1.869432   -0.006851
      8          6           0        1.989485    1.143659   -0.018607
      9          6           0        2.081983   -0.248380   -0.007764
     10          6           0        0.931109   -1.112068    0.026879
     11          8           0        0.712268    3.156758   -0.014872
     12          8           0        1.077117   -2.382858    0.071076
     13          1           0       -1.665710    2.771162    0.030581
     14          1           0       -3.757351   -1.008095    0.023352
     15          8           0       -1.643482   -2.488804   -0.049804
     16          6           0        3.428485   -0.924791   -0.017559
     17          1           0       -3.829356    1.490180    0.030292
     18          1           0        2.902768    1.740578   -0.037016
     19          1           0       -2.567550   -2.732263   -0.188273
     20          1           0        4.236576   -0.189306   -0.117432
     21          1           0        3.499999   -1.651532   -0.838376
     22          1           0        3.596454   -1.508083    0.899768
 ---------------------------------------------------------------------

 SCF Done:  E(UB3LYP) =  -650.074055464     A.U. after   18 cycles

 The electronic state is 1-A.
 Alpha  occ. eigenvalues --  -19.13135 -19.01001 -19.00675 -10.21158 -10.16544
 Alpha  occ. eigenvalues --  -10.16240 -10.14644 -10.14258 -10.13917 -10.13615
 Alpha  occ. eigenvalues --  -10.13460 -10.13225 -10.12047 -10.11295  -1.04043
 Alpha  occ. eigenvalues --   -0.92938  -0.92560  -0.81797  -0.76587  -0.72035
 Alpha  occ. eigenvalues --   -0.71152  -0.66468  -0.62151  -0.59399  -0.56136
 Alpha  occ. eigenvalues --   -0.53660  -0.48762  -0.47341  -0.44312  -0.43178
 Alpha  occ. eigenvalues --   -0.41544  -0.39998  -0.39589  -0.38382  -0.37110
 Alpha  occ. eigenvalues --   -0.35753  -0.35230  -0.34437  -0.34218  -0.33500
 Alpha  occ. eigenvalues --   -0.31147  -0.30789  -0.30641  -0.29747  -0.21954
 Alpha  occ. eigenvalues --   -0.20884  -0.20334  -0.19097  -0.18189  -0.10146
 Alpha virt. eigenvalues --    0.00007   0.00602   0.00847   0.01316   0.01442
 Alpha virt. eigenvalues --    0.02728   0.03176   0.04107   0.04876   0.05634
 Alpha virt. eigenvalues --    0.05872   0.05993   0.07629   0.07852   0.08347

  Beta  occ. eigenvalues --  -19.13135 -19.01001 -19.00675 -10.21158 -10.16544
  Beta  occ. eigenvalues --  -10.16240 -10.14644 -10.14258 -10.13917 -10.13615
  Beta  occ. eigenvalues --  -10.13460 -10.13225 -10.12047 -10.11295  -1.04043
  Beta  occ. eigenvalues --   -0.92938  -0.92560  -0.81797  -0.76587  -0.72035
  Beta  occ. eigenvalues --   -0.71152  -0.66468  -0.62151  -0.59399  -0.56136
  Beta  occ. eigenvalues --   -0.53660  -0.48762  -0.47341  -0.44312  -0.43178
  Beta  occ. eigenvalues --   -0.41544  -0.39998  -0.39589  -0.38382  -0.37110
  Beta  occ. eigenvalues --   -0.35753  -0.35230  -0.34437  -0.34218  -0.33500
  Beta  occ. eigenvalues --   -0.31147  -0.30789  -0.30641  -0.29747  -0.21954
  Beta  occ. eigenvalues --   -0.20884  -0.20334  -0.19097  -0.18189  -0.10146
  Beta virt. eigenvalues --    0.00007   0.00602   0.00847   0.01316   0.01442
  Beta virt. eigenvalues --    0.02728   0.03176   0.04107   0.04876   0.05634
  Beta virt. eigenvalues --    0.05872   0.05993   0.07629   0.07852   0.08347

 Mulliken charges and spin densities:
               1          2
     1  C   -0.109202  -0.000000
     2  C   -0.428295  -0.000000
     3  C   -0.260934   0.000000
     4  C    0.040703   0.000000
     5  C   -0.151369  -0.000000
     6  C    0.588232   0.000000
     7  C   -0.769586  -0.000000
     8  C   -0.355109   0.000000
     9  C    0.635307  -0.000000
    10  C   -0.397985  -0.000000
    11  O   -0.710458   0.000000
    12  O   -0.670434   0.000000
    13  H    0.133514  -0.000000
    14  H    0.127679   0.000000
    15  O   -0.256345  -0.000000
    16  C   -0.351381   0.000000
    17  H    0.160391  -0.000000
    18  H    0.091500   0.000000
    19  H    0.278578   0.000000
    20  H    0.131947   0.000000
    21  H    0.137311  -0.000000
    22  H    0.135937  -0.000000
 Sum of Mulliken charges =  -2.00000  -0.00000

 Dipole moment (field-independent basis, Debye):
    X=             -7.2107    Y=             -3.8852    Z=             -0.3925  Tot=              8.2002
 Quadrupole moment (field-independent basis, Debye-Ang):
   XX=            -98.0365   YY=           -152.9610   ZZ=            -93.0965
   XY=              5.3823   XZ=              0.4677   YZ=              1.5722

 Normal termination of Gaussian 16 at Thu Jan 25 05:46:13 2024.
