 Gaussian 16, Revision A.03,
 Gaussian 16:  ES64L-G16RevA.03 25-Dec-2016

 --------------------------------------
 #P UB3LYP/6-311++G(d,p) nosym opt freq
 --------------------------------------

 -------
 Reduced
 -------
 Symbolic Z-matrix:
 Charge = -2 Multiplicity = 1

 SCF Done:  E(UB3LYP) =  -649.791666598     A.U. after   40 cycles
 SCF Done:  E(UB3LYP) =  -649.791676168     A.U. after   27 cycles
 SCF Done:  E(UB3LYP) =  -649.791679056     A.U. after   25 cycles
 SCF Done:  E(UB3LYP) =  -649.791680018     A.U. after   27 cycles
 SCF Done:  E(UB3LYP) =  -649.791680204     A.U. after   26 cycles
 Optimization completed.
    -- Stationary point found.
 Normal termination of Gaussian 16 at Mon Jan 15 21:23:57 2024.

 ----------------------------------------------------------------------
 #P Geom=AllCheck Guess=TCheck SCRF=Check GenChk UB3LYP/6-311++G(d,p) F
 req
 ----------------------------------------------------------------------

 Structure from the checkpoint file:  "308-an.chk"
 -------
 Reduced
 -------
 Charge = -2 Multiplicity = 1

                          Input orientation:
 ---------------------------------------------------------------------
 Center     Atomic      Atomic             Coordinates (Angstroms)
 Number     Number       Type             X           Y           Z
 ---------------------------------------------------------------------
      1          6           0       -4.073212    3.579514    1.540538
      2          6           0       -4.564464    3.806119    0.274047
      3          6           0       -3.964061    3.158325   -0.827858
      4          6           0       -2.880620    2.305954   -0.642742
      5          6           0       -2.351448    2.018964    0.651807
      6          6           0       -2.979293    2.710588    1.766761
      7          6           0       -2.519514    2.544999    3.144472
      8          6           0       -1.417913    1.658869    3.293590
      9          6           0       -0.804345    0.977139    2.242293
     10          6           0       -1.234485    1.092678    0.873608
     11          8           0       -3.068087    3.159715    4.135167
     12          8           0       -0.655848    0.415681   -0.045649
     13          1           0       -4.502753    4.052110    2.417351
     14          1           0       -4.351164    3.314589   -1.835987
     15          8           0       -2.321653    1.720186   -1.763455
     16          6           0        0.357647    0.054352    2.504844
     17          1           0       -5.407486    4.474422    0.109670
     18          1           0       -1.046797    1.520188    4.310339
     19          1           0       -2.741837    2.143475   -2.522810
     20          1           0        0.656008    0.089227    3.560158
     21          1           0        1.220826    0.317184    1.878068
     22          1           0        0.116838   -0.986406    2.242610
 ---------------------------------------------------------------------

 SCF Done:  E(UB3LYP) =  -649.791680204     A.U. after    4 cycles

 Alpha  occ. eigenvalues --  -18.90185 -18.77674 -18.77610  -9.98358  -9.93828
 Alpha  occ. eigenvalues --   -9.93442  -9.92353  -9.92263  -9.91807  -9.90921
 Alpha  occ. eigenvalues --   -9.90696  -9.90292  -9.89799  -9.88776  -0.81095
 Alpha  occ. eigenvalues --   -0.69493  -0.68937  -0.58894  -0.54051  -0.49563
 Alpha  occ. eigenvalues --   -0.48248  -0.44192  -0.39466  -0.36657  -0.33630
 Alpha  occ. eigenvalues --   -0.30865  -0.26056  -0.24809  -0.21708  -0.20117
 Alpha  occ. eigenvalues --   -0.19160  -0.17256  -0.16931  -0.15834  -0.14642
 Alpha  occ. eigenvalues --   -0.13160  -0.12625  -0.11125  -0.11015  -0.10574
 Alpha  occ. eigenvalues --   -0.08367  -0.07603  -0.07281  -0.06347   0.01714
 Alpha  occ. eigenvalues --    0.02174   0.02882   0.04774   0.05422   0.13741
 Alpha virt. eigenvalues --    0.15441   0.17134   0.17291   0.19847   0.19975
 Alpha virt. eigenvalues --    0.21167   0.21696   0.22473   0.23490   0.24222
 Alpha virt. eigenvalues --    0.26066   0.26510   0.27233   0.27348   0.28256

  Beta  occ. eigenvalues --  -18.90185 -18.77674 -18.77610  -9.98358  -9.93828
  Beta  occ. eigenvalues --   -9.93442  -9.92353  -9.92263  -9.91807  -9.90921
  Beta  occ. eigenvalues --   -9.90696  -9.90292  -9.89799  -9.88776  -0.81095
  Beta  occ. eigenvalues --   -0.69493  -0.68937  -0.58894  -0.54051  -0.49563
  Beta  occ. eigenvalues --   -0.48248  -0.44192  -0.39466  -0.36657  -0.33630
  Beta  occ. eigenvalues --   -0.30865  -0.26056  -0.24809  -0.21708  -0.20117
  Beta  occ. eigenvalues --   -0.19160  -0.17256  -0.16931  -0.15834  -0.14642
  Beta  occ. eigenvalues --   -0.13160  -0.12625  -0.11125  -0.11015  -0.10574
  Beta  occ. eigenvalues --   -0.08367  -0.07603  -0.07281  -0.06347   0.01714
  Beta  occ. eigenvalues --    0.02174   0.02882   0.04774   0.05422   0.13741
  Beta virt. eigenvalues --    0.15441   0.17134   0.17291   0.19847   0.19975
  Beta virt. eigenvalues --    0.21167   0.21696   0.22473   0.23490   0.24222
  Beta virt. eigenvalues --    0.26066   0.26510   0.27233   0.27348   0.28256

 Mulliken charges and spin densities:
               1          2
     1  C   -0.988848  -0.000000
     2  C    0.627500   0.000000
     3  C   -0.320984   0.000000
     4  C    0.667239  -0.000000
     5  C    0.698174  -0.000000
     6  C    0.692426   0.000000
     7  C   -1.082582   0.000000
     8  C   -0.326877  -0.000000
     9  C    1.068625  -0.000000
    10  C   -0.403185   0.000000
    11  O   -0.522624   0.000000
    12  O   -0.472131  -0.000000
    13  H    0.142379   0.000000
    14  H   -1.324838  -0.000000
    15  O   -0.247620   0.000000
    16  C   -0.391327  -0.000000
    17  H   -0.148019  -0.000000
    18  H    0.036483  -0.000000
    19  H   -0.029441  -0.000000
    20  H    0.096110  -0.000000
    21  H    0.120140   0.000000
    22  H    0.109400  -0.000000
 Sum of Mulliken charges =  -2.00000   0.00000

 Dipole moment (field-independent basis, Debye):
    X=             23.7104    Y=            -21.0268    Z=            -10.0068  Tot=             33.2332
 Quadrupole moment (field-independent basis, Debye-Ang):
   XX=           -185.1427   YY=           -164.5022   ZZ=           -172.4588
   XY=             75.2480   XZ=             20.0391   YZ=            -26.1344

  Exact polarizability: 871.845-474.564 468.392 234.388-122.6091198.845
 Approx polarizability:1473.719-853.280 765.2081674.134********3743.619

                      1                      2                      3
                      A                      A                      A
 Frequencies --     65.9750                77.3860               109.4063
 Red. masses --      4.4578                 4.8077                 1.1446
 Frc consts  --      0.0114                 0.0170                 0.0081
 IR Inten    --      2.2668                 2.8765                 1.0998

                      4                      5                      6
                      A                      A                      A
 Frequencies --    169.6279               214.8601               233.3832
 Red. masses --      5.3640                 3.9045                 4.7592
 Frc consts  --      0.0909                 0.1062                 0.1527
 IR Inten    --      8.9619                 8.8166                 5.6420

                      7                      8                      9
                      A                      A                      A
 Frequencies --    265.6239               304.9776               351.0862
 Red. masses --      3.5133                 3.9102                 5.5946
 Frc consts  --      0.1461                 0.2143                 0.4063
 IR Inten    --      6.0510                 3.4005                10.9228

                     10                     11                     12
                      A                      A                      A
 Frequencies --    351.9320               377.3813               383.1957
 Red. masses --      7.0941                 9.5504                 1.2742
 Frc consts  --      0.5177                 0.8014                 0.1102
 IR Inten    --      8.3907                 0.3735                31.3791

                     13                     14                     15
                      A                      A                      A
 Frequencies --    409.1995               471.2242               482.6860
 Red. masses --      6.2903                 6.6478                 3.9197
 Frc consts  --      0.6206                 0.8697                 0.5381
 IR Inten    --    252.6725               475.4873                28.0038

                     16                     17                     18
                      A                      A                      A
 Frequencies --    526.1014               562.7662               572.9744
 Red. masses --      7.6006                 4.4301                 5.4700
 Frc consts  --      1.2395                 0.8267                 1.0581
 IR Inten    --      5.6609                17.3223                45.2285

                     19                     20                     21
                      A                      A                      A
 Frequencies --    663.3630               676.6959               688.2300
 Red. masses --      4.3350                 3.7534                 2.7724
 Frc consts  --      1.1239                 1.0127                 0.7737
 IR Inten    --      9.9743                16.7619                 2.2253

                     22                     23                     24
                      A                      A                      A
 Frequencies --    704.8400               766.6060               792.3491
 Red. masses --      6.6335                 1.6143                 5.2688
 Frc consts  --      1.9417                 0.5590                 1.9489
 IR Inten    --      8.2281                26.2879                 3.1557

                     25                     26                     27
                      A                      A                      A
 Frequencies --    798.9452               839.4063               848.0635
 Red. masses --      4.7727                 1.7605                 1.4078
 Frc consts  --      1.7949                 0.7309                 0.5966
 IR Inten    --    101.0099                35.4445               304.0246

                     28                     29                     30
                      A                      A                      A
 Frequencies --    897.8731               937.8186               979.6568
 Red. masses --      5.3796                 1.2470                 5.4892
 Frc consts  --      2.5552                 0.6462                 3.1039
 IR Inten    --    103.4841                 9.8656                18.1072

                     31                     32                     33
                      A                      A                      A
 Frequencies --   1008.2482              1036.1216              1069.6060
 Red. masses --      1.5408                 1.4603                 2.2702
 Frc consts  --      0.9229                 0.9237                 1.5303
 IR Inten    --    264.5025                 4.2146               169.7126

                     34                     35                     36
                      A                      A                      A
 Frequencies --   1133.5904              1147.1925              1166.8991
 Red. masses --      1.6336                 2.5872                 2.0175
 Frc consts  --      1.2368                 2.0061                 1.6186
 IR Inten    --     27.5981                44.9151                88.5709

                     37                     38                     39
                      A                      A                      A
 Frequencies --   1198.7130              1222.9350              1250.8087
 Red. masses --      2.4700                 1.9487                 2.8621
 Frc consts  --      2.0911                 1.7171                 2.6383
 IR Inten    --    241.0704               120.2163                73.9955

                     40                     41                     42
                      A                      A                      A
 Frequencies --   1286.9598              1322.1266              1370.4885
 Red. masses --      2.2305                 4.5486                 1.3876
 Frc consts  --      2.1766                 4.6847                 1.5355
 IR Inten    --    363.6059               587.2994                57.7858

                     43                     44                     45
                      A                      A                      A
 Frequencies --   1405.6298              1414.1927              1431.7459
 Red. masses --      3.2394                 8.6090                 4.1092
 Frc consts  --      3.7710                10.1443                 4.9629
 IR Inten    --    404.5608               950.0787               791.0234

                     46                     47                     48
                      A                      A                      A
 Frequencies --   1448.7066              1458.6858              1471.2579
 Red. masses --      1.0590                 2.8047                 1.4070
 Frc consts  --      1.3094                 3.5161                 1.7944
 IR Inten    --      3.7256                88.2898               825.6924

                     49                     50                     51
                      A                      A                      A
 Frequencies --   1506.7719              1529.2214              1570.7001
 Red. masses --      2.6635                 3.9699                 5.4898
 Frc consts  --      3.5628                 5.4697                 7.9799
 IR Inten    --    305.7575                93.9670              2911.6110

                     52                     53                     54
                      A                      A                      A
 Frequencies --   1591.5312              2956.5957              2977.8587
 Red. masses --      5.3380                 1.0441                 1.0867
 Frc consts  --      7.9664                 5.3777                 5.6776
 IR Inten    --    108.7526               912.0865               407.8048

                     55                     56                     57
                      A                      A                      A
 Frequencies --   3029.4834              3080.7916              3081.9352
 Red. masses --      1.1005                 1.0862                 1.0867
 Frc consts  --      5.9507                 6.0741                 6.0814
 IR Inten    --     28.3192                99.4354               370.0057

                     58                     59                     60
                      A                      A                      A
 Frequencies --   3113.4766              3166.5185              3745.7708
 Red. masses --      1.0899                 1.0909                 1.0651
 Frc consts  --      6.2248                 6.4448                 8.8051
 IR Inten    --    138.9933                21.4842               722.5053

 - Thermochemistry -
 -------------------
 Temperature   298.150 Kelvin.  Pressure   1.00000 Atm.
 Atom     1 has atomic number  6 and mass  12.00000

 Molecular mass:   188.04734 amu.
 Principal axes and moments of inertia in atomic units:
                           1         2         3
     Eigenvalues --  1922.586622444.156824354.36942
           X            0.63795  -0.42988   0.63892
           Y           -0.44298   0.47381   0.76110
           Z            0.62991   0.76857  -0.11184
 This molecule is an asymmetric top.
 Rotational symmetry number  1.
 Warning -- assumption of classical behavior for rotation
           may cause significant error
 Rotational temperatures (Kelvin)      0.04505     0.03544     0.01989
 Rotational constants (GHZ):           0.93870     0.73839     0.41447
 Zero-point vibrational energy     417007.4 (Joules/Mol)
                                   99.66717 (Kcal/Mol)
 Warning -- explicit consideration of  18 degrees of freedom as
           vibrations may cause significant error
 Vibrational temperatures:     94.92   111.34   157.41   244.06   309.14
          (Kelvin)            335.79   382.17   438.79   505.13   506.35
                              542.97   551.33   588.75   677.99   694.48
                              756.94   809.70   824.38   954.43   973.61
                              990.21  1014.11  1102.98  1140.01  1149.50
                             1207.72  1220.17  1291.84  1349.31  1409.51
                             1450.64  1490.75  1538.92  1630.98  1650.55
                             1678.91  1724.68  1759.53  1799.63  1851.65
                             1902.25  1971.83  2022.39  2034.71  2059.96
                             2084.37  2098.72  2116.81  2167.91  2200.21
                             2259.89  2289.86  4253.88  4284.47  4358.75
                             4432.57  4434.22  4479.60  4555.91  5389.33

 Zero-point correction=                           0.158830 (Hartree/Particle)
 Thermal correction to Energy=                    0.170510
 Thermal correction to Enthalpy=                  0.171454
 Thermal correction to Gibbs Free Energy=         0.121294
 Sum of electronic and zero-point Energies=           -649.632850
 Sum of electronic and thermal Energies=              -649.621170
 Sum of electronic and thermal Enthalpies=            -649.620226
 Sum of electronic and thermal Free Energies=         -649.670387

                     E (Thermal)             CV                S
                      KCal/Mol        Cal/Mol-Kelvin    Cal/Mol-Kelvin
 Total                  106.997             45.857            105.572
 Electronic               0.000              0.000              0.000
 Translational            0.889              2.981             41.600
 Rotational               0.889              2.981             31.393
 Vibrational            105.219             39.895             32.578
 Vibration     1          0.597              1.971              4.270
 Vibration     2          0.599              1.964              3.956
 Vibration     3          0.606              1.942              3.279
 Vibration     4          0.625              1.880              2.440
 Vibration     5          0.645              1.818              2.002
 Vibration     6          0.654              1.790              1.853
 Vibration     7          0.671              1.736              1.625
 Vibration     8          0.696              1.664              1.389
 Vibration     9          0.728              1.573              1.161
 Vibration    10          0.728              1.571              1.158
 Vibration    11          0.748              1.518              1.050
 Vibration    12          0.752              1.506              1.027
 Vibration    13          0.774              1.450              0.929
 Vibration    14          0.828              1.314              0.734
 Vibration    15          0.839              1.288              0.703
 Vibration    16          0.881              1.192              0.596
 Vibration    17          0.919              1.112              0.518
 Vibration    18          0.929              1.090              0.499

                           ! Non-Optimized Parameters !
 Normal termination of Gaussian 16 at Mon Jan 15 21:38:02 2024.
