 Q-Chem 5.4, Q-Chem, Inc., Pleasanton, CA (2021)
 Q-Chem 5.4.0 for Intel X86 EM64T Linux

User input:
--------------------------------------------------------------
$molecule
-1 2
C                  0.6491370000     -1.7247800000     -0.9505770000
C                 -0.5061100000     -1.1456530000     -0.2785310000
C                 -0.4308930000      0.0189200000      0.4421270000
C                  0.8104070000      0.7778350000      0.5976250000
C                  1.9453880000      0.1712390000     -0.0897820000
C                  1.9086610000     -0.9809320000     -0.8254490000
O                  0.5918470000     -2.7927120000     -1.6016910000
O                  0.8828380000      1.8336760000      1.2518320000
Br                -2.1376060000     -2.1336320000     -0.4725070000
Br                -1.9479130000      0.7807350000      1.3295960000
Br                 3.6017470000      1.1565940000      0.1181950000
C                  3.0976260000     -1.5904910000     -1.5236230000
C                  3.8331440000     -2.6303350000     -0.6569840000
C                  5.0157870000     -3.2777240000     -1.3852820000
C                  5.7596460000     -4.3190710000     -0.5415970000
C                  6.9426980000     -4.9719900000     -1.2656960000
C                  7.6791430000     -6.0116510000     -0.4147080000
H                  3.7970470000     -0.8048380000     -1.8186490000
H                  2.7331610000     -2.0888240000     -2.4255970000
H                  3.1178290000     -3.4036870000     -0.3586740000
H                  4.1874970000     -2.1478850000      0.2612520000
H                  5.7215720000     -2.4964120000     -1.6984870000
H                  4.6543760000     -3.7515480000     -2.3074510000
H                  5.0540270000     -5.0994470000     -0.2278330000
H                  6.1192200000     -3.8465530000      0.3821300000
H                  7.6480830000     -4.1923150000     -1.5795230000
H                  6.5835260000     -5.4447510000     -2.1882880000
H                  8.0794340000     -5.5610760000      0.4995360000
H                  8.5167490000     -6.4591070000     -0.9591600000
H                  7.0071640000     -6.8220850000     -0.1137330000
$end

$rem
BASIS  =  6-311++G(d,p)
GUI  =  2
JOB_TYPE  =  SP
METHOD  =  B3LYP
SCF_CONVERGENCE  = 8
SOLVENT_METHOD = sm12
$end

$smx
solvent dimethylformamide
charges CM5
$end

--------------------------------------------------------------

             Standard Nuclear Orientation (Angstroms)
    I     Atom           X                Y                Z
 ----------------------------------------------------------------
    1      C       0.6491370000    -1.7247800000    -0.9505770000
    2      C      -0.5061100000    -1.1456530000    -0.2785310000
    3      C      -0.4308930000     0.0189200000     0.4421270000
    4      C       0.8104070000     0.7778350000     0.5976250000
    5      C       1.9453880000     0.1712390000    -0.0897820000
    6      C       1.9086610000    -0.9809320000    -0.8254490000
    7      O       0.5918470000    -2.7927120000    -1.6016910000
    8      O       0.8828380000     1.8336760000     1.2518320000
    9      Br     -2.1376060000    -2.1336320000    -0.4725070000
   10      Br     -1.9479130000     0.7807350000     1.3295960000
   11      Br      3.6017470000     1.1565940000     0.1181950000
   12      C       3.0976260000    -1.5904910000    -1.5236230000
   13      C       3.8331440000    -2.6303350000    -0.6569840000
   14      C       5.0157870000    -3.2777240000    -1.3852820000
   15      C       5.7596460000    -4.3190710000    -0.5415970000
   16      C       6.9426980000    -4.9719900000    -1.2656960000
   17      C       7.6791430000    -6.0116510000    -0.4147080000
   18      H       3.7970470000    -0.8048380000    -1.8186490000
   19      H       2.7331610000    -2.0888240000    -2.4255970000
   20      H       3.1178290000    -3.4036870000    -0.3586740000
   21      H       4.1874970000    -2.1478850000     0.2612520000
   22      H       5.7215720000    -2.4964120000    -1.6984870000
   23      H       4.6543760000    -3.7515480000    -2.3074510000
   24      H       5.0540270000    -5.0994470000    -0.2278330000
   25      H       6.1192200000    -3.8465530000     0.3821300000
   26      H       7.6480830000    -4.1923150000    -1.5795230000
   27      H       6.5835260000    -5.4447510000    -2.1882880000
   28      H       8.0794340000    -5.5610760000     0.4995360000
   29      H       8.5167490000    -6.4591070000    -0.9591600000
   30      H       7.0071640000    -6.8220850000    -0.1137330000
 ----------------------------------------------------------------

   18   -8338.2233511561      5.30e-09  Convergence criterion met
 Total energy in the final basis set =    -8338.3002003074

                    Orbital Energies (a.u.)
 --------------------------------------------------------------

 Alpha MOs
 -- Occupied --
********-482.8249-482.8220 -62.4779 -62.4775 -62.4746 -56.2984 -56.2980
-56.2950 -56.2947 -56.2943 -56.2942 -56.2938 -56.2914 -56.2911 -19.0862
-19.0858 -10.2433 -10.2388 -10.2311 -10.2296 -10.2241 -10.1910 -10.1710
-10.1674 -10.1669 -10.1661 -10.1655 -10.1592  -8.6865  -8.6862  -8.6832
 -6.5181  -6.5177  -6.5143  -6.5055  -6.5051  -6.5041  -6.5038  -6.5022
 -6.5012  -2.6291  -2.6287  -2.6255  -2.6254  -2.6251  -2.6245  -2.6241
 -2.6218  -2.6212  -2.6145  -2.6145  -2.6142  -2.6142  -2.6116  -2.6115
 -1.0185  -1.0146  -0.8659  -0.8357  -0.8097  -0.7902  -0.7803  -0.7659
 -0.7342  -0.6958  -0.6807  -0.6441  -0.5955  -0.5806  -0.5738  -0.5651
 -0.5173  -0.4820  -0.4622  -0.4488  -0.4411  -0.4372  -0.4269  -0.4197
 -0.4095  -0.4042  -0.3978  -0.3945  -0.3867  -0.3851  -0.3706  -0.3557
 -0.3513  -0.3415  -0.3352  -0.3314  -0.3270  -0.3228  -0.3115  -0.2980
 -0.2978  -0.2816  -0.2720  -0.2686  -0.2554  -0.2433  -0.2404  -0.1699

 Beta MOs
 -- Occupied --
********-482.8249-482.8220 -62.4779 -62.4775 -62.4746 -56.2984 -56.2980
-56.2950 -56.2946 -56.2942 -56.2942 -56.2938 -56.2914 -56.2911 -19.0791
-19.0788 -10.2424 -10.2377 -10.2296 -10.2282 -10.2232 -10.1899 -10.1711
-10.1673 -10.1669 -10.1661 -10.1655 -10.1592  -8.6865  -8.6861  -8.6832
 -6.5182  -6.5177  -6.5144  -6.5053  -6.5050  -6.5041  -6.5038  -6.5021
 -6.5012  -2.6291  -2.6287  -2.6254  -2.6254  -2.6250  -2.6245  -2.6241
 -2.6218  -2.6212  -2.6145  -2.6144  -2.6141  -2.6141  -2.6115  -2.6115
 -1.0067  -1.0022  -0.8609  -0.8342  -0.8095  -0.7886  -0.7794  -0.7643
 -0.7327  -0.6948  -0.6730  -0.6423  -0.5946  -0.5806  -0.5698  -0.5620
 -0.5154  -0.4819  -0.4585  -0.4484  -0.4358  -0.4333  -0.4200  -0.4138
 -0.4073  -0.4018  -0.3956  -0.3879  -0.3843  -0.3703  -0.3645  -0.3547
 -0.3506  -0.3366  -0.3341  -0.3307  -0.3267  -0.3181  -0.3010  -0.2975
 -0.2930  -0.2813  -0.2710  -0.2494  -0.2475  -0.2378  -0.2348

          Ground-State Mulliken Net Atomic Charges

     Atom                 Charge (a.u.)    Spin (a.u.)
  --------------------------------------------------------
      1 C                    -1.762240       0.071002
      2 C                    -0.314544       0.074732
      3 C                     0.783660       0.096661
      4 C                    -1.747451       0.054598
      5 C                     0.278825       0.056120
      6 C                     0.778382       0.090500
      7 O                    -0.246605       0.266773
      8 O                    -0.211599       0.258614
      9 Br                   -0.017034       0.008092
     10 Br                   -0.002713       0.008594
     11 Br                    0.096984       0.005311
     12 C                     0.072134       0.010316
     13 C                    -1.395428      -0.003951
     14 C                     0.247595       0.006168
     15 C                     0.578923      -0.003445
     16 C                     0.375109       0.000055
     17 C                    -0.140828       0.000027
     18 H                     0.154087       0.000553
     19 H                     0.121412       0.001827
     20 H                     0.084550      -0.001481
     21 H                     0.040074      -0.001140
     22 H                     0.154206      -0.000159
     23 H                     0.137187       0.000131
     24 H                     0.092695      -0.000043
     25 H                     0.111061       0.000172
     26 H                     0.117086      -0.000006
     27 H                     0.111533      -0.000008
     28 H                     0.137543      -0.000004
     29 H                     0.229663      -0.000012
     30 H                     0.135734       0.000005
  --------------------------------------------------------
  Sum of atomic charges =    -1.000000

                    Cartesian Multipole Moments
 -----------------------------------------------------------------
    Charge (ESU x 10^10)
                -4.8032
    Dipole Moment (Debye)
         X      -2.0129      Y       1.3485      Z      -0.1891
       Tot       2.4302
    Quadrupole Moments (Debye-Ang)
        XX    -159.0054     XY      -4.1122     YY    -170.9156
        XZ      -0.6615     YZ     -13.8674     ZZ    -154.1387

 Total job time:  940.97s(wall), 7199.89s(cpu)
        *  Thank you very much for using Q-Chem.  Have a nice day.  *
