 Gaussian 16, Revision A.03,
 Gaussian 16:  ES64L-G16RevA.03 25-Dec-2016

 --------------------------------------
 #P UB3LYP/6-311++G(d,p) nosym opt freq
 --------------------------------------

 -------
 Radical
 -------
 Symbolic Z-matrix:
 Charge = -1 Multiplicity = 2

 SCF Done:  E(UB3LYP) =  -8338.23056194     A.U. after   22 cycles
 Optimization completed.
    -- Stationary point found.
 Normal termination of Gaussian 16 at Sat Jan  6 05:47:40 2024.

 ----------------------------------------------------------------------
 #P Geom=AllCheck Guess=TCheck SCRF=Check GenChk UB3LYP/6-311++G(d,p) F
 req
 ----------------------------------------------------------------------

 Structure from the checkpoint file:  "027-rad.chk"
 -------
 Radical
 -------
 Charge = -1 Multiplicity = 2

                          Input orientation:
 ---------------------------------------------------------------------
 Center     Atomic      Atomic             Coordinates (Angstroms)
 Number     Number       Type             X           Y           Z
 ---------------------------------------------------------------------
      1          6           0        0.649137   -1.724780   -0.950577
      2          6           0       -0.506110   -1.145653   -0.278531
      3          6           0       -0.430893    0.018920    0.442127
      4          6           0        0.810407    0.777835    0.597625
      5          6           0        1.945388    0.171239   -0.089782
      6          6           0        1.908661   -0.980932   -0.825449
      7          8           0        0.591847   -2.792712   -1.601691
      8          8           0        0.882838    1.833676    1.251832
      9         35           0       -2.137606   -2.133632   -0.472507
     10         35           0       -1.947913    0.780735    1.329596
     11         35           0        3.601747    1.156594    0.118195
     12          6           0        3.097626   -1.590491   -1.523623
     13          6           0        3.833144   -2.630335   -0.656984
     14          6           0        5.015787   -3.277724   -1.385282
     15          6           0        5.759646   -4.319071   -0.541597
     16          6           0        6.942698   -4.971990   -1.265696
     17          6           0        7.679143   -6.011651   -0.414708
     18          1           0        3.797047   -0.804838   -1.818649
     19          1           0        2.733161   -2.088824   -2.425597
     20          1           0        3.117829   -3.403687   -0.358674
     21          1           0        4.187497   -2.147885    0.261252
     22          1           0        5.721572   -2.496412   -1.698487
     23          1           0        4.654376   -3.751548   -2.307451
     24          1           0        5.054027   -5.099447   -0.227833
     25          1           0        6.119220   -3.846553    0.382130
     26          1           0        7.648083   -4.192315   -1.579523
     27          1           0        6.583526   -5.444751   -2.188288
     28          1           0        8.079434   -5.561076    0.499536
     29          1           0        8.516749   -6.459107   -0.959160
     30          1           0        7.007164   -6.822085   -0.113733
 ---------------------------------------------------------------------

 SCF Done:  E(UB3LYP) =  -8338.23056194     A.U. after    1 cycles

 Alpha  occ. eigenvalues -- -482.71264-482.71238-482.71136 -62.36539 -62.36513
 Alpha  occ. eigenvalues --  -62.36415 -56.18574 -56.18546 -56.18435 -56.18206
 Alpha  occ. eigenvalues --  -56.18181 -56.18160 -56.18135 -56.18083 -56.18048
 Alpha  occ. eigenvalues --  -18.96847 -18.96746 -10.12608 -10.12213 -10.11617
 Alpha  occ. eigenvalues --  -10.11455 -10.11006 -10.09694 -10.09649 -10.08627
 Alpha  occ. eigenvalues --  -10.07745 -10.07643 -10.06610 -10.06228  -8.57505
 Alpha  occ. eigenvalues --   -8.57480  -8.57379  -6.40646  -6.40615  -6.40470
 Alpha  occ. eigenvalues --   -6.39409  -6.39386  -6.39292  -6.39274  -6.39252
 Alpha  occ. eigenvalues --   -6.39192  -2.51743  -2.51713  -2.51573  -2.51412
 Alpha  occ. eigenvalues --   -2.51384  -2.51310  -2.51282  -2.51253  -2.51178
 Alpha  occ. eigenvalues --   -2.50322  -2.50320  -2.50301  -2.50299  -2.50239
 Alpha  occ. eigenvalues --   -2.50238  -0.90041  -0.89674  -0.75092  -0.73062
 Alpha  occ. eigenvalues --   -0.71959  -0.68639  -0.67640  -0.65803  -0.63780
 Alpha  occ. eigenvalues --   -0.59661  -0.56929  -0.54929  -0.51031  -0.49248
 Alpha  occ. eigenvalues --   -0.45879  -0.45233  -0.40640  -0.39844  -0.36343
 Alpha  occ. eigenvalues --   -0.36134  -0.34925  -0.33512  -0.32054  -0.31900
 Alpha  occ. eigenvalues --   -0.31218  -0.29973  -0.29749  -0.29147  -0.28381
 Alpha  occ. eigenvalues --   -0.27372  -0.27298  -0.26638  -0.25823  -0.24884
 Alpha  occ. eigenvalues --   -0.24503  -0.23659  -0.23147  -0.22285  -0.20114
 Alpha  occ. eigenvalues --   -0.18670  -0.18659  -0.17260  -0.16020  -0.15576
 Alpha  occ. eigenvalues --   -0.13723  -0.12760  -0.12700  -0.05256
 Alpha virt. eigenvalues --    0.05199   0.06884   0.07357   0.07865   0.08231
 Alpha virt. eigenvalues --    0.09016   0.09113   0.10281   0.10636   0.10885
 Alpha virt. eigenvalues --    0.11221   0.11651   0.12030   0.12727   0.13093

  Beta  occ. eigenvalues -- -482.71263-482.71237-482.71135 -62.36537 -62.36512
  Beta  occ. eigenvalues --  -62.36414 -56.18575 -56.18548 -56.18437 -56.18200
  Beta  occ. eigenvalues --  -56.18175 -56.18159 -56.18135 -56.18080 -56.18048
  Beta  occ. eigenvalues --  -18.96127 -18.96036 -10.12524 -10.12107 -10.11466
  Beta  occ. eigenvalues --  -10.11320 -10.10908 -10.09694 -10.09649 -10.08626
  Beta  occ. eigenvalues --  -10.07744 -10.07527 -10.06599 -10.06237  -8.57503
  Beta  occ. eigenvalues --   -8.57478  -8.57379  -6.40650  -6.40618  -6.40474
  Beta  occ. eigenvalues --   -6.39398  -6.39376  -6.39286  -6.39273  -6.39251
  Beta  occ. eigenvalues --   -6.39192  -2.51744  -2.51714  -2.51575  -2.51407
  Beta  occ. eigenvalues --   -2.51379  -2.51312  -2.51284  -2.51251  -2.51180
  Beta  occ. eigenvalues --   -2.50316  -2.50315  -2.50296  -2.50294  -2.50236
  Beta  occ. eigenvalues --   -2.50235  -0.88856  -0.88438  -0.74597  -0.73031
  Beta  occ. eigenvalues --   -0.71828  -0.68593  -0.67493  -0.65642  -0.63652
  Beta  occ. eigenvalues --   -0.59526  -0.56398  -0.54516  -0.50969  -0.49199
  Beta  occ. eigenvalues --   -0.45488  -0.44886  -0.40581  -0.39715  -0.36312
  Beta  occ. eigenvalues --   -0.36105  -0.34690  -0.33258  -0.31826  -0.31194
  Beta  occ. eigenvalues --   -0.30873  -0.29649  -0.29235  -0.28657  -0.28159
  Beta  occ. eigenvalues --   -0.27163  -0.26562  -0.25860  -0.24850  -0.24783
  Beta  occ. eigenvalues --   -0.24405  -0.23542  -0.22967  -0.21589  -0.18955
  Beta  occ. eigenvalues --   -0.18628  -0.18151  -0.17231  -0.15939  -0.13335
  Beta  occ. eigenvalues --   -0.13015  -0.12167  -0.12111
  Beta virt. eigenvalues --    0.01810   0.05199   0.06988   0.07366   0.07874
  Beta virt. eigenvalues --    0.08245   0.09162   0.10258   0.10428   0.10728
  Beta virt. eigenvalues --    0.10906   0.11258   0.11673   0.12080   0.12745

 Mulliken charges and spin densities:
               1          2
     1  C   -1.159616   0.075833
     2  C   -0.245535   0.084161
     3  C    0.582489   0.103036
     4  C   -0.834696   0.046685
     5  C    0.435597   0.048117
     6  C    2.173602   0.092153
     7  O   -0.288097   0.266018
     8  O   -0.242814   0.261405
     9  Br  -0.164074   0.005374
    10  Br  -0.155746   0.005894
    11  Br  -0.141290   0.003675
    12  C   -1.009004   0.008859
    13  C   -0.535512  -0.002602
    14  C   -0.125213   0.005667
    15  C   -0.237472  -0.003733
    16  C   -0.165125   0.000056
    17  C   -0.664009   0.000026
    18  H    0.165894   0.000710
    19  H    0.214870   0.001772
    20  H    0.197331  -0.001140
    21  H    0.104676  -0.002089
    22  H    0.105308  -0.000098
    23  H    0.111271   0.000064
    24  H    0.114883  -0.000086
    25  H    0.118655   0.000274
    26  H    0.123518  -0.000014
    27  H    0.124805  -0.000004
    28  H    0.133093  -0.000005
    29  H    0.127560  -0.000013
    30  H    0.134650   0.000007
 Sum of Mulliken charges =  -1.00000   1.00000

 Dipole moment (field-independent basis, Debye):
    X=             -2.7078    Y=              1.8282    Z=             -0.1816  Tot=              3.2722
 Quadrupole moment (field-independent basis, Debye-Ang):
   XX=           -167.8452   YY=           -174.4653   ZZ=           -154.0241
   XY=              0.2826   XZ=              0.2285   YZ=            -14.2559

  Exact polarizability: 288.577  -5.459 246.009 -19.798  47.195 177.997
 Approx polarizability: 371.329  31.692 400.700 -16.269  98.784 297.191

                      1                      2                      3
                      A                      A                      A
 Frequencies --     16.3346                25.0134                45.6601
 Red. masses --      6.4713                 9.6674                 1.8830
 Frc consts  --      0.0010                 0.0036                 0.0023
 IR Inten    --      0.1685                 0.2624                 0.3023

                      4                      5                      6
                      A                      A                      A
 Frequencies --     49.9950                68.2269                71.1504
 Red. masses --      4.6709                 3.3580                 9.5443
 Frc consts  --      0.0069                 0.0092                 0.0285
 IR Inten    --      0.7069                 0.2984                 3.6677

                      7                      8                      9
                      A                      A                      A
 Frequencies --     95.6247               123.6686               129.2488
 Red. masses --      6.5801                 5.6795                17.3699
 Frc consts  --      0.0355                 0.0512                 0.1710
 IR Inten    --      0.8129                 0.9426                 0.5574

                     10                     11                     12
                      A                      A                      A
 Frequencies --    130.2234               143.9941               149.1256
 Red. masses --      1.8416                 2.3862                11.3619
 Frc consts  --      0.0184                 0.0292                 0.1489
 IR Inten    --      0.2001                 0.2815                 2.4666

                     13                     14                     15
                      A                      A                      A
 Frequencies --    185.1297               199.1759               228.5422
 Red. masses --     11.1172                30.8537                 4.6358
 Frc consts  --      0.2245                 0.7212                 0.1427
 IR Inten    --      0.9827                 0.1240                 0.0665

                     16                     17                     18
                      A                      A                      A
 Frequencies --    242.1823               244.9004               287.5165
 Red. masses --      2.7696                 1.4128                 8.4991
 Frc consts  --      0.0957                 0.0499                 0.4139
 IR Inten    --      0.4809                 0.1431                 0.5405

                     19                     20                     21
                      A                      A                      A
 Frequencies --    310.3882               313.6812               357.5210
 Red. masses --      7.4923                10.7949                 6.7263
 Frc consts  --      0.4253                 0.6258                 0.5066
 IR Inten    --      0.1472                 0.0280                 0.1492

                     22                     23                     24
                      A                      A                      A
 Frequencies --    366.9739               418.9275               431.2939
 Red. masses --      3.6486                 4.5808                 3.6552
 Frc consts  --      0.2895                 0.4737                 0.4006
 IR Inten    --      2.1093                 5.7888                 0.3051

                     25                     26                     27
                      A                      A                      A
 Frequencies --    485.3088               520.7117               576.0801
 Red. masses --      9.8758                 6.4043                 8.5663
 Frc consts  --      1.3704                 1.0231                 1.6750
 IR Inten    --      0.2041                22.4681                18.3217

                     28                     29                     30
                      A                      A                      A
 Frequencies --    668.4587               683.4239               709.4925
 Red. masses --      8.6298                 3.7691                11.4578
 Frc consts  --      2.2720                 1.0372                 3.3982
 IR Inten    --     41.6548                 0.4185                 8.3618

                     31                     32                     33
                      A                      A                      A
 Frequencies --    731.9983               745.7034               747.4345
 Red. masses --      1.0748                 1.3008                 5.8534
 Frc consts  --      0.3393                 0.4262                 1.9267
 IR Inten    --      4.4509                 0.3524                 3.3467

                     34                     35                     36
                      A                      A                      A
 Frequencies --    797.1621               816.9298               870.1741
 Red. masses --      1.3385                 7.4047                 2.8080
 Frc consts  --      0.5011                 2.9116                 1.2527
 IR Inten    --      2.7044                67.9930                27.7811

                     37                     38                     39
                      A                      A                      A
 Frequencies --    892.8167               902.9461               991.8852
 Red. masses --      1.9659                 1.8067                 2.2789
 Frc consts  --      0.9233                 0.8679                 1.3210
 IR Inten    --      2.8282                38.4994                17.2102

                     40                     41                     42
                      A                      A                      A
 Frequencies --    998.5843              1021.5738              1030.0511
 Red. masses --      2.1434                 3.1663                 3.4980
 Frc consts  --      1.2593                 1.9469                 2.1867
 IR Inten    --      9.3823                 1.8340                11.4086

                     43                     44                     45
                      A                      A                      A
 Frequencies --   1049.8212              1064.7315              1099.1821
 Red. masses --      2.7563                 2.2892                 2.3772
 Frc consts  --      1.7898                 1.5290                 1.6922
 IR Inten    --      1.8420                 0.3549                85.3589

                     46                     47                     48
                      A                      A                      A
 Frequencies --   1118.6442              1130.9224              1182.7234
 Red. masses --      5.2907                 2.4588                 3.3310
 Frc consts  --      3.9008                 1.8528                 2.7453
 IR Inten    --     42.9133                 1.7833                62.2155

                     49                     50                     51
                      A                      A                      A
 Frequencies --   1223.9760              1251.3044              1277.5193
 Red. masses --      1.6363                 1.2757                 1.4913
 Frc consts  --      1.4443                 1.1768                 1.4341
 IR Inten    --      3.5626                 0.1763                 2.2938

                     52                     53                     54
                      A                      A                      A
 Frequencies --   1310.3757              1314.8580              1327.9975
 Red. masses --      1.5376                 1.3433                 1.0632
 Frc consts  --      1.5555                 1.3683                 1.1047
 IR Inten    --      3.8408                 1.0523                 0.4099

                     55                     56                     57
                      A                      A                      A
 Frequencies --   1333.3803              1346.9558              1364.3348
 Red. masses --      1.2377                 1.5871                 1.4984
 Frc consts  --      1.2965                 1.6965                 1.6434
 IR Inten    --      1.5905                 0.9790                 2.2162

                     58                     59                     60
                      A                      A                      A
 Frequencies --   1386.2872              1394.2130              1407.7788
 Red. masses --      1.4803                 1.6001                 1.2498
 Frc consts  --      1.6761                 1.8325                 1.4594
 IR Inten    --      0.5177                 1.9255                 2.0479

                     61                     62                     63
                      A                      A                      A
 Frequencies --   1464.8233              1469.4909              1484.5111
 Red. masses --      5.9672                 1.2430                 1.0758
 Frc consts  --      7.5438                 1.5814                 1.3969
 IR Inten    --     12.8172                25.4440                 3.3563

                     64                     65                     66
                      A                      A                      A
 Frequencies --   1485.6211              1493.7358              1497.8178
 Red. masses --      1.0739                 1.0743                 1.0401
 Frc consts  --      1.3965                 1.4122                 1.3748
 IR Inten    --      0.3120                 0.9349                 6.9350

                     67                     68                     69
                      A                      A                      A
 Frequencies --   1503.4149              1512.1503              1532.1323
 Red. masses --      1.0823                 1.0938                 8.3998
 Frc consts  --      1.4413                 1.4736                11.6174
 IR Inten    --      1.2302                 8.7085               200.1212

                     70                     71                     72
                      A                      A                      A
 Frequencies --   1552.5011              1597.3304              2986.8301
 Red. masses --     11.8610                10.7786                 1.0578
 Frc consts  --     16.8437                16.2032                 5.5598
 IR Inten    --    120.5895                 9.5294                 7.3915

                     73                     74                     75
                      A                      A                      A
 Frequencies --   2991.4026              3002.1754              3005.3826
 Red. masses --      1.0581                 1.0649                 1.0926
 Frc consts  --      5.5786                 5.6550                 5.8145
 IR Inten    --      7.4801                60.9924                 7.7153

                     76                     77                     78
                      A                      A                      A
 Frequencies --   3010.7290              3015.2602              3019.3223
 Red. masses --      1.0353                 1.0806                 1.0811
 Frc consts  --      5.5291                 5.7886                 5.8065
 IR Inten    --     50.0978                19.1949                14.9976

                     79                     80                     81
                      A                      A                      A
 Frequencies --   3038.5542              3043.6906              3058.1321
 Red. masses --      1.1034                 1.0590                 1.1026
 Frc consts  --      6.0020                 5.7801                 6.0755
 IR Inten    --     36.9571                50.8018                22.4692

                     82                     83                     84
                      A                      A                      A
 Frequencies --   3070.1497              3072.5632              3089.2356
 Red. masses --      1.1009                 1.1023                 1.1053
 Frc consts  --      6.1140                 6.1315                 6.2147
 IR Inten    --     62.5735                75.2821                20.9755

 - Thermochemistry -
 -------------------
 Temperature   298.150 Kelvin.  Pressure   1.00000 Atm.
 Atom     1 has atomic number  6 and mass  12.00000

 Molecular mass:   425.84656 amu.
 Principal axes and moments of inertia in atomic units:
                           1         2         3
     Eigenvalues --  6146.24320********************
           X            0.91242   0.40614   0.05040
           Y           -0.37473   0.87859  -0.29607
           Z           -0.16453   0.25125   0.95384
 This molecule is an asymmetric top.
 Rotational symmetry number  1.
 Warning -- assumption of classical behavior for rotation
           may cause significant error
 Rotational temperatures (Kelvin)      0.01409     0.00528     0.00403
 Rotational constants (GHZ):           0.29363     0.10997     0.08403
 Zero-point vibrational energy     582624.4 (Joules/Mol)
                                  139.25058 (Kcal/Mol)
 Warning -- explicit consideration of  27 degrees of freedom as
           vibrations may cause significant error
 Vibrational temperatures:     23.50    35.99    65.69    71.93    98.16
          (Kelvin)            102.37   137.58   177.93   185.96   187.36
                              207.18   214.56   266.36   286.57   328.82
                              348.45   352.36   413.67   446.58   451.32
                              514.39   527.99   602.74   620.54   698.25
                              749.19   828.85   961.76   983.29  1020.80
                             1053.18  1072.90  1075.39  1146.94  1175.38
                             1251.99  1284.56  1299.14  1427.10  1436.74
                             1469.82  1482.01  1510.46  1531.91  1581.48
                             1609.48  1627.15  1701.68  1761.03  1800.35
                             1838.07  1885.34  1891.79  1910.69  1918.44
                             1937.97  1962.97  1994.56  2005.96  2025.48
                             2107.55  2114.27  2135.88  2137.48  2149.15
                             2155.03  2163.08  2175.65  2204.40  2233.70
                             2298.20  4297.38  4303.96  4319.46  4324.08
                             4331.77  4338.29  4344.13  4371.80  4379.19
                             4399.97  4417.26  4420.73  4444.72

 Zero-point correction=                           0.221910 (Hartree/Particle)
 Thermal correction to Energy=                    0.241115
 Thermal correction to Enthalpy=                  0.242060
 Thermal correction to Gibbs Free Energy=         0.168751
 Sum of electronic and zero-point Energies=          -8338.008652
 Sum of electronic and thermal Energies=             -8337.989446
 Sum of electronic and thermal Enthalpies=           -8337.988502
 Sum of electronic and thermal Free Energies=        -8338.061811

                     E (Thermal)             CV                S
                      KCal/Mol        Cal/Mol-Kelvin    Cal/Mol-Kelvin
 Total                  151.302             66.126            154.291
 Electronic               0.000              0.000              1.377
 Translational            0.889              2.981             44.037
 Rotational               0.889              2.981             36.025
 Vibrational            149.525             60.164             72.852
 Vibration     1          0.593              1.986              7.036
 Vibration     2          0.593              1.985              6.190
 Vibration     3          0.595              1.979              4.997
 Vibration     4          0.595              1.978              4.818
 Vibration     5          0.598              1.969              4.204
 Vibration     6          0.598              1.968              4.121
 Vibration     7          0.603              1.952              3.542
 Vibration     8          0.610              1.929              3.042
 Vibration     9          0.612              1.924              2.957
 Vibration    10          0.612              1.923              2.943
 Vibration    11          0.616              1.909              2.750
 Vibration    12          0.618              1.904              2.683
 Vibration    13          0.631              1.860              2.276
 Vibration    14          0.637              1.841              2.141
 Vibration    15          0.651              1.797              1.890
 Vibration    16          0.658              1.776              1.787
 Vibration    17          0.660              1.771              1.767
 Vibration    18          0.685              1.697              1.489
 Vibration    19          0.699              1.654              1.360
 Vibration    20          0.702              1.648              1.343
 Vibration    21          0.733              1.560              1.133
 Vibration    22          0.740              1.540              1.092
 Vibration    23          0.782              1.429              0.896
 Vibration    24          0.792              1.402              0.854
 Vibration    25          0.841              1.283              0.696
 Vibration    26          0.876              1.204              0.608
 Vibration    27          0.932              1.083              0.493

 Optimization completed.
    -- Stationary point found.
 Normal termination of Gaussian 16 at Sat Jan  6 06:59:36 2024.
