 Gaussian 16, Revision A.03,
 Gaussian 16:  ES64L-G16RevA.03 25-Dec-2016

 --------------------------------------
 #P UB3LYP/6-311++G(d,p) nosym opt freq
 --------------------------------------

 -------
 Radical
 -------
 Symbolic Z-matrix:
 Charge = -1 Multiplicity = 2

 SCF Done:  E(UB3LYP) =  -799.678636588     A.U. after   23 cycles
 SCF Done:  E(UB3LYP) =  -799.712009377     A.U. after   20 cycles
 SCF Done:  E(UB3LYP) =  -799.730815263     A.U. after   19 cycles
 SCF Done:  E(UB3LYP) =  -799.750168280     A.U. after   18 cycles
 SCF Done:  E(UB3LYP) =  -799.760098708     A.U. after   18 cycles
 SCF Done:  E(UB3LYP) =  -799.765605927     A.U. after   16 cycles
 SCF Done:  E(UB3LYP) =  -799.769931607     A.U. after   17 cycles
 SCF Done:  E(UB3LYP) =  -799.775608557     A.U. after   18 cycles
 SCF Done:  E(UB3LYP) =  -799.777758004     A.U. after   18 cycles
 SCF Done:  E(UB3LYP) =  -799.779260670     A.U. after   17 cycles
 SCF Done:  E(UB3LYP) =  -799.779465718     A.U. after   16 cycles
 SCF Done:  E(UB3LYP) =  -799.779739272     A.U. after   16 cycles
 SCF Done:  E(UB3LYP) =  -799.779824823     A.U. after   15 cycles
 SCF Done:  E(UB3LYP) =  -799.779838256     A.U. after   14 cycles
 SCF Done:  E(UB3LYP) =  -799.779848299     A.U. after   13 cycles
 SCF Done:  E(UB3LYP) =  -799.779849850     A.U. after   12 cycles
 SCF Done:  E(UB3LYP) =  -799.779850677     A.U. after   12 cycles
 SCF Done:  E(UB3LYP) =  -799.779850980     A.U. after   11 cycles
 Optimization completed.
    -- Stationary point found.
 Normal termination of Gaussian 16 at Thu Dec 21 08:20:38 2023.

 ----------------------------------------------------------------------
 #P Geom=AllCheck Guess=TCheck SCRF=Check GenChk UB3LYP/6-311++G(d,p) F
 req
 ----------------------------------------------------------------------

 Structure from the checkpoint file:  "167-rad.chk"
 -------
 Radical
 -------
 Charge = -1 Multiplicity = 2

                          Input orientation:
 ---------------------------------------------------------------------
 Center     Atomic      Atomic             Coordinates (Angstroms)
 Number     Number       Type             X           Y           Z
 ---------------------------------------------------------------------
      1          7           0        3.576256   -1.269017    0.138491
      2          6           0        2.883188   -0.090457   -0.082552
      3          6           0        3.580760    1.094790   -0.326454
      4          6           0        2.900934    2.309900   -0.487380
      5          6           0        1.523406    2.360307   -0.403082
      6          6           0        0.779993    1.184336   -0.171192
      7          6           0       -0.678691    1.301039   -0.104805
      8          8           0       -1.226981    2.437267   -0.256503
      9          6           0       -1.441695    0.082745    0.121403
     10          6           0       -2.876047    0.106749    0.211737
     11          7           0       -3.556992    1.312756    0.208037
     12          6           0       -3.579657   -1.092232    0.346354
     13          6           0       -2.904773   -2.318610    0.418414
     14          6           0       -1.525714   -2.365527    0.362149
     15          6           0       -0.777673   -1.179051    0.213268
     16          6           0        0.681043   -1.295726    0.147511
     17          8           0        1.225125   -2.441548    0.222888
     18          6           0        1.447399   -0.069926   -0.019454
     19          1           0        2.977371   -2.097094    0.112179
     20          1           0        4.495079   -1.328405   -0.271611
     21          1           0        4.666498    1.063928   -0.370534
     22          1           0        3.469131    3.217353   -0.672244
     23          1           0        0.976888    3.287544   -0.514439
     24          1           0       -4.515643    1.281397   -0.101722
     25          1           0       -2.975912    2.100296   -0.087089
     26          1           0       -4.664077   -1.058367    0.414367
     27          1           0       -3.477339   -3.235585    0.527129
     28          1           0       -0.981880   -3.298861    0.425134
 ---------------------------------------------------------------------

 SCF Done:  E(UB3LYP) =  -799.779850980     A.U. after    1 cycles

 Alpha  occ. eigenvalues --  -18.94754 -18.94753 -14.18786 -14.18785 -10.09789
 Alpha  occ. eigenvalues --  -10.09788 -10.09535 -10.09535 -10.05288 -10.05288
 Alpha  occ. eigenvalues --  -10.04758 -10.04757 -10.04631 -10.04631 -10.04511
 Alpha  occ. eigenvalues --  -10.04511 -10.03495 -10.03495  -0.87478  -0.87199
 Alpha  occ. eigenvalues --   -0.79446  -0.79342  -0.72340  -0.70916  -0.65954
 Alpha  occ. eigenvalues --   -0.61706  -0.61067  -0.60286  -0.54049  -0.51443
 Alpha  occ. eigenvalues --   -0.50412  -0.46178  -0.43580  -0.43529  -0.40504
 Alpha  occ. eigenvalues --   -0.38924  -0.37817  -0.35880  -0.34873  -0.33568
 Alpha  occ. eigenvalues --   -0.33132  -0.31366  -0.31257  -0.29763  -0.28834
 Alpha  occ. eigenvalues --   -0.27663  -0.27084  -0.26476  -0.25375  -0.24747
 Alpha  occ. eigenvalues --   -0.23831  -0.23332  -0.22739  -0.21812  -0.18977
 Alpha  occ. eigenvalues --   -0.18296  -0.14138  -0.12513  -0.11909  -0.10979
 Alpha  occ. eigenvalues --   -0.09256  -0.08631  -0.01077
 Alpha virt. eigenvalues --    0.08004   0.08149   0.08300   0.09498   0.09675
 Alpha virt. eigenvalues --    0.10060   0.11191   0.12059   0.12885   0.13137
 Alpha virt. eigenvalues --    0.13856   0.15200   0.15490   0.15946   0.16252

  Beta  occ. eigenvalues --  -18.94226 -18.94225 -14.18771 -14.18771 -10.09617
  Beta  occ. eigenvalues --  -10.09616 -10.09543 -10.09542 -10.05234 -10.05234
  Beta  occ. eigenvalues --  -10.04736 -10.04735 -10.04528 -10.04527 -10.04420
  Beta  occ. eigenvalues --  -10.04419 -10.03481 -10.03480  -0.86592  -0.86284
  Beta  occ. eigenvalues --   -0.79375  -0.79252  -0.72082  -0.70780  -0.65570
  Beta  occ. eigenvalues --   -0.61506  -0.60784  -0.60142  -0.53371  -0.51254
  Beta  occ. eigenvalues --   -0.50194  -0.46105  -0.43395  -0.43338  -0.40368
  Beta  occ. eigenvalues --   -0.38857  -0.37731  -0.35682  -0.34603  -0.33490
  Beta  occ. eigenvalues --   -0.33030  -0.31262  -0.31162  -0.28789  -0.28629
  Beta  occ. eigenvalues --   -0.27231  -0.26864  -0.26081  -0.25238  -0.23780
  Beta  occ. eigenvalues --   -0.22826  -0.22822  -0.22250  -0.21444  -0.18377
  Beta  occ. eigenvalues --   -0.17635  -0.12076  -0.11962  -0.11431  -0.10509
  Beta  occ. eigenvalues --   -0.08341  -0.08176
  Beta virt. eigenvalues --    0.04472   0.08067   0.08147   0.09227   0.09493
  Beta virt. eigenvalues --    0.09740   0.11032   0.11205   0.12063   0.12888
  Beta virt. eigenvalues --    0.13317   0.13877   0.15218   0.15524   0.16105

 Mulliken charges and spin densities:
               1          2
     1  N   -0.373789   0.006361
     2  C    0.098959   0.015153
     3  C   -0.163095   0.079833
     4  C   -0.414111   0.046328
     5  C   -0.201991   0.040979
     6  C    0.635963   0.060570
     7  C   -0.884777   0.070396
     8  O   -0.380517   0.195551
     9  C    0.301929  -0.000102
    10  C    0.099156   0.015172
    11  N   -0.373897   0.006366
    12  C   -0.163152   0.079818
    13  C   -0.414085   0.046361
    14  C   -0.201932   0.040955
    15  C    0.635826   0.060614
    16  C   -0.884660   0.070383
    17  O   -0.380487   0.195534
    18  C    0.301819  -0.000094
    19  H    0.302425  -0.002916
    20  H    0.209170  -0.000858
    21  H    0.093316  -0.005999
    22  H    0.124855  -0.003537
    23  H    0.151639  -0.001779
    24  H    0.209156  -0.000857
    25  H    0.302470  -0.002918
    26  H    0.093319  -0.006000
    27  H    0.124855  -0.003538
    28  H    0.151636  -0.001778
 Sum of Mulliken charges =  -1.00000   1.00000

 Dipole moment (field-independent basis, Debye):
    X=             -0.0762    Y=             -0.1735    Z=             -1.3771  Tot=              1.3900
 Quadrupole moment (field-independent basis, Debye-Ang):
   XX=           -116.9010   YY=           -132.4589   ZZ=           -115.1285
   XY=              2.2535   XZ=             -0.1716   YZ=              2.0926

  Exact polarizability: 340.125  27.344 255.200 -16.510 -20.536 107.953
 Approx polarizability: 517.041  13.597 474.481 -21.147 -39.615 172.615

                      1                      2                      3
                      A                      A                      A
 Frequencies --     52.4802                73.1317               113.4315
 Red. masses --      6.7591                 4.8991                 7.5093
 Frc consts  --      0.0110                 0.0154                 0.0569
 IR Inten    --      5.3246                 0.7105                 0.0498

                      4                      5                      6
                      A                      A                      A
 Frequencies --    171.0333               200.2943               220.2339
 Red. masses --      7.0606                 4.2812                 5.0267
 Frc consts  --      0.1217                 0.1012                 0.1436
 IR Inten    --      0.2535                 0.4596                 6.7851

                      7                      8                      9
                      A                      A                      A
 Frequencies --    229.5196               274.3725               311.6955
 Red. masses --      3.7729                 3.5274                 5.0152
 Frc consts  --      0.1171                 0.1565                 0.2871
 IR Inten    --      9.3020                19.2571                 9.0082

                     10                     11                     12
                      A                      A                      A
 Frequencies --    359.8402               386.6600               391.3862
 Red. masses --      4.4972                 1.5695                 4.1303
 Frc consts  --      0.3431                 0.1382                 0.3728
 IR Inten    --     14.7340               177.2541                15.3256

                     13                     14                     15
                      A                      A                      A
 Frequencies --    404.7754               413.6871               423.3931
 Red. masses --      1.6290                 5.0870                 5.6877
 Frc consts  --      0.1573                 0.5129                 0.6007
 IR Inten    --     74.2099                 8.9159                 4.8034

                     16                     17                     18
                      A                      A                      A
 Frequencies --    451.6234               457.5066               494.4882
 Red. masses --      4.5726                 3.4285                 4.0998
 Frc consts  --      0.5495                 0.4228                 0.5906
 IR Inten    --      0.6041               113.0100                 3.2875

                     19                     20                     21
                      A                      A                      A
 Frequencies --    502.3511               535.1778               542.6807
 Red. masses --      6.3782                 5.0662                 4.4812
 Frc consts  --      0.9483                 0.8549                 0.7776
 IR Inten    --      0.2062                 2.4710                 5.4256

                     22                     23                     24
                      A                      A                      A
 Frequencies --    578.0411               594.3240               607.1202
 Red. masses --      4.2644                 5.9939                 5.7331
 Frc consts  --      0.8395                 1.2474                 1.2451
 IR Inten    --      3.4527                 0.0249                20.4125

                     25                     26                     27
                      A                      A                      A
 Frequencies --    661.0480               705.6578               710.3198
 Red. masses --      3.2829                 2.6324                 3.1459
 Frc consts  --      0.8452                 0.7723                 0.9352
 IR Inten    --      1.9103                81.0142                57.6955

                     28                     29                     30
                      A                      A                      A
 Frequencies --    727.7210               733.3291               757.6499
 Red. masses --      1.6608                 1.4749                 1.2867
 Frc consts  --      0.5182                 0.4673                 0.4352
 IR Inten    --     29.5922                82.6900                28.8711

                     31                     32                     33
                      A                      A                      A
 Frequencies --    774.2409               786.8871               786.9793
 Red. masses --      2.4401                 4.7951                 2.5591
 Frc consts  --      0.8618                 1.7493                 0.9338
 IR Inten    --     21.6101                 7.7346                76.0871

                     34                     35                     36
                      A                      A                      A
 Frequencies --    820.9903               850.2874               854.5680
 Red. masses --      6.0144                 1.4758                 1.5055
 Frc consts  --      2.3885                 0.6286                 0.6478
 IR Inten    --      1.2124                 0.4056                 0.4326

                     37                     38                     39
                      A                      A                      A
 Frequencies --    860.3738               913.6162               957.2927
 Red. masses --      6.8996                 5.7991                 1.2743
 Frc consts  --      3.0092                 2.8519                 0.6881
 IR Inten    --     42.1384                 2.8086                 0.0193

                     40                     41                     42
                      A                      A                      A
 Frequencies --    957.8771               978.6843              1052.3489
 Red. masses --      1.2812                 4.3219                 3.0459
 Frc consts  --      0.6926                 2.4390                 1.9874
 IR Inten    --      1.7936                 0.6473                20.8710

                     43                     44                     45
                      A                      A                      A
 Frequencies --   1073.0327              1074.5221              1151.1429
 Red. masses --      2.1081                 2.1153                 1.4689
 Frc consts  --      1.4301                 1.4390                 1.1468
 IR Inten    --     54.5548                 0.4086                94.2214

                     46                     47                     48
                      A                      A                      A
 Frequencies --   1155.1623              1162.8525              1177.4699
 Red. masses --      1.5087                 1.5193                 1.1316
 Frc consts  --      1.1861                 1.2104                 0.9243
 IR Inten    --      1.5021                46.4479                 0.0093

                     49                     50                     51
                      A                      A                      A
 Frequencies --   1190.7433              1230.8207              1243.1775
 Red. masses --      2.3971                 3.0354                 3.0703
 Frc consts  --      2.0025                 2.7093                 2.7957
 IR Inten    --      0.0069                58.1011                47.8845

                     52                     53                     54
                      A                      A                      A
 Frequencies --   1301.9441              1316.4788              1356.4841
 Red. masses --      3.2744                 2.5796                 7.3015
 Frc consts  --      3.2701                 2.6341                 7.9157
 IR Inten    --      5.3382                 0.1413                14.8800

                     55                     56                     57
                      A                      A                      A
 Frequencies --   1361.3906              1380.8634              1416.2230
 Red. masses --      4.4506                 4.7663                 2.5275
 Frc consts  --      4.8600                 5.3547                 2.9868
 IR Inten    --      0.4526                 0.4232               315.3592

                     58                     59                     60
                      A                      A                      A
 Frequencies --   1447.8059              1453.3996              1475.9536
 Red. masses --      2.6083                 4.4838                 3.1377
 Frc consts  --      3.2213                 5.5804                 4.0272
 IR Inten    --     38.3770                 0.2093                 1.1518

                     61                     62                     63
                      A                      A                      A
 Frequencies --   1505.9307              1522.7751              1567.9508
 Red. masses --      3.3404                 4.1644                 3.5069
 Frc consts  --      4.4634                 5.6895                 5.0797
 IR Inten    --      0.8459               621.4332               372.2799

                     64                     65                     66
                      A                      A                      A
 Frequencies --   1598.6759              1607.2337              1610.4645
 Red. masses --      2.2266                 1.5313                 2.1507
 Frc consts  --      3.3529                 2.3306                 3.2865
 IR Inten    --      1.1133               409.4098                 1.3812

                     67                     68                     69
                      A                      A                      A
 Frequencies --   1610.6780              1623.6854              3124.7268
 Red. masses --      5.8223                 7.5708                 1.0849
 Frc consts  --      8.8994                11.7597                 6.2413
 IR Inten    --     49.2978                 0.2630                61.1690

                     70                     71                     72
                      A                      A                      A
 Frequencies --   3124.8973              3146.3195              3146.6375
 Red. masses --      1.0851                 1.0925                 1.0923
 Frc consts  --      6.2430                 6.3718                 6.3721
 IR Inten    --      2.9353               129.8094                 1.7013

                     73                     74                     75
                      A                      A                      A
 Frequencies --   3199.9304              3200.1866              3357.0075
 Red. masses --      1.0913                 1.0913                 1.0626
 Frc consts  --      6.5839                 6.5851                 7.0554
 IR Inten    --     25.2096                 0.4803                17.6595

                     76                     77                     78
                      A                      A                      A
 Frequencies --   3357.9789              3638.5447              3638.6298
 Red. masses --      1.0628                 1.0862                 1.0863
 Frc consts  --      7.0610                 8.4728                 8.4734
 IR Inten    --    250.4916                28.0024                 7.7162

 - Thermochemistry -
 -------------------
 Temperature   298.150 Kelvin.  Pressure   1.00000 Atm.
 Atom     1 has atomic number  7 and mass  14.00307

 Molecular mass:   238.07423 amu.
 Principal axes and moments of inertia in atomic units:
                           1         2         3
     Eigenvalues --  2316.937155011.341077321.11344
           X            0.98213  -0.18002   0.05491
           Y            0.17211   0.97712   0.12498
           Z           -0.07615  -0.11329   0.99064
 This molecule is an asymmetric top.
 Rotational symmetry number  1.
 Warning -- assumption of classical behavior for rotation
           may cause significant error
 Rotational temperatures (Kelvin)      0.03738     0.01728     0.01183
 Rotational constants (GHZ):           0.77893     0.36013     0.24651
 Zero-point vibrational energy     551662.9 (Joules/Mol)
                                  131.85060 (Kcal/Mol)
 Warning -- explicit consideration of  24 degrees of freedom as
           vibrations may cause significant error
 Vibrational temperatures:     75.51   105.22   163.20   246.08   288.18
          (Kelvin)            316.87   330.23   394.76   448.46   517.73
                              556.32   563.12   582.38   595.20   609.17
                              649.79   658.25   711.46   722.77   770.00
                              780.80   831.67   855.10   873.51   951.10
                             1015.28  1021.99  1047.03  1055.10  1090.09
                             1113.96  1132.16  1132.29  1181.22  1223.37
                             1229.53  1237.89  1314.49  1377.33  1378.17
                             1408.11  1514.10  1543.85  1546.00  1656.24
                             1662.02  1673.09  1694.12  1713.21  1770.88
                             1788.66  1873.21  1894.12  1951.68  1958.74
                             1986.75  2037.63  2083.07  2091.12  2123.57
                             2166.70  2190.93  2255.93  2300.14  2312.45
                             2317.10  2317.41  2336.12  4495.78  4496.03
                             4526.85  4527.31  4603.99  4604.35  4829.99
                             4831.38  5235.05  5235.18

 Zero-point correction=                           0.210117 (Hartree/Particle)
 Thermal correction to Energy=                    0.223728
 Thermal correction to Enthalpy=                  0.224673
 Thermal correction to Gibbs Free Energy=         0.169843
 Sum of electronic and zero-point Energies=           -799.569734
 Sum of electronic and thermal Energies=              -799.556123
 Sum of electronic and thermal Enthalpies=            -799.555178
 Sum of electronic and thermal Free Energies=         -799.610008

                     E (Thermal)             CV                S
                      KCal/Mol        Cal/Mol-Kelvin    Cal/Mol-Kelvin
 Total                  140.392             56.850            115.398
 Electronic               0.000              0.000              1.377
 Translational            0.889              2.981             42.304
 Rotational               0.889              2.981             32.808
 Vibrational            138.614             50.888             38.909
 Vibration     1          0.596              1.977              4.722
 Vibration     2          0.599              1.967              4.067
 Vibration     3          0.607              1.938              3.209
 Vibration     4          0.626              1.878              2.424
 Vibration     5          0.638              1.839              2.130
 Vibration     6          0.647              1.810              1.957
 Vibration     7          0.652              1.796              1.883
 Vibration     8          0.677              1.721              1.569
 Vibration     9          0.700              1.651              1.353
 Vibration    10          0.734              1.555              1.123
 Vibration    11          0.755              1.499              1.013
 Vibration    12          0.759              1.489              0.995
 Vibration    13          0.770              1.460              0.945
 Vibration    14          0.777              1.441              0.914
 Vibration    15          0.786              1.419              0.881
 Vibration    16          0.810              1.357              0.791
 Vibration    17          0.816              1.344              0.773
 Vibration    18          0.850              1.262              0.672
 Vibration    19          0.858              1.245              0.652
 Vibration    20          0.890              1.172              0.576
 Vibration    21          0.898              1.156              0.560
 Vibration    22          0.935              1.079              0.489
 Vibration    23          0.952              1.044              0.460
 Vibration    24          0.966              1.017              0.438

                           ! Non-Optimized Parameters !
 Normal termination of Gaussian 16 at Thu Dec 21 09:30:50 2023.
