 Gaussian 16, Revision A.03,
 Gaussian 16:  ES64L-G16RevA.03 25-Dec-2016

 ----------------------------------------------------------------
 #P UB3LYP/6-311++G(d,p) SCRF=(PCM,Solvent=n,n-DiMethylFormamide)
 ----------------------------------------------------------------

 -------
 Reduced
 -------
 Symbolic Z-matrix:
 Charge = -2 Multiplicity = 1

                         Standard orientation:
 ---------------------------------------------------------------------
 Center     Atomic      Atomic             Coordinates (Angstroms)
 Number     Number       Type             X           Y           Z
 ---------------------------------------------------------------------
      1          7           0        1.317291   -2.831352    0.153831
      2          6           0        1.122216   -1.470197    0.029118
      3          6           0        2.162019   -0.561845   -0.024081
      4         35           0        4.018066   -1.205106    0.085945
      5          6           0        1.975622    0.840445   -0.056675
      6          6           0        0.697169    1.321249    0.035138
      7         35           0        0.608662    3.276091   -0.206731
      8          6           0       -0.466610    0.496238    0.121161
      9          6           0       -1.796997    1.035891    0.312642
     10          8           0       -2.042850    2.254421    0.591002
     11          6           0       -2.880985    0.077337    0.143401
     12          6           0       -4.216698    0.542285    0.203934
     13          6           0       -5.296275   -0.305532    0.054809
     14          6           0       -5.071497   -1.692527   -0.155806
     15          6           0       -3.781174   -2.175079   -0.216429
     16          6           0       -2.653534   -1.322777   -0.075005
     17          6           0       -1.328790   -1.887055   -0.133903
     18          8           0       -1.181064   -3.178808   -0.291580
     19          6           0       -0.241793   -0.957321   -0.005060
     20          1           0        0.432880   -3.335783   -0.080528
     21          1           0        2.200862   -3.174247   -0.192419
     22          1           0        2.815447    1.503806   -0.206406
     23          1           0       -4.347686    1.606222    0.373618
     24          1           0       -6.311886    0.083522    0.098767
     25          1           0       -5.915647   -2.371262   -0.266115
     26          1           0       -3.575226   -3.228820   -0.371069
 ---------------------------------------------------------------------

 SCF Done:  E(UB3LYP) =  -5891.65071334     A.U. after   18 cycles

 The electronic state is 1-A.
 Alpha  occ. eigenvalues -- -482.82007-482.80544 -62.47283 -62.45819 -56.29293
 Alpha  occ. eigenvalues --  -56.28943 -56.28938 -56.27842 -56.27486 -56.27452
 Alpha  occ. eigenvalues --  -19.03122 -19.02365 -14.28700 -10.20634 -10.20425
 Alpha  occ. eigenvalues --  -10.19699 -10.18611 -10.18462 -10.16462 -10.15552
 Alpha  occ. eigenvalues --  -10.15506 -10.15473 -10.15414 -10.15022 -10.15021
 Alpha  occ. eigenvalues --  -10.14453 -10.14310  -8.68235  -8.66774  -6.51279
 Alpha  occ. eigenvalues --   -6.50127  -6.50117  -6.49861  -6.48688  -6.48587
 Alpha  occ. eigenvalues --   -2.62385  -2.62057  -2.62048  -2.61136  -2.61134
 Alpha  occ. eigenvalues --   -2.60959  -2.60647  -2.60570  -2.59637  -2.59635
 Alpha  occ. eigenvalues --   -0.95220  -0.94832  -0.89833  -0.83842  -0.82965
 Alpha  occ. eigenvalues --   -0.79192  -0.77203  -0.74242  -0.72796  -0.70952
 Alpha  occ. eigenvalues --   -0.69343  -0.64367  -0.61145  -0.59971  -0.55727
 Alpha  occ. eigenvalues --   -0.53337  -0.52811  -0.49439  -0.48531  -0.45690
 Alpha  occ. eigenvalues --   -0.44444  -0.43116  -0.42473  -0.41785  -0.40227
 Alpha  occ. eigenvalues --   -0.39774  -0.38691  -0.37271  -0.36940  -0.36595
 Alpha  occ. eigenvalues --   -0.36180  -0.34510  -0.33778  -0.32751  -0.32110
 Alpha  occ. eigenvalues --   -0.31332  -0.30712  -0.29500  -0.28722  -0.27286
 Alpha  occ. eigenvalues --   -0.26670  -0.23358  -0.23069  -0.22121  -0.21395
 Alpha  occ. eigenvalues --   -0.19554  -0.19262  -0.11335
 Alpha virt. eigenvalues --   -0.02805  -0.02335  -0.00549  -0.00032   0.00217
 Alpha virt. eigenvalues --    0.00814   0.01708   0.01938   0.02504   0.02940
 Alpha virt. eigenvalues --    0.04125   0.04341   0.04808   0.05038   0.05391

  Beta  occ. eigenvalues -- -482.82007-482.80544 -62.47283 -62.45819 -56.29293
  Beta  occ. eigenvalues --  -56.28943 -56.28938 -56.27842 -56.27486 -56.27452
  Beta  occ. eigenvalues --  -19.03122 -19.02365 -14.28700 -10.20634 -10.20425
  Beta  occ. eigenvalues --  -10.19699 -10.18611 -10.18462 -10.16462 -10.15552
  Beta  occ. eigenvalues --  -10.15506 -10.15473 -10.15414 -10.15022 -10.15021
  Beta  occ. eigenvalues --  -10.14453 -10.14310  -8.68235  -8.66774  -6.51279
  Beta  occ. eigenvalues --   -6.50127  -6.50117  -6.49861  -6.48688  -6.48587
  Beta  occ. eigenvalues --   -2.62385  -2.62057  -2.62048  -2.61136  -2.61134
  Beta  occ. eigenvalues --   -2.60959  -2.60647  -2.60570  -2.59637  -2.59635
  Beta  occ. eigenvalues --   -0.95220  -0.94832  -0.89833  -0.83842  -0.82965
  Beta  occ. eigenvalues --   -0.79192  -0.77203  -0.74242  -0.72796  -0.70952
  Beta  occ. eigenvalues --   -0.69343  -0.64367  -0.61145  -0.59971  -0.55727
  Beta  occ. eigenvalues --   -0.53337  -0.52811  -0.49439  -0.48531  -0.45690
  Beta  occ. eigenvalues --   -0.44444  -0.43116  -0.42473  -0.41785  -0.40227
  Beta  occ. eigenvalues --   -0.39774  -0.38691  -0.37271  -0.36940  -0.36595
  Beta  occ. eigenvalues --   -0.36180  -0.34510  -0.33778  -0.32751  -0.32110
  Beta  occ. eigenvalues --   -0.31332  -0.30712  -0.29500  -0.28722  -0.27286
  Beta  occ. eigenvalues --   -0.26670  -0.23358  -0.23069  -0.22121  -0.21395
  Beta  occ. eigenvalues --   -0.19554  -0.19262  -0.11335
  Beta virt. eigenvalues --   -0.02805  -0.02335  -0.00549  -0.00032   0.00217
  Beta virt. eigenvalues --    0.00814   0.01708   0.01938   0.02504   0.02940
  Beta virt. eigenvalues --    0.04125   0.04341   0.04808   0.05038   0.05391

 Mulliken charges and spin densities:
               1          2
     1  N   -0.354412  -0.000000
     2  C   -0.850107   0.000000
     3  C    0.403235  -0.000000
     4  Br  -0.248627  -0.000000
     5  C   -0.081658   0.000000
     6  C    0.013762  -0.000000
     7  Br  -0.236942  -0.000000
     8  C    0.630075   0.000000
     9  C   -1.121531  -0.000000
    10  O   -0.530393   0.000000
    11  C    0.025981   0.000000
    12  C    0.037659   0.000000
    13  C   -0.438799  -0.000000
    14  C   -0.559438   0.000000
    15  C    0.130082  -0.000000
    16  C    0.187017  -0.000000
    17  C   -0.390907  -0.000000
    18  O   -0.604649   0.000000
    19  C    0.525002   0.000000
    20  H    0.330783   0.000000
    21  H    0.238806   0.000000
    22  H    0.261062  -0.000000
    23  H    0.155055   0.000000
    24  H    0.161217  -0.000000
    25  H    0.162323   0.000000
    26  H    0.155404  -0.000000
 Sum of Mulliken charges =  -2.00000   0.00000

 Dipole moment (field-independent basis, Debye):
    X=              9.0106    Y=              0.5797    Z=             -1.8005  Tot=              9.2070
 Quadrupole moment (field-independent basis, Debye-Ang):
   XX=           -189.4387   YY=           -198.3056   ZZ=           -150.1200
   XY=              0.2657   XZ=              0.7675   YZ=             -3.0660

 Normal termination of Gaussian 16 at Sun Jan 14 01:29:03 2024.
