 Gaussian 16, Revision A.03,
 Gaussian 16:  ES64L-G16RevA.03 25-Dec-2016

 ----------------------------------------------------------------------
 #P UB3LYP/6-311++G(d,p) nosym opt freq SCRF=(PCM,Solvent=n,n-DiMethylF
 ormamide)
 ----------------------------------------------------------------------

 --------
 Oxidized
 --------
 Symbolic Z-matrix:
 Charge =  0 Multiplicity = 1

 SCF Done:  E(UB3LYP) =  -1003.77419074     A.U. after   15 cycles
 SCF Done:  E(UB3LYP) =  -1003.77426631     A.U. after   11 cycles
 SCF Done:  E(UB3LYP) =  -1003.77426774     A.U. after   11 cycles
 SCF Done:  E(UB3LYP) =  -1003.77427600     A.U. after   11 cycles
 SCF Done:  E(UB3LYP) =  -1003.77427653     A.U. after   10 cycles
 SCF Done:  E(UB3LYP) =  -1003.77427662     A.U. after   10 cycles
 SCF Done:  E(UB3LYP) =  -1003.77427664     A.U. after    9 cycles
 SCF Done:  E(UB3LYP) =  -1003.77427665     A.U. after    8 cycles
 Optimization completed.
    -- Stationary point found.
 Normal termination of Gaussian 16 at Sun Feb 11 02:44:22 2024.

 ----------------------------------------------------------------------
 #P Geom=AllCheck Guess=TCheck SCRF=Check GenChk UB3LYP/6-311++G(d,p) F
 req
 ----------------------------------------------------------------------

 Structure from the checkpoint file:  "291.chk"
 --------
 Oxidized
 --------
 Charge =  0 Multiplicity = 1

                          Input orientation:
 ---------------------------------------------------------------------
 Center     Atomic      Atomic             Coordinates (Angstroms)
 Number     Number       Type             X           Y           Z
 ---------------------------------------------------------------------
      1          6           0        0.173774    3.806812   -0.207165
      2          6           0       -0.946191    3.689082   -1.026127
      3          6           0       -1.021504    2.653197   -1.958048
      4          6           0        1.218698    2.887156   -0.322457
      5          6           0        1.146178    1.842275   -1.260493
      6          6           0        0.020268    1.732971   -2.074563
      7          6           0        2.408390    2.998436    0.537849
      8          6           0        3.499289    1.995086    0.365894
      9          6           0        3.449214    0.975541   -0.526858
     10          6           0        2.261949    0.848143   -1.393673
     11          8           0        2.562739    3.866998    1.391122
     12          8           0        2.180189   -0.061308   -2.214547
     13          1           0        0.248221    4.604144    0.521663
     14          1           0       -1.757426    4.401829   -0.938704
     15          1           0       -1.893077    2.561541   -2.595481
     16          1           0       -0.030843    0.926639   -2.794950
     17          8           0        4.549253    2.179459    1.182004
     18          1           0        4.342330    2.959282    1.731521
     19          6           0        4.574989   -0.008848   -0.685399
     20          6           0        5.587585    0.428492   -1.767752
     21          6           0        6.704365   -0.595985   -2.049271
     22          6           0        7.509866   -0.157602   -3.289221
     23          6           0        8.503517   -1.194638   -3.830149
     24          6           0        9.196974   -0.731474   -5.118228
     25          6           0       10.141153   -1.761494   -5.767245
     26          6           0       10.603434   -1.272900   -7.147566
     27          6           0        7.606690   -0.811393   -0.824640
     28          6           0       11.352248   -2.090920   -4.882016
     29          1           0        4.154719   -0.978405   -0.964067
     30          1           0        5.078165   -0.125261    0.275735
     31          1           0        6.038590    1.384385   -1.474274
     32          1           0        5.039578    0.613379   -2.697405
     33          1           0        6.220588   -1.553409   -2.290414
     34          1           0        8.046642    0.771846   -3.053967
     35          1           0        6.802632    0.093727   -4.089516
     36          1           0        7.969693   -2.133879   -4.027642
     37          1           0        9.255122   -1.421127   -3.068454
     38          1           0        9.762671    0.188970   -4.916564
     39          1           0        8.426218   -0.459868   -5.850743
     40          1           0        9.569148   -2.688042   -5.914953
     41          1           0        9.751889   -1.078338   -7.806695
     42          1           0       11.244721   -2.012918   -7.636015
     43          1           0       11.176589   -0.342930   -7.059170
     44          1           0        8.380488   -1.556840   -1.021720
     45          1           0        7.039866   -1.158973    0.042515
     46          1           0        8.105989    0.123589   -0.545522
     47          1           0       11.055723   -2.512152   -3.918278
     48          1           0       11.944080   -1.189310   -4.685917
     49          1           0       12.006924   -2.817877   -5.372321
 ---------------------------------------------------------------------

 SCF Done:  E(UB3LYP) =  -1003.77427665     A.U. after    2 cycles

 Alpha  occ. eigenvalues --  -19.18077 -19.15091 -19.13016 -10.29514 -10.28215
 Alpha  occ. eigenvalues --  -10.26901 -10.21313 -10.21202 -10.20547 -10.20371
 Alpha  occ. eigenvalues --  -10.20184 -10.20014 -10.19997 -10.17749 -10.17183
 Alpha  occ. eigenvalues --  -10.16989 -10.16782 -10.15981 -10.15900 -10.15854
 Alpha  occ. eigenvalues --  -10.15442 -10.15359 -10.15331  -1.10995  -1.06847
 Alpha  occ. eigenvalues --   -1.06142  -0.89482  -0.84658  -0.82123  -0.80612
 Alpha  occ. eigenvalues --   -0.78783  -0.78215  -0.75414  -0.72798  -0.69552
 Alpha  occ. eigenvalues --   -0.68111  -0.67601  -0.66266  -0.65020  -0.62068
 Alpha  occ. eigenvalues --   -0.60706  -0.58941  -0.57566  -0.56145  -0.55304
 Alpha  occ. eigenvalues --   -0.54460  -0.52089  -0.49946  -0.48255  -0.47881
 Alpha  occ. eigenvalues --   -0.47326  -0.46876  -0.46230  -0.45523  -0.45329
 Alpha  occ. eigenvalues --   -0.44619  -0.43811  -0.43583  -0.42622  -0.42196
 Alpha  occ. eigenvalues --   -0.41939  -0.40985  -0.40773  -0.39752  -0.39071
 Alpha  occ. eigenvalues --   -0.38245  -0.38108  -0.37962  -0.37856  -0.37231
 Alpha  occ. eigenvalues --   -0.36258  -0.35725  -0.35164  -0.34529  -0.33275
 Alpha  occ. eigenvalues --   -0.32535  -0.32050  -0.31767  -0.31304  -0.30684
 Alpha  occ. eigenvalues --   -0.30156  -0.29136  -0.28226  -0.28032  -0.25792
 Alpha virt. eigenvalues --   -0.12775  -0.05850  -0.02788  -0.01012  -0.00433
 Alpha virt. eigenvalues --    0.00131   0.00507   0.00858   0.01045   0.01696
 Alpha virt. eigenvalues --    0.02046   0.02208   0.02269   0.03076   0.03437

  Beta  occ. eigenvalues --  -19.18077 -19.15091 -19.13016 -10.29514 -10.28215
  Beta  occ. eigenvalues --  -10.26901 -10.21313 -10.21202 -10.20547 -10.20371
  Beta  occ. eigenvalues --  -10.20184 -10.20014 -10.19997 -10.17749 -10.17183
  Beta  occ. eigenvalues --  -10.16989 -10.16782 -10.15981 -10.15900 -10.15854
  Beta  occ. eigenvalues --  -10.15442 -10.15359 -10.15331  -1.10995  -1.06847
  Beta  occ. eigenvalues --   -1.06142  -0.89482  -0.84658  -0.82123  -0.80612
  Beta  occ. eigenvalues --   -0.78783  -0.78215  -0.75414  -0.72798  -0.69552
  Beta  occ. eigenvalues --   -0.68111  -0.67601  -0.66266  -0.65020  -0.62068
  Beta  occ. eigenvalues --   -0.60706  -0.58941  -0.57566  -0.56145  -0.55304
  Beta  occ. eigenvalues --   -0.54460  -0.52089  -0.49946  -0.48255  -0.47881
  Beta  occ. eigenvalues --   -0.47326  -0.46876  -0.46230  -0.45523  -0.45329
  Beta  occ. eigenvalues --   -0.44619  -0.43811  -0.43583  -0.42622  -0.42196
  Beta  occ. eigenvalues --   -0.41939  -0.40985  -0.40773  -0.39752  -0.39071
  Beta  occ. eigenvalues --   -0.38245  -0.38108  -0.37962  -0.37856  -0.37231
  Beta  occ. eigenvalues --   -0.36258  -0.35725  -0.35164  -0.34529  -0.33275
  Beta  occ. eigenvalues --   -0.32535  -0.32050  -0.31767  -0.31304  -0.30684
  Beta  occ. eigenvalues --   -0.30156  -0.29136  -0.28226  -0.28032  -0.25792
  Beta virt. eigenvalues --   -0.12775  -0.05850  -0.02788  -0.01012  -0.00433
  Beta virt. eigenvalues --    0.00131   0.00507   0.00858   0.01045   0.01696
  Beta virt. eigenvalues --    0.02046   0.02208   0.02269   0.03076   0.03437

 Mulliken charges and spin densities:
               1          2
     1  C    0.095019   0.000000
     2  C   -0.354526   0.000000
     3  C   -0.435500  -0.000000
     4  C    0.625468  -0.000000
     5  C   -0.212073   0.000000
     6  C    0.171314  -0.000000
     7  C   -0.950078  -0.000000
     8  C   -0.584367  -0.000000
     9  C    2.054611   0.000000
    10  C   -0.852875   0.000000
    11  O   -0.313827  -0.000000
    12  O   -0.274556  -0.000000
    13  H    0.189572   0.000000
    14  H    0.212239   0.000000
    15  H    0.207765  -0.000000
    16  H    0.191990   0.000000
    17  O   -0.208515   0.000000
    18  H    0.306168  -0.000000
    19  C   -0.050373   0.000000
    20  C   -1.092748   0.000000
    21  C    1.224012  -0.000000
    22  C   -0.704324   0.000000
    23  C    0.007968  -0.000000
    24  C   -0.860942   0.000000
    25  C    0.526843  -0.000000
    26  C   -0.657107   0.000000
    27  C   -0.743098   0.000000
    28  C   -0.690979   0.000000
    29  H    0.228655   0.000000
    30  H    0.228095   0.000000
    31  H    0.189158  -0.000000
    32  H    0.171118   0.000000
    33  H    0.133685  -0.000000
    34  H    0.148249   0.000000
    35  H    0.108259   0.000000
    36  H    0.150356   0.000000
    37  H    0.085886   0.000000
    38  H    0.142259  -0.000000
    39  H    0.129567  -0.000000
    40  H    0.139829  -0.000000
    41  H    0.135887   0.000000
    42  H    0.158571   0.000000
    43  H    0.139928   0.000000
    44  H    0.153093   0.000000
    45  H    0.137876  -0.000000
    46  H    0.158474  -0.000000
    47  H    0.141624  -0.000000
    48  H    0.146839  -0.000000
    49  H    0.145511  -0.000000
 Sum of Mulliken charges =  -0.00000  -0.00000

 Dipole moment (field-independent basis, Debye):
    X=             -2.3191    Y=              1.8130    Z=             -0.0432  Tot=              2.9439
 Quadrupole moment (field-independent basis, Debye-Ang):
   XX=           -140.1555   YY=           -138.0503   ZZ=           -146.2663
   XY=             -6.9642   XZ=              5.3167   YZ=             -5.9753

  Exact polarizability: 371.070 -47.049 333.649  30.237  68.856 329.404
 Approx polarizability: 386.827 -29.825 399.957  51.963 102.656 383.672

                      1                      2                      3
                      A                      A                      A
 Frequencies --     15.2581                16.7394                22.9382
 Red. masses --      5.3887                 2.5728                 4.7870
 Frc consts  --      0.0007                 0.0004                 0.0015
 IR Inten    --      0.1687                 0.0333                 0.9611

                      4                      5                      6
                      A                      A                      A
 Frequencies --     38.7733                44.9802                62.6497
 Red. masses --      3.5375                 3.7869                 4.2832
 Frc consts  --      0.0031                 0.0045                 0.0099
 IR Inten    --      1.5907                 0.4387                 4.4945

                      7                      8                      9
                      A                      A                      A
 Frequencies --     78.6359                96.6614               103.7935
 Red. masses --      4.6937                 3.1292                 1.8319
 Frc consts  --      0.0171                 0.0172                 0.0116
 IR Inten    --      1.4292                 0.3620                 0.0107

                     10                     11                     12
                      A                      A                      A
 Frequencies --    108.8013               121.7315               135.0575
 Red. masses --      3.3935                 5.5346                 1.9897
 Frc consts  --      0.0237                 0.0483                 0.0214
 IR Inten    --      0.2077                 0.0094                 0.1497

                     13                     14                     15
                      A                      A                      A
 Frequencies --    171.4907               173.2932               222.7438
 Red. masses --      3.6896                 5.9547                 1.3903
 Frc consts  --      0.0639                 0.1054                 0.0406
 IR Inten    --      0.0465                 1.2205                 0.0056

                     16                     17                     18
                      A                      A                      A
 Frequencies --    228.2128               237.2920               244.7562
 Red. masses --      1.6061                 1.4418                 1.3814
 Frc consts  --      0.0493                 0.0478                 0.0488
 IR Inten    --      0.0315                 0.0759                 0.0480

                     19                     20                     21
                      A                      A                      A
 Frequencies --    252.7574               265.7919               302.1850
 Red. masses --      3.2152                 1.9840                 2.8533
 Frc consts  --      0.1210                 0.0826                 0.1535
 IR Inten    --      0.3971                 0.0388                 5.7439

                     22                     23                     24
                      A                      A                      A
 Frequencies --    323.4629               345.6297               378.8946
 Red. masses --      4.2792                 5.0168                 3.0578
 Frc consts  --      0.2638                 0.3531                 0.2586
 IR Inten    --      1.2395                20.0561                 1.8279

                     25                     26                     27
                      A                      A                      A
 Frequencies --    380.9843               386.9894               415.6681
 Red. masses --      2.3906                 8.3133                 3.2218
 Frc consts  --      0.2044                 0.7335                 0.3280
 IR Inten    --      0.1987                31.5515                 8.8614

                     28                     29                     30
                      A                      A                      A
 Frequencies --    420.1314               424.7574               428.5566
 Red. masses --      3.3143                 3.1055                 2.9591
 Frc consts  --      0.3447                 0.3301                 0.3202
 IR Inten    --      8.4234                15.9700                 1.1117

                     31                     32                     33
                      A                      A                      A
 Frequencies --    444.9277               462.1765               488.3062
 Red. masses --      4.6141                 3.7664                 3.1442
 Frc consts  --      0.5382                 0.4740                 0.4417
 IR Inten    --      6.0377                 4.4859                 2.8100

                     34                     35                     36
                      A                      A                      A
 Frequencies --    505.9882               534.1625               581.5869
 Red. masses --      4.1062                 4.5792                 1.9836
 Frc consts  --      0.6194                 0.7698                 0.3953
 IR Inten    --      1.8162                11.3040                88.5846

                     37                     38                     39
                      A                      A                      A
 Frequencies --    603.0339               653.0724               676.2443
 Red. masses --      1.6962                 5.9964                 5.9347
 Frc consts  --      0.3634                 1.5068                 1.5990
 IR Inten    --     53.6834                 9.1462                 5.3474

                     40                     41                     42
                      A                      A                      A
 Frequencies --    705.2884               710.9937               735.2095
 Red. masses --      3.3691                 4.6964                 2.3557
 Frc consts  --      0.9874                 1.3988                 0.7502
 IR Inten    --      6.8946                 7.9353               107.9266

                     43                     44                     45
                      A                      A                      A
 Frequencies --    738.9305               760.4222               773.7874
 Red. masses --      1.1398                 1.5922                 6.0714
 Frc consts  --      0.3667                 0.5425                 2.1418
 IR Inten    --      3.4115                 8.3654                 1.6652

                     46                     47                     48
                      A                      A                      A
 Frequencies --    800.1035               806.5719               839.1368
 Red. masses --      2.1909                 2.0267                 1.7119
 Frc consts  --      0.8264                 0.7768                 0.7102
 IR Inten    --      3.2056                13.9564                 1.8077

                     49                     50                     51
                      A                      A                      A
 Frequencies --    847.8569               873.8104               910.7023
 Red. masses --      2.7194                 2.2302                 1.3437
 Frc consts  --      1.1518                 1.0033                 0.6566
 IR Inten    --     23.3193                11.6360                 0.0319

                     52                     53                     54
                      A                      A                      A
 Frequencies --    925.8034               933.3069               942.0872
 Red. masses --      1.2402                 2.0196                 1.5880
 Frc consts  --      0.6263                 1.0365                 0.8304
 IR Inten    --      2.7226                 2.4443                 2.3249

                     55                     56                     57
                      A                      A                      A
 Frequencies --    949.6817               958.1680               961.6661
 Red. masses --      3.6485                 1.8364                 1.5157
 Frc consts  --      1.9387                 0.9934                 0.8259
 IR Inten    --     46.9604                28.6439                 2.4399

                     58                     59                     60
                      A                      A                      A
 Frequencies --    988.6525               997.8144              1007.5138
 Red. masses --      2.0534                 1.3890                 2.6649
 Frc consts  --      1.1825                 0.8148                 1.5938
 IR Inten    --     11.3220                 1.7724                28.5870

                     61                     62                     63
                      A                      A                      A
 Frequencies --   1021.9705              1029.1046              1039.3675
 Red. masses --      1.3336                 3.2716                 3.2186
 Frc consts  --      0.8207                 2.0414                 2.0486
 IR Inten    --      0.0939                46.2735                15.5929

                     64                     65                     66
                      A                      A                      A
 Frequencies --   1050.9111              1056.1530              1066.6079
 Red. masses --      1.8872                 2.2530                 1.5525
 Frc consts  --      1.2280                 1.4807                 1.0406
 IR Inten    --      5.2217                 5.6735                17.4843

                     67                     68                     69
                      A                      A                      A
 Frequencies --   1099.2527              1109.0849              1129.3777
 Red. masses --      2.6788                 2.1452                 1.7408
 Frc consts  --      1.9071                 1.5547                 1.3082
 IR Inten    --      5.0293                 5.3288                51.6072

                     70                     71                     72
                      A                      A                      A
 Frequencies --   1148.1063              1173.9883              1178.0652
 Red. masses --      2.3504                 1.7168                 1.2451
 Frc consts  --      1.8254                 1.3941                 1.0181
 IR Inten    --     11.4162                13.5001                29.3493

                     73                     74                     75
                      A                      A                      A
 Frequencies --   1186.2111              1190.3426              1212.6295
 Red. masses --      1.7716                 2.2277                 1.7104
 Frc consts  --      1.4688                 1.8597                 1.4819
 IR Inten    --     14.3347                39.0590                20.6363

                     76                     77                     78
                      A                      A                      A
 Frequencies --   1225.6792              1240.7452              1262.1077
 Red. masses --      2.2087                 1.6308                 1.2367
 Frc consts  --      1.9549                 1.4792                 1.1607
 IR Inten    --     98.9767               212.5276                55.3825

                     79                     80                     81
                      A                      A                      A
 Frequencies --   1277.7959              1290.0016              1301.2752
 Red. masses --      1.7430                 1.4505                 1.7019
 Frc consts  --      1.6768                 1.4222                 1.6979
 IR Inten    --    108.6656                71.9225               360.1642

                     82                     83                     84
                      A                      A                      A
 Frequencies --   1305.1695              1311.3432              1329.4455
 Red. masses --      1.3506                 1.7345                 1.3414
 Frc consts  --      1.3555                 1.7574                 1.3968
 IR Inten    --     22.9702                55.9477                 5.0576

                     85                     86                     87
                      A                      A                      A
 Frequencies --   1331.7298              1336.3128              1350.1960
 Red. masses --      1.1065                 2.2560                 1.3419
 Frc consts  --      1.1562                 2.3736                 1.4413
 IR Inten    --      2.0763               115.4948                 8.5928

                     88                     89                     90
                      A                      A                      A
 Frequencies --   1364.9476              1367.1009              1373.1675
 Red. masses --      1.3440                 6.0373                 1.4213
 Frc consts  --      1.4754                 6.6480                 1.5790
 IR Inten    --      6.4204               124.1251                 5.1015

                     91                     92                     93
                      A                      A                      A
 Frequencies --   1376.9195              1379.7970              1383.4435
 Red. masses --      1.8108                 1.4271                 1.6280
 Frc consts  --      2.0228                 1.6008                 1.8358
 IR Inten    --    332.9360                 1.4838               286.3634

                     94                     95                     96
                      A                      A                      A
 Frequencies --   1392.1254              1396.4176              1406.8544
 Red. masses --      1.3419                 1.3855                 1.2707
 Frc consts  --      1.5322                 1.5918                 1.4818
 IR Inten    --      6.3545                 5.2592                 8.9392

                     97                     98                     99
                      A                      A                      A
 Frequencies --   1411.0048              1468.7844              1472.1174
 Red. masses --      1.2471                 1.0930                 1.0888
 Frc consts  --      1.4629                 1.3893                 1.3902
 IR Inten    --      8.2898                 4.9933                 1.4892

                    100                    101                    102
                      A                      A                      A
 Frequencies --   1477.6791              1480.4229              1483.4532
 Red. masses --      1.0861                 1.0573                 2.2356
 Frc consts  --      1.3973                 1.3653                 2.8986
 IR Inten    --      1.6629                 1.2538                 5.0662

                    103                    104                    105
                      A                      A                      A
 Frequencies --   1485.9766              1487.5386              1489.6937
 Red. masses --      1.0642                 1.0677                 1.1069
 Frc consts  --      1.3845                 1.3920                 1.4472
 IR Inten    --      4.6716                 5.7637                 9.8747

                    106                    107                    108
                      A                      A                      A
 Frequencies --   1492.3317              1498.8837              1500.9212
 Red. masses --      1.0574                 1.0638                 1.0583
 Frc consts  --      1.3875                 1.4081                 1.4046
 IR Inten    --      6.7289                10.3155                 2.3110

                    109                    110                    111
                      A                      A                      A
 Frequencies --   1503.5798              1504.5395              1610.1191
 Red. masses --      1.0775                 2.6335                 6.6516
 Frc consts  --      1.4352                 3.5122                10.1600
 IR Inten    --     37.1989                 7.2349                28.7691

                    112                    113                    114
                      A                      A                      A
 Frequencies --   1618.9049              1673.1924              1685.9437
 Red. masses --      6.0786                10.4941                11.9959
 Frc consts  --      9.3863                17.3096                20.0895
 IR Inten    --    307.1482               596.1921               374.9948

                    115                    116                    117
                      A                      A                      A
 Frequencies --   1688.1350              2977.6688              2980.4389
 Red. masses --      7.5453                 1.0792                 1.0763
 Frc consts  --     12.6690                 5.6378                 5.6331
 IR Inten    --    138.1725                13.9445                13.7799

                    118                    119                    120
                      A                      A                      A
 Frequencies --   2987.0413              2988.0459              2998.6095
 Red. masses --      1.0667                 1.0624                 1.0686
 Frc consts  --      5.6077                 5.5890                 5.6611
 IR Inten    --     17.0710                31.9460               137.5581

                    121                    122                    123
                      A                      A                      A
 Frequencies --   3006.7077              3009.9588              3012.4523
 Red. masses --      1.0361                 1.0585                 1.0388
 Frc consts  --      5.5185                 5.6502                 5.5543
 IR Inten    --     56.3884                53.6520                70.8505

                    124                    125                    126
                      A                      A                      A
 Frequencies --   3016.9530              3019.3009              3021.2773
 Red. masses --      1.0460                 1.0936                 1.0987
 Frc consts  --      5.6095                 5.8738                 5.9088
 IR Inten    --     73.8311                31.5137                30.5690

                    127                    128                    129
                      A                      A                      A
 Frequencies --   3049.7962              3053.3764              3060.1848
 Red. masses --      1.1003                 1.0603                 1.0978
 Frc consts  --      6.0296                 5.8241                 6.0572
 IR Inten    --     35.2471                37.5011               131.2314

                    130                    131                    132
                      A                      A                      A
 Frequencies --   3064.9412              3069.7227              3075.8080
 Red. masses --      1.1003                 1.0994                 1.1018
 Frc consts  --      6.0899                 6.1038                 6.1413
 IR Inten    --     26.9588               137.3797                79.2600

                    133                    134                    135
                      A                      A                      A
 Frequencies --   3079.2834              3086.5115              3092.5375
 Red. masses --      1.0951                 1.0994                 1.1004
 Frc consts  --      6.1181                 6.1710                 6.2006
 IR Inten    --     71.0753                80.3722                56.1303

                    136                    137                    138
                      A                      A                      A
 Frequencies --   3103.8941              3180.4801              3192.3977
 Red. masses --      1.1024                 1.0874                 1.0910
 Frc consts  --      6.2576                 6.4810                 6.5508
 IR Inten    --     27.4407                 3.1409                 7.8880

                    139                    140                    141
                      A                      A                      A
 Frequencies --   3203.1864              3207.2815              3618.0791
 Red. masses --      1.0935                 1.0952                 1.0646
 Frc consts  --      6.6107                 6.6379                 8.2107
 IR Inten    --      5.0986                13.8358               283.0915

 - Thermochemistry -
 -------------------
 Temperature   298.150 Kelvin.  Pressure   1.00000 Atm.
 Atom     1 has atomic number  6 and mass  12.00000

 Molecular mass:   314.18819 amu.
 Principal axes and moments of inertia in atomic units:
                           1         2         3
     Eigenvalues --  3263.63088********************
           X            0.82561   0.48938   0.28083
           Y           -0.38448   0.12368   0.91481
           Z           -0.41296   0.86325  -0.29027
 This molecule is an asymmetric top.
 Rotational symmetry number  1.
 Warning -- assumption of classical behavior for rotation
           may cause significant error
 Rotational temperatures (Kelvin)      0.02654     0.00377     0.00349
 Rotational constants (GHZ):           0.55299     0.07861     0.07277
 Zero-point vibrational energy    1097271.9 (Joules/Mol)
                                  262.25427 (Kcal/Mol)
 Warning -- explicit consideration of  37 degrees of freedom as
           vibrations may cause significant error
 Vibrational temperatures:     21.95    24.08    33.00    55.79    64.72
          (Kelvin)             90.14   113.14   139.07   149.34   156.54
                              175.14   194.32   246.74   249.33   320.48
                              328.35   341.41   352.15   363.66   382.42
                              434.78   465.39   497.28   545.14   548.15
                              556.79   598.05   604.48   611.13   616.60
                              640.15   664.97   702.56   728.00   768.54
                              836.77   867.63   939.63   972.96  1014.75
                             1022.96  1057.80  1063.16  1094.08  1113.31
                             1151.17  1160.48  1207.33  1219.88  1257.22
                             1310.30  1332.02  1342.82  1355.45  1366.38
                             1378.59  1383.62  1422.45  1435.63  1449.59
                             1470.39  1480.65  1495.42  1512.03  1519.57
                             1534.61  1581.58  1595.73  1624.92  1651.87
                             1689.11  1694.97  1706.69  1712.64  1744.70
                             1763.48  1785.16  1815.89  1838.46  1856.02
                             1872.24  1877.85  1886.73  1912.78  1916.06
                             1922.66  1942.63  1963.86  1966.95  1975.68
                             1981.08  1985.22  1990.47  2002.96  2009.13
                             2024.15  2030.12  2113.25  2118.05  2126.05
                             2130.00  2134.36  2137.99  2140.24  2143.34
                             2147.13  2156.56  2159.49  2163.32  2164.70
                             2316.60  2329.24  2407.35  2425.70  2428.85
                             4284.20  4288.19  4297.69  4299.13  4314.33
                             4325.98  4330.66  4334.25  4340.72  4344.10
                             4346.94  4387.98  4393.13  4402.92  4409.77
                             4416.65  4425.40  4430.40  4440.80  4449.47
                             4465.81  4576.00  4593.15  4608.67  4614.56
                             5205.61

 Zero-point correction=                           0.417929 (Hartree/Particle)
 Thermal correction to Energy=                    0.441619
 Thermal correction to Enthalpy=                  0.442563
 Thermal correction to Gibbs Free Energy=         0.361427
 Sum of electronic and zero-point Energies=          -1003.356348
 Sum of electronic and thermal Energies=             -1003.332658
 Sum of electronic and thermal Enthalpies=           -1003.331714
 Sum of electronic and thermal Free Energies=        -1003.412849

                     E (Thermal)             CV                S
                      KCal/Mol        Cal/Mol-Kelvin    Cal/Mol-Kelvin
 Total                  277.120             89.379            170.765
 Electronic               0.000              0.000              0.000
 Translational            0.889              2.981             43.130
 Rotational               0.889              2.981             35.873
 Vibrational            275.343             83.418             91.762
 Vibration     1          0.593              1.986              7.172
 Vibration     2          0.593              1.986              6.988
 Vibration     3          0.593              1.985              6.362
 Vibration     4          0.594              1.981              5.321
 Vibration     5          0.595              1.979              5.027
 Vibration     6          0.597              1.972              4.372
 Vibration     7          0.600              1.964              3.925
 Vibration     8          0.603              1.952              3.521
 Vibration     9          0.605              1.946              3.382
 Vibration    10          0.606              1.942              3.290
 Vibration    11          0.609              1.931              3.073
 Vibration    12          0.613              1.918              2.873
 Vibration    13          0.626              1.878              2.419
 Vibration    14          0.627              1.875              2.399
 Vibration    15          0.648              1.806              1.937
 Vibration    16          0.651              1.798              1.893
 Vibration    17          0.656              1.784              1.823
 Vibration    18          0.660              1.771              1.768
 Vibration    19          0.664              1.758              1.711
 Vibration    20          0.672              1.736              1.623
 Vibration    21          0.694              1.670              1.405
 Vibration    22          0.708              1.628              1.293
 Vibration    23          0.724              1.584              1.186
 Vibration    24          0.749              1.515              1.044
 Vibration    25          0.751              1.511              1.035
 Vibration    26          0.755              1.498              1.012
 Vibration    27          0.779              1.436              0.907
 Vibration    28          0.783              1.426              0.892
 Vibration    29          0.787              1.416              0.876
 Vibration    30          0.790              1.408              0.863
 Vibration    31          0.804              1.372              0.811
 Vibration    32          0.820              1.334              0.760
 Vibration    33          0.844              1.276              0.688
 Vibration    34          0.861              1.237              0.643
 Vibration    35          0.889              1.174              0.578
 Vibration    36          0.938              1.071              0.482
 Vibration    37          0.961              1.025              0.444

                           ! Non-Optimized Parameters !
 Normal termination of Gaussian 16 at Sun Feb 11 07:59:16 2024.
