 Q-Chem 5.4, Q-Chem, Inc., Pleasanton, CA (2021)
 Q-Chem 5.4.0 for Intel X86 EM64T Linux

User input:
--------------------------------------------------------------
$molecule
0 1
O                  0.1513730000      0.4107150000      2.6392930000
C                  0.0823680000      0.2203870000      1.4159560000
C                 -1.1889700000      0.1136200000      0.7157040000
C                 -2.4256730000      0.2224620000      1.4042460000
C                 -3.6161730000      0.1128820000      0.6877490000
C                 -3.5944760000     -0.1009790000     -0.6876410000
C                 -2.3967600000     -0.2117030000     -1.3882770000
C                 -1.2060460000     -0.1024580000     -0.6745080000
O                 -0.0555400000     -0.2191480000     -1.4145810000
C                  1.1634030000     -0.1257720000     -0.8010440000
C                  2.2891230000     -0.2542360000     -1.6167020000
C                  3.5479670000     -0.1672150000     -1.0427480000
C                  3.6952470000      0.0465200000      0.3357670000
C                  2.5727380000      0.1724480000      1.1346090000
C                  1.2857900000      0.0882390000      0.5783330000
O                 -2.4699220000      0.4287680000      2.7322570000
H                 -4.5545260000      0.1970900000      1.2207290000
H                 -4.5203850000     -0.1861460000     -1.2440920000
O                 -2.4169840000     -0.4217850000     -2.7395030000
H                  2.1587360000     -0.4189670000     -2.6790820000
H                  4.4256240000     -0.2662160000     -1.6711380000
H                  4.6850390000      0.1123920000      0.7708290000
H                  2.6500190000      0.3380550000      2.2021800000
H                 -1.5400780000      0.4772030000      3.0547050000
H                 -1.5090200000     -0.4733140000     -3.0612160000
$end
$rem
MAX_SCF_CYCLES=200
BASIS  =  6-311++G(d,p)
GUI  =  2
JOB_TYPE  =  SP
METHOD  =  B3LYP
SOLVENT_METHOD = PCM
$end
$pcm
theory = CPCM
$end
$solvent
dielectric 37.219
opticaldielectric 1.43
$end

--------------------------------------------------------------

             Standard Nuclear Orientation (Angstroms)
    I     Atom           X                Y                Z
 ----------------------------------------------------------------
    1      O       0.1513730000     0.4107150000     2.6392930000
    2      C       0.0823680000     0.2203870000     1.4159560000
    3      C      -1.1889700000     0.1136200000     0.7157040000
    4      C      -2.4256730000     0.2224620000     1.4042460000
    5      C      -3.6161730000     0.1128820000     0.6877490000
    6      C      -3.5944760000    -0.1009790000    -0.6876410000
    7      C      -2.3967600000    -0.2117030000    -1.3882770000
    8      C      -1.2060460000    -0.1024580000    -0.6745080000
    9      O      -0.0555400000    -0.2191480000    -1.4145810000
   10      C       1.1634030000    -0.1257720000    -0.8010440000
   11      C       2.2891230000    -0.2542360000    -1.6167020000
   12      C       3.5479670000    -0.1672150000    -1.0427480000
   13      C       3.6952470000     0.0465200000     0.3357670000
   14      C       2.5727380000     0.1724480000     1.1346090000
   15      C       1.2857900000     0.0882390000     0.5783330000
   16      O      -2.4699220000     0.4287680000     2.7322570000
   17      H      -4.5545260000     0.1970900000     1.2207290000
   18      H      -4.5203850000    -0.1861460000    -1.2440920000
   19      O      -2.4169840000    -0.4217850000    -2.7395030000
   20      H       2.1587360000    -0.4189670000    -2.6790820000
   21      H       4.4256240000    -0.2662160000    -1.6711380000
   22      H       4.6850390000     0.1123920000     0.7708290000
   23      H       2.6500190000     0.3380550000     2.2021800000
   24      H      -1.5400780000     0.4772030000     3.0547050000
   25      H      -1.5090200000    -0.4733140000    -3.0612160000
 ----------------------------------------------------------------

    9    -801.3504995189      2.40e-06  Convergence criterion met
 Total energy in the final basis set =     -801.3504995189

                    Orbital Energies (a.u.)
 --------------------------------------------------------------

 Alpha MOs
 -- Occupied --
-19.2136 -19.1658 -19.1578 -19.1290 -10.2846 -10.2711 -10.2693 -10.2583
-10.2495 -10.2073 -10.2055 -10.1987 -10.1970 -10.1969 -10.1943 -10.1890
-10.1851  -1.1347  -1.0838  -1.0752  -1.0545  -0.8877  -0.8771  -0.8067
 -0.7928  -0.7726  -0.7494  -0.6865  -0.6774  -0.6305  -0.6242  -0.5895
 -0.5816  -0.5687  -0.5521  -0.5085  -0.5037  -0.4942  -0.4937  -0.4647
 -0.4600  -0.4518  -0.4379  -0.4348  -0.4284  -0.4265  -0.4161  -0.4013
 -0.3918  -0.3859  -0.3781  -0.3750  -0.3639  -0.3274  -0.2862  -0.2849
 -0.2800  -0.2631  -0.2206

          Ground-State Mulliken Net Atomic Charges

     Atom                 Charge (a.u.)
  ----------------------------------------
      1 O                    -0.383086
      2 C                    -0.016668
      3 C                     1.371839
      4 C                    -0.044507
      5 C                    -0.043400
      6 C                     0.007471
      7 C                    -1.047494
      8 C                    -0.517991
      9 O                    -0.082733
     10 C                    -1.332456
     11 C                    -0.343666
     12 C                    -0.413708
     13 C                    -0.273081
     14 C                     0.349869
     15 C                     1.368279
     16 O                    -0.330401
     17 H                     0.231630
     18 H                     0.244818
     19 O                    -0.296876
     20 H                     0.230024
     21 H                     0.226005
     22 H                     0.214298
     23 H                     0.218384
     24 H                     0.341552
     25 H                     0.321896
  ----------------------------------------
  Sum of atomic charges =     0.000000

                    Cartesian Multipole Moments
 -----------------------------------------------------------------
    Charge (ESU x 10^10)
                -0.0000
    Dipole Moment (Debye)
         X       3.9860      Y      -0.7150      Z      -4.5547
       Tot       6.0946
    Quadrupole Moments (Debye-Ang)
        XX     -83.8907     XY      -0.3169     YY    -100.8887
        XZ      -1.9037     YZ      -0.5443     ZZ    -104.2941

 Total job time:  50.91s(wall), 317.41s(cpu)
        *  Thank you very much for using Q-Chem.  Have a nice day.  *
