 Gaussian 16, Revision A.03,
 Gaussian 16:  ES64L-G16RevA.03 25-Dec-2016

 ----------------------------------------------------------------
 #P UB3LYP/6-311++G(d,p) SCRF=(PCM,Solvent=n,n-DiMethylFormamide)
 ----------------------------------------------------------------

 -------
 Reduced
 -------
 Symbolic Z-matrix:
 Charge = -2 Multiplicity = 1

                         Standard orientation:
 ---------------------------------------------------------------------
 Center     Atomic      Atomic             Coordinates (Angstroms)
 Number     Number       Type             X           Y           Z
 ---------------------------------------------------------------------
      1          6           0        0.574141    0.016536   -0.027013
      2          6           0        0.176901    1.357054   -0.010841
      3          6           0       -1.194825    1.746916    0.005563
      4          8           0       -1.579997    2.967778    0.016557
      5          6           0       -2.156734    0.636362    0.010656
      6          6           0       -3.538845    0.908410    0.029521
      7          6           0       -4.489841   -0.099699    0.038149
      8          6           0       -4.069128   -1.454133    0.028732
      9          6           0       -2.721392   -1.756332    0.009062
     10          6           0       -1.728797   -0.742674   -0.001290
     11          6           0       -0.334731   -1.095110   -0.024854
     12          8           0        0.113238   -2.315109   -0.036902
     13          1           0        0.928122    2.136355   -0.013575
     14          1           0       -3.824126    1.956215    0.036889
     15          1           0       -5.550457    0.143756    0.052448
     16          1           0       -4.807663   -2.254134    0.036631
     17          1           0       -2.373766   -2.784693    0.000686
     18          7           0        1.907038   -0.452922   -0.019820
     19          6           0        3.107342    0.173778   -0.086500
     20          7           0        4.190506   -0.734414   -0.183982
     21          6           0        5.508914   -0.285267    0.232929
     22          8           0        3.309075    1.387789   -0.101937
     23          1           0        1.852524   -1.477931   -0.036997
     24          1           0        3.965529   -1.676199    0.105616
     25          1           0        5.716853    0.679549   -0.228672
     26          1           0        6.264140   -1.003220   -0.099120
     27          1           0        5.609470   -0.167049    1.326276
 ---------------------------------------------------------------------

 SCF Done:  E(UB3LYP) =  -798.981364166     A.U. after   17 cycles

 The electronic state is 1-A.
 Alpha  occ. eigenvalues --  -19.07762 -19.02293 -19.01693 -14.31926 -14.31845
 Alpha  occ. eigenvalues --  -10.28537 -10.18916 -10.17400 -10.16822 -10.16706
 Alpha  occ. eigenvalues --  -10.14995 -10.14662 -10.14525 -10.14502 -10.13806
 Alpha  occ. eigenvalues --  -10.13460 -10.11736  -1.03843  -0.94890  -0.93647
 Alpha  occ. eigenvalues --   -0.91645  -0.88665  -0.82446  -0.76330  -0.72196
 Alpha  occ. eigenvalues --   -0.71323  -0.68205  -0.64348  -0.60551  -0.58759
 Alpha  occ. eigenvalues --   -0.55651  -0.54117  -0.52831  -0.49470  -0.46516
 Alpha  occ. eigenvalues --   -0.45640  -0.44607  -0.43486  -0.42730  -0.41312
 Alpha  occ. eigenvalues --   -0.40298  -0.39907  -0.39236  -0.37993  -0.37545
 Alpha  occ. eigenvalues --   -0.37161  -0.36112  -0.34982  -0.32962  -0.32424
 Alpha  occ. eigenvalues --   -0.31902  -0.30437  -0.28039  -0.26768  -0.25044
 Alpha  occ. eigenvalues --   -0.22942  -0.22355  -0.20909  -0.19605  -0.19564
 Alpha  occ. eigenvalues --   -0.10911
 Alpha virt. eigenvalues --   -0.00689  -0.00263   0.00453   0.00830   0.01546
 Alpha virt. eigenvalues --    0.01955   0.02565   0.03673   0.03721   0.04383
 Alpha virt. eigenvalues --    0.05227   0.05399   0.05606   0.06010   0.07135

  Beta  occ. eigenvalues --  -19.07762 -19.02293 -19.01693 -14.31926 -14.31845
  Beta  occ. eigenvalues --  -10.28537 -10.18916 -10.17400 -10.16822 -10.16706
  Beta  occ. eigenvalues --  -10.14995 -10.14662 -10.14525 -10.14502 -10.13806
  Beta  occ. eigenvalues --  -10.13460 -10.11736  -1.03843  -0.94890  -0.93647
  Beta  occ. eigenvalues --   -0.91645  -0.88665  -0.82446  -0.76330  -0.72196
  Beta  occ. eigenvalues --   -0.71323  -0.68205  -0.64348  -0.60551  -0.58759
  Beta  occ. eigenvalues --   -0.55651  -0.54117  -0.52831  -0.49470  -0.46516
  Beta  occ. eigenvalues --   -0.45640  -0.44607  -0.43486  -0.42730  -0.41312
  Beta  occ. eigenvalues --   -0.40298  -0.39907  -0.39236  -0.37993  -0.37545
  Beta  occ. eigenvalues --   -0.37161  -0.36112  -0.34982  -0.32962  -0.32424
  Beta  occ. eigenvalues --   -0.31902  -0.30437  -0.28039  -0.26768  -0.25044
  Beta  occ. eigenvalues --   -0.22942  -0.22355  -0.20909  -0.19605  -0.19564
  Beta  occ. eigenvalues --   -0.10911
  Beta virt. eigenvalues --   -0.00689  -0.00263   0.00453   0.00830   0.01546
  Beta virt. eigenvalues --    0.01955   0.02565   0.03673   0.03721   0.04383
  Beta virt. eigenvalues --    0.05227   0.05399   0.05606   0.06010   0.07135

 Mulliken charges and spin densities:
               1          2
     1  C    0.633516  -0.000000
     2  C    0.155418  -0.000000
     3  C   -0.329334  -0.000000
     4  O   -0.683473   0.000000
     5  C    0.603260   0.000000
     6  C    0.054412   0.000000
     7  C   -0.400281   0.000000
     8  C   -0.465408  -0.000000
     9  C   -0.037321   0.000000
    10  C   -0.224781  -0.000000
    11  C   -1.340322   0.000000
    12  O   -0.672243  -0.000000
    13  H    0.188082   0.000000
    14  H    0.137301  -0.000000
    15  H    0.156412   0.000000
    16  H    0.155918  -0.000000
    17  H    0.149433  -0.000000
    18  N   -0.265351   0.000000
    19  C    0.087963   0.000000
    20  N   -0.173944  -0.000000
    21  C   -0.310376   0.000000
    22  O   -0.495207  -0.000000
    23  H    0.368352  -0.000000
    24  H    0.241010   0.000000
    25  H    0.161429   0.000000
    26  H    0.147555  -0.000000
    27  H    0.157981  -0.000000
 Sum of Mulliken charges =  -2.00000   0.00000

 Dipole moment (field-independent basis, Debye):
    X=              7.2480    Y=             -7.5928    Z=              1.1044  Tot=             10.5548
 Quadrupole moment (field-independent basis, Debye-Ang):
   XX=           -133.1588   YY=           -161.2237   ZZ=           -111.4795
   XY=             -0.8329   XZ=              4.7159   YZ=             -1.1635

 Normal termination of Gaussian 16 at Sun Jan 21 09:03:56 2024.
