 Q-Chem 5.4, Q-Chem, Inc., Pleasanton, CA (2021)
 Q-Chem 5.4.0 for Intel X86 EM64T Linux

User input:
--------------------------------------------------------------
$molecule
-1 1
C                 -1.7098730000      1.8851080000     -5.1574730000
C                 -1.5978080000      0.5556200000     -5.5446890000
C                 -1.2445380000     -0.4219640000     -4.6082910000
C                 -1.4704870000      2.2581640000     -3.8296070000
C                 -1.1168700000      1.2770730000     -2.8928690000
C                 -1.0058520000     -0.0608170000     -3.2888990000
C                 -1.5985170000      3.7033170000     -3.4485580000
C                 -0.8595790000      1.6462730000     -1.4713340000
C                 -1.3350190000      4.0756520000     -2.0683210000
C                 -0.9865990000      3.0793920000     -1.1050490000
C                 -1.4436890000      5.4459710000     -1.6484870000
C                 -1.1682190000      5.7624080000     -0.2754530000
C                 -0.8548660000      4.7655180000      0.6182050000
C                 -0.7627580000      3.4250390000      0.2162560000
O                 -1.9234380000      4.5111630000     -4.3339230000
O                 -0.5597060000      0.7825640000     -0.6536260000
N                 -1.7956430000      6.4242990000     -2.4989120000
H                 -1.9814180000      2.6599810000     -5.8634280000
H                 -1.7848110000      0.2756360000     -6.5761230000
H                 -1.1573570000     -1.4597260000     -4.9121460000
H                 -0.7311560000     -0.7943070000     -2.5405760000
S                 -1.1031970000      7.5012780000      0.3153570000
H                 -0.6764710000      5.0488470000      1.6489730000
H                 -2.0119430000      6.1650420000     -3.4516280000
H                 -2.0089680000      7.3378750000     -2.0969440000
H                 -0.5089010000      2.6461950000      0.9234850000
O                 -2.2202610000      8.1727250000     -0.4171090000
O                 -1.3021550000      7.4075330000      1.7762560000
O                  0.2371080000      7.9664020000     -0.1063350000
$end
$rem
MAX_SCF_CYCLES=200
BASIS  =  6-311++G(d,p)
GUI  =  2
JOB_TYPE  =  SP
METHOD  =  B3LYP
SOLVENT_METHOD = PCM
$end
$pcm
theory = CPCM
$end
$solvent
dielectric 37.219
opticaldielectric 1.43
$end
--------------------------------------------------------------

             Standard Nuclear Orientation (Angstroms)
    I     Atom           X                Y                Z
 ----------------------------------------------------------------
    1      C      -1.7098730000     1.8851080000    -5.1574730000
    2      C      -1.5978080000     0.5556200000    -5.5446890000
    3      C      -1.2445380000    -0.4219640000    -4.6082910000
    4      C      -1.4704870000     2.2581640000    -3.8296070000
    5      C      -1.1168700000     1.2770730000    -2.8928690000
    6      C      -1.0058520000    -0.0608170000    -3.2888990000
    7      C      -1.5985170000     3.7033170000    -3.4485580000
    8      C      -0.8595790000     1.6462730000    -1.4713340000
    9      C      -1.3350190000     4.0756520000    -2.0683210000
   10      C      -0.9865990000     3.0793920000    -1.1050490000
   11      C      -1.4436890000     5.4459710000    -1.6484870000
   12      C      -1.1682190000     5.7624080000    -0.2754530000
   13      C      -0.8548660000     4.7655180000     0.6182050000
   14      C      -0.7627580000     3.4250390000     0.2162560000
   15      O      -1.9234380000     4.5111630000    -4.3339230000
   16      O      -0.5597060000     0.7825640000    -0.6536260000
   17      N      -1.7956430000     6.4242990000    -2.4989120000
   18      H      -1.9814180000     2.6599810000    -5.8634280000
   19      H      -1.7848110000     0.2756360000    -6.5761230000
   20      H      -1.1573570000    -1.4597260000    -4.9121460000
   21      H      -0.7311560000    -0.7943070000    -2.5405760000
   22      S      -1.1031970000     7.5012780000     0.3153570000
   23      H      -0.6764710000     5.0488470000     1.6489730000
   24      H      -2.0119430000     6.1650420000    -3.4516280000
   25      H      -2.0089680000     7.3378750000    -2.0969440000
   26      H      -0.5089010000     2.6461950000     0.9234850000
   27      O      -2.2202610000     8.1727250000    -0.4171090000
   28      O      -1.3021550000     7.4075330000     1.7762560000
   29      O       0.2371080000     7.9664020000    -0.1063350000
 ----------------------------------------------------------------

    9   -1367.8208400796      5.48e-06  Convergence criterion met
 Total energy in the final basis set =    -1367.8208400796

                    Orbital Energies (a.u.)
 --------------------------------------------------------------

 Alpha MOs
 -- Occupied --
-89.0583 -19.1261 -19.1214 -19.1039 -19.1029 -19.1018 -14.3265 -10.2787
-10.2749 -10.2528 -10.2100 -10.2063 -10.2026 -10.2010 -10.2009 -10.1980
-10.1928 -10.1921 -10.1915 -10.1902 -10.1867  -8.1170  -6.0798  -6.0796
 -6.0788  -1.1239  -1.0588  -1.0524  -0.9904  -0.9862  -0.9442  -0.8851
 -0.8661  -0.8111  -0.7722  -0.7709  -0.7554  -0.6909  -0.6695  -0.6495
 -0.6193  -0.6005  -0.5850  -0.5716  -0.5474  -0.5236  -0.5066  -0.5052
 -0.4952  -0.4748  -0.4687  -0.4630  -0.4602  -0.4530  -0.4515  -0.4499
 -0.4445  -0.4290  -0.4162  -0.4107  -0.4013  -0.3875  -0.3764  -0.3707
 -0.3619  -0.3491  -0.3470  -0.3330  -0.3187  -0.3118  -0.3007  -0.2838
 -0.2831  -0.2731  -0.2719  -0.2698  -0.2673  -0.2251

          Ground-State Mulliken Net Atomic Charges

     Atom                 Charge (a.u.)
  ----------------------------------------
      1 C                     0.223244
      2 C                    -0.522881
      3 C                    -0.450368
      4 C                     0.131955
      5 C                     0.046356
      6 C                     0.154313
      7 C                    -0.408956
      8 C                    -0.475382
      9 C                     0.239471
     10 C                     0.597307
     11 C                     0.375800
     12 C                    -1.161275
     13 C                    -0.151335
     14 C                     0.018017
     15 O                    -0.331264
     16 O                    -0.296934
     17 N                    -0.458569
     18 H                     0.195881
     19 H                     0.220879
     20 H                     0.220846
     21 H                     0.190571
     22 S                     0.602123
     23 H                     0.249970
     24 H                     0.364423
     25 H                     0.322424
     26 H                     0.190704
     27 O                    -0.419635
     28 O                    -0.327226
     29 O                    -0.340466
  ----------------------------------------
  Sum of atomic charges =    -1.000010

                    Cartesian Multipole Moments
 -----------------------------------------------------------------
    Charge (ESU x 10^10)
                -4.8033
    Dipole Moment (Debye)
         X       4.4715      Y     -36.3830      Z      -2.5640
       Tot      36.7463
    Quadrupole Moments (Debye-Ang)
        XX    -144.3177     XY      37.1106     YY    -411.7215
        XZ       4.6431     YZ      -2.9814     ZZ    -127.7154

 Total job time:  61.74s(wall), 459.90s(cpu)
        *  Thank you very much for using Q-Chem.  Have a nice day.  *
