 Q-Chem 5.4, Q-Chem, Inc., Pleasanton, CA (2021)
 Q-Chem 5.4.0 for Intel X86 EM64T Linux

User input:
--------------------------------------------------------------
$molecule
-1 2
C                  2.1492100000      3.8069790000      5.5284840000
C                  3.0460600000      3.1849580000      4.5880320000
C                  2.6180960000      2.2918570000      3.6425020000
C                  1.2262000000      1.9125630000      3.5270820000
C                  0.3275150000      2.5486920000      4.4722080000
C                  0.7383190000      3.4485550000      5.4233110000
O                  2.5694130000      4.6252410000      6.4147070000
O                  0.8160220000      1.0875000000      2.6613580000
C                 -0.2180450000      4.1712740000      6.3664000000
C                 -1.6315560000      3.6067010000      6.4271890000
O                  0.2838340000      4.1905330000      7.7075520000
H                  4.0941450000      3.4593940000      4.6713630000
H                  3.3123580000      1.8318430000      2.9447740000
H                 -0.7165980000      2.2689020000      4.3771500000
H                 -0.2849100000      5.2151650000      6.0109560000
H                 -2.1376290000      3.6812950000      5.4614400000
H                 -2.2056630000      4.1736620000      7.1649850000
H                 -1.6151230000      2.5578130000      6.7356150000
H                  1.2201160000      4.4622640000      7.5939030000
$end
$rem
MAX_SCF_CYCLES=200
BASIS  =  6-311++G(d,p)
GUI  =  2
JOB_TYPE  =  SP
METHOD  =  B3LYP
SOLVENT_METHOD = PCM
$end
$pcm
theory = CPCM
$end
$solvent
dielectric 37.219
opticaldielectric 1.43
$end

--------------------------------------------------------------

             Standard Nuclear Orientation (Angstroms)
    I     Atom           X                Y                Z
 ----------------------------------------------------------------
    1      C       2.1492100000     3.8069790000     5.5284840000
    2      C       3.0460600000     3.1849580000     4.5880320000
    3      C       2.6180960000     2.2918570000     3.6425020000
    4      C       1.2262000000     1.9125630000     3.5270820000
    5      C       0.3275150000     2.5486920000     4.4722080000
    6      C       0.7383190000     3.4485550000     5.4233110000
    7      O       2.5694130000     4.6252410000     6.4147070000
    8      O       0.8160220000     1.0875000000     2.6613580000
    9      C      -0.2180450000     4.1712740000     6.3664000000
   10      C      -1.6315560000     3.6067010000     6.4271890000
   11      O       0.2838340000     4.1905330000     7.7075520000
   12      H       4.0941450000     3.4593940000     4.6713630000
   13      H       3.3123580000     1.8318430000     2.9447740000
   14      H      -0.7165980000     2.2689020000     4.3771500000
   15      H      -0.2849100000     5.2151650000     6.0109560000
   16      H      -2.1376290000     3.6812950000     5.4614400000
   17      H      -2.2056630000     4.1736620000     7.1649850000
   18      H      -1.6151230000     2.5578130000     6.7356150000
   19      H       1.2201160000     4.4622640000     7.5939030000
 ----------------------------------------------------------------

    9    -535.6304640757      7.12e-06  Convergence criterion met
 Total energy in the final basis set =     -535.6304640757

                    Orbital Energies (a.u.)
 --------------------------------------------------------------

 Alpha MOs
 -- Occupied --
-19.1066 -19.0885 -19.0841 -10.2275 -10.2246 -10.2199 -10.1756 -10.1673
-10.1666 -10.1655 -10.1532  -1.0218  -1.0039  -0.9962  -0.8299  -0.7704
 -0.7244  -0.6887  -0.6295  -0.5820  -0.5632  -0.5032  -0.4791  -0.4768
 -0.4584  -0.4341  -0.4129  -0.4099  -0.4006  -0.3850  -0.3821  -0.3779
 -0.3645  -0.3584  -0.3429  -0.2891  -0.2735  -0.2598  -0.2516  -0.2425
 -0.1707

 Beta MOs
 -- Occupied --
-19.1065 -19.0821 -19.0770 -10.2254 -10.2233 -10.2200 -10.1747 -10.1664
-10.1653 -10.1643 -10.1533  -1.0181  -0.9916  -0.9879  -0.8239  -0.7684
 -0.7227  -0.6784  -0.6261  -0.5788  -0.5600  -0.5021  -0.4754  -0.4741
 -0.4556  -0.4319  -0.4041  -0.4000  -0.3932  -0.3803  -0.3777  -0.3652
 -0.3595  -0.3526  -0.3367  -0.2738  -0.2553  -0.2520  -0.2454  -0.2369

          Ground-State Mulliken Net Atomic Charges

     Atom                 Charge (a.u.)    Spin (a.u.)
  --------------------------------------------------------
      1 C                    -0.634609       0.109617
      2 C                     0.063677       0.068952
      3 C                     0.071214       0.106785
      4 C                    -0.353032       0.133399
      5 C                    -1.227068       0.037488
      6 C                     1.595215       0.054479
      7 O                    -0.496524       0.229734
      8 O                    -0.512542       0.249176
      9 C                    -0.245250       0.029695
     10 C                    -0.522245      -0.002358
     11 O                    -0.328753       0.003032
     12 H                     0.202842      -0.006615
     13 H                     0.204690      -0.008050
     14 H                     0.180172      -0.007488
     15 H                     0.198801       0.006049
     16 H                     0.160411      -0.000867
     17 H                     0.168121      -0.000108
     18 H                     0.164745       0.000225
     19 H                     0.310132      -0.003148
  --------------------------------------------------------
  Sum of atomic charges =    -1.000000

                    Cartesian Multipole Moments
 -----------------------------------------------------------------
    Charge (ESU x 10^10)
                -4.8032
    Dipole Moment (Debye)
         X      -6.7970      Y     -13.3970      Z     -24.4431
       Tot      28.6905
    Quadrupole Moments (Debye-Ang)
        XX     -78.5562     XY     -26.3642     YY    -122.1898
        XZ     -38.1912     YZ     -87.9593     ZZ    -223.3253

 Total job time:  25.38s(wall), 141.34s(cpu)
        *  Thank you very much for using Q-Chem.  Have a nice day.  *
