 Q-Chem 5.4, Q-Chem, Inc., Pleasanton, CA (2021)
 Q-Chem 5.4.0 for Intel X86 EM64T Linux

User input:
--------------------------------------------------------------
$molecule
-2 1
O                  3.9116230000     -2.4958930000     -0.0727990000
C                  3.0296160000     -1.5686840000     -0.0005820000
C                  3.3801750000     -0.1861050000      0.2274200000
C                  4.7422300000      0.1749230000      0.3847780000
C                  5.1331770000      1.4799860000      0.5996810000
C                  4.1468420000      2.5031570000      0.6658040000
C                  2.8142620000      2.1799630000      0.5158250000
C                  2.3785040000      0.8468810000      0.2961630000
C                  0.9556670000      0.5953070000      0.1496780000
O                  0.1226400000      1.5745560000      0.2059820000
C                  0.5771300000     -0.7907870000     -0.0639070000
C                 -0.7953180000     -1.2359500000     -0.2112680000
C                 -1.0880510000     -2.5686560000     -0.4394920000
C                 -0.0750990000     -3.5547690000     -0.5340080000
C                  1.2363080000     -3.1737850000     -0.3822260000
C                  1.6071650000     -1.8282560000     -0.1459100000
N                 -1.9663180000     -0.3904290000     -0.1230480000
C                 -2.2626270000      0.1867660000      1.1901000000
C                 -3.7766910000      0.4788310000      1.2954390000
C                 -4.3562990000      0.9411190000     -0.0632810000
C                 -3.2525130000      1.5674520000     -0.9206850000
C                 -2.1604810000      0.5344310000     -1.2510900000
H                  5.4657250000     -0.6323100000      0.3264410000
H                  6.1866740000      1.7275090000      0.7171210000
H                  4.4439760000      3.5367690000      0.8342830000
H                  2.0391840000      2.9379530000      0.5596720000
H                 -2.1364980000     -2.8359060000     -0.5322310000
H                 -0.3392210000     -4.5944810000     -0.7166640000
H                  2.0517260000     -3.8876590000     -0.4352640000
H                 -1.6651580000      1.0908760000      1.3691690000
H                 -1.9707040000     -0.5472380000      1.9458840000
H                 -3.9345310000      1.2568700000      2.0548790000
H                 -4.3167850000     -0.4132770000      1.6373240000
H                 -5.1935850000      1.6359220000      0.0849790000
H                 -4.7648380000      0.0757360000     -0.5986670000
H                 -3.6624000000      1.9785470000     -1.8515770000
H                 -2.7976180000      2.4037310000     -0.3788180000
H                 -1.2332030000      1.0637370000     -1.4989060000
H                 -2.4746870000     -0.0668370000     -2.1189970000
$end
$rem
MAX_SCF_CYCLES=200
BASIS  =  6-311++G(d,p)
GUI  =  2
JOB_TYPE  =  SP
METHOD  =  B3LYP
SOLVENT_METHOD = COSMO
$end
$solvent
dielectric 37.219
opticaldielectric 1.43
$end

--------------------------------------------------------------

             Standard Nuclear Orientation (Angstroms)
    I     Atom           X                Y                Z
 ----------------------------------------------------------------
    1      O       3.4459037404    -2.2745385099     0.0332185488
    2      C       2.5489157569    -1.3591271951     0.0158158184
    3      C       2.8805093241     0.0466688423     0.0293960656
    4      C       4.2404580809     0.4457446528     0.0690754854
    5      C       4.6134142704     1.7735334103     0.0787184296
    6      C       3.6099507782     2.7815735884     0.0467200293
    7      C       2.2789849032     2.4214121252     0.0075910320
    8      C       1.8616425484     1.0645771188    -0.0006655812
    9      C       0.4391957366     0.7745132670    -0.0421443818
   10      O      -0.4106775102     1.7398705343    -0.0849642127
   11      C       0.0803837368    -0.6331134791    -0.0396380190
   12      C      -1.2877385790    -1.1141921282    -0.0570603037
   13      C      -1.5626280235    -2.4698333186    -0.0806578096
   14      C      -0.5346366399    -3.4448466243    -0.0832358570
   15      C       0.7740586824    -3.0275320854    -0.0494714900
   16      C       1.1270735660    -1.6569374477    -0.0234083521
   17      N      -2.4709343746    -0.2814773698    -0.0333248863
   18      C      -2.7195664270     0.4720243630     1.1978241715
   19      C      -4.2330842464     0.7544900217     1.3329723394
   20      C      -4.8830228251     1.0108885316    -0.0481921385
   21      C      -3.8324184308     1.5248057681    -1.0370792203
   22      C      -2.7351277615     0.4710006654    -1.2700636238
   23      H       4.9772556030    -0.3512055151     0.0908281450
   24      H       5.6657506985     2.0502031905     0.1096634264
   25      H       3.8927735777     3.8327615848     0.0532479945
   26      H       1.4910404706     3.1668311987    -0.0190788332
   27      H      -2.6083929164    -2.7624494092    -0.0846338142
   28      H      -0.7850018666    -4.5036147518    -0.1044959998
   29      H       1.6009576276    -3.7300168436    -0.0400411736
   30      H      -2.1336013640     1.4008169219     1.2187796540
   31      H      -2.3785389872    -0.1430091247     2.0348573004
   32      H      -4.3726326624     1.6301407206     1.9816397101
   33      H      -4.7384512009    -0.0876440012     1.8227254351
   34      H      -5.7270613499     1.7077050186     0.0402716065
   35      H      -5.2972035458     0.0725299646    -0.4359646886
   36      H      -4.2924429821     1.7936931896    -1.9960595820
   37      H      -3.3710392606     2.4359385618    -0.6410007356
   38      H      -1.8312385890     0.9729153627    -1.6340527737
   39      H      -3.0756291756    -0.2518111315    -2.0284257222
 ----------------------------------------------------------------

   15    -939.6815105574      9.55e-06  Convergence criterion met
 Total energy in the final basis set =     -939.6815105574
    6    -939.9385802697      3.06e-06  Convergence criterion met
 Total energy in the final basis set =     -939.9385802697

                    Orbital Energies (a.u.)
 --------------------------------------------------------------

 Alpha MOs
 -- Occupied --
-19.0247 -19.0142 -14.2722 -10.1781 -10.1761 -10.1748 -10.1628 -10.1605
-10.1498 -10.1490 -10.1487 -10.1474 -10.1466 -10.1465 -10.1455 -10.1452
-10.1427 -10.1417 -10.1394 -10.1371 -10.1362 -10.1357  -0.9458  -0.9377
 -0.8970  -0.8266  -0.8167  -0.7722  -0.7503  -0.7264  -0.7232  -0.7092
 -0.7044  -0.6370  -0.6211  -0.6059  -0.6003  -0.5871  -0.5538  -0.5299
 -0.5084  -0.5022  -0.4949  -0.4665  -0.4591  -0.4396  -0.4374  -0.4297
 -0.4255  -0.4174  -0.3990  -0.3906  -0.3885  -0.3846  -0.3759  -0.3745
 -0.3707  -0.3617  -0.3576  -0.3502  -0.3441  -0.3358  -0.3264  -0.3217
 -0.3150  -0.3121  -0.3038  -0.3021  -0.2987  -0.2895  -0.2332  -0.2256
 -0.2223  -0.2167  -0.2064  -0.1920  -0.1798  -0.1065

          Ground-State Mulliken Net Atomic Charges

     Atom                 Charge (a.u.)
  ----------------------------------------
      1 O                    -0.702824
      2 C                    -0.222642
      3 C                     0.412611
      4 C                    -0.144737
      5 C                    -0.460620
      6 C                    -0.485034
      7 C                    -0.012367
      8 C                     0.023287
      9 C                    -0.097222
     10 O                    -0.604064
     11 C                    -0.182443
     12 C                    -1.104950
     13 C                     0.037369
     14 C                    -0.364655
     15 C                    -0.308875
     16 C                     0.362308
     17 N                     0.622649
     18 C                    -0.111175
     19 C                    -0.395511
     20 C                    -0.373876
     21 C                    -0.366458
     22 C                    -0.103380
     23 H                     0.150049
     24 H                     0.179612
     25 H                     0.180018
     26 H                     0.142511
     27 H                     0.131698
     28 H                     0.190594
     29 H                     0.151814
     30 H                     0.141925
     31 H                     0.154805
     32 H                     0.140569
     33 H                     0.140456
     34 H                     0.166560
     35 H                     0.136130
     36 H                     0.170740
     37 H                     0.138826
     38 H                     0.127481
     39 H                     0.138822
  ----------------------------------------
  Sum of atomic charges =    -2.000000

                    Cartesian Multipole Moments
 -----------------------------------------------------------------
    Charge (ESU x 10^10)
                -9.6064
    Dipole Moment (Debye)
         X     -13.8847      Y       4.0887      Z       0.1949
       Tot      14.4755
    Quadrupole Moments (Debye-Ang)
        XX    -201.3960     XY      21.8531     YY    -176.4331
        XZ      -0.2334     YZ       0.2996     ZZ    -144.0508

 Total job time:  184.35s(wall), 1446.16s(cpu)
        *  Thank you very much for using Q-Chem.  Have a nice day.  *
