 Gaussian 16, Revision A.03,
 Gaussian 16:  ES64L-G16RevA.03 25-Dec-2016

 --------------------------------------
 #P UB3LYP/6-311++G(d,p) nosym opt freq
 --------------------------------------

 -------
 Reduced
 -------
 Symbolic Z-matrix:
 Charge = -2 Multiplicity = 1

 SCF Done:  E(UB3LYP) =  -939.681176376     A.U. after   67 cycles
 SCF Done:  E(UB3LYP) =  -939.681063200     A.U. after   27 cycles
 SCF Done:  E(UB3LYP) =  -939.681215890     A.U. after   24 cycles
 SCF Done:  E(UB3LYP) =  -939.681242418     A.U. after   26 cycles
 SCF Done:  E(UB3LYP) =  -939.681254780     A.U. after   26 cycles
 SCF Done:  E(UB3LYP) =  -939.681258544     A.U. after   26 cycles
 SCF Done:  E(UB3LYP) =  -939.681260290     A.U. after   25 cycles
 SCF Done:  E(UB3LYP) =  -939.681261233     A.U. after   24 cycles
 SCF Done:  E(UB3LYP) =  -939.681261648     A.U. after   23 cycles
 SCF Done:  E(UB3LYP) =  -939.681261768     A.U. after   21 cycles
 Optimization completed.
    -- Stationary point found.
 Normal termination of Gaussian 16 at Sun Jan  7 10:48:49 2024.

 ----------------------------------------------------------------------
 #P Geom=AllCheck Guess=TCheck SCRF=Check GenChk UB3LYP/6-311++G(d,p) F
 req
 ----------------------------------------------------------------------

 Structure from the checkpoint file:  "212-an.chk"
 -------
 Reduced
 -------
 Charge = -2 Multiplicity = 1

                          Input orientation:
 ---------------------------------------------------------------------
 Center     Atomic      Atomic             Coordinates (Angstroms)
 Number     Number       Type             X           Y           Z
 ---------------------------------------------------------------------
      1          8           0        3.911623   -2.495893   -0.072799
      2          6           0        3.029616   -1.568684   -0.000582
      3          6           0        3.380175   -0.186105    0.227420
      4          6           0        4.742230    0.174923    0.384778
      5          6           0        5.133177    1.479986    0.599681
      6          6           0        4.146842    2.503157    0.665804
      7          6           0        2.814262    2.179963    0.515825
      8          6           0        2.378504    0.846881    0.296163
      9          6           0        0.955667    0.595307    0.149678
     10          8           0        0.122640    1.574556    0.205982
     11          6           0        0.577130   -0.790787   -0.063907
     12          6           0       -0.795318   -1.235950   -0.211268
     13          6           0       -1.088051   -2.568656   -0.439492
     14          6           0       -0.075099   -3.554769   -0.534008
     15          6           0        1.236308   -3.173785   -0.382226
     16          6           0        1.607165   -1.828256   -0.145910
     17          7           0       -1.966318   -0.390429   -0.123048
     18          6           0       -2.262627    0.186766    1.190100
     19          6           0       -3.776691    0.478831    1.295439
     20          6           0       -4.356299    0.941119   -0.063281
     21          6           0       -3.252513    1.567452   -0.920685
     22          6           0       -2.160481    0.534431   -1.251090
     23          1           0        5.465725   -0.632310    0.326441
     24          1           0        6.186674    1.727509    0.717121
     25          1           0        4.443976    3.536769    0.834283
     26          1           0        2.039184    2.937953    0.559672
     27          1           0       -2.136498   -2.835906   -0.532231
     28          1           0       -0.339221   -4.594481   -0.716664
     29          1           0        2.051726   -3.887659   -0.435264
     30          1           0       -1.665158    1.090876    1.369169
     31          1           0       -1.970704   -0.547238    1.945884
     32          1           0       -3.934531    1.256870    2.054879
     33          1           0       -4.316785   -0.413277    1.637324
     34          1           0       -5.193585    1.635922    0.084979
     35          1           0       -4.764838    0.075736   -0.598667
     36          1           0       -3.662400    1.978547   -1.851577
     37          1           0       -2.797618    2.403731   -0.378818
     38          1           0       -1.233203    1.063737   -1.498906
     39          1           0       -2.474687   -0.066837   -2.118997
 ---------------------------------------------------------------------

 SCF Done:  E(UB3LYP) =  -939.681261768     A.U. after    1 cycles

 Alpha  occ. eigenvalues --  -18.79818 -18.79565 -14.07481  -9.97265  -9.96871
 Alpha  occ. eigenvalues --   -9.96835  -9.96824  -9.96737  -9.96463  -9.95813
 Alpha  occ. eigenvalues --   -9.95679  -9.94342  -9.94293  -9.93712  -9.93515
 Alpha  occ. eigenvalues --   -9.93334  -9.93331  -9.92985  -9.92795  -9.92016
 Alpha  occ. eigenvalues --   -9.92008  -9.91916  -0.71970  -0.71530  -0.69708
 Alpha  occ. eigenvalues --   -0.61305  -0.60880  -0.58242  -0.53898  -0.53678
 Alpha  occ. eigenvalues --   -0.50943  -0.50224  -0.49245  -0.43265  -0.41816
 Alpha  occ. eigenvalues --   -0.41625  -0.39334  -0.37626  -0.35011  -0.32566
 Alpha  occ. eigenvalues --   -0.30633  -0.29906  -0.28812  -0.27773  -0.25966
 Alpha  occ. eigenvalues --   -0.23882  -0.22966  -0.22148  -0.22068  -0.21180
 Alpha  occ. eigenvalues --   -0.19896  -0.19347  -0.19069  -0.18564  -0.17296
 Alpha  occ. eigenvalues --   -0.16110  -0.15908  -0.15226  -0.15108  -0.15029
 Alpha  occ. eigenvalues --   -0.13332  -0.12821  -0.12260  -0.12027  -0.11473
 Alpha  occ. eigenvalues --   -0.10393  -0.10247  -0.09702  -0.08471  -0.08270
 Alpha  occ. eigenvalues --   -0.01751  -0.00630  -0.00161  -0.00025   0.01443
 Alpha  occ. eigenvalues --    0.02505   0.03150   0.11920
 Alpha virt. eigenvalues --    0.13150   0.15423   0.15581   0.15740   0.16770
 Alpha virt. eigenvalues --    0.16924   0.17291   0.18600   0.18955   0.19268
 Alpha virt. eigenvalues --    0.19607   0.20165   0.20538   0.20958   0.21250

  Beta  occ. eigenvalues --  -18.79818 -18.79565 -14.07481  -9.97265  -9.96871
  Beta  occ. eigenvalues --   -9.96835  -9.96824  -9.96737  -9.96463  -9.95813
  Beta  occ. eigenvalues --   -9.95679  -9.94342  -9.94293  -9.93712  -9.93515
  Beta  occ. eigenvalues --   -9.93334  -9.93331  -9.92985  -9.92795  -9.92016
  Beta  occ. eigenvalues --   -9.92008  -9.91916  -0.71970  -0.71530  -0.69708
  Beta  occ. eigenvalues --   -0.61305  -0.60880  -0.58242  -0.53898  -0.53678
  Beta  occ. eigenvalues --   -0.50943  -0.50224  -0.49245  -0.43265  -0.41816
  Beta  occ. eigenvalues --   -0.41625  -0.39334  -0.37626  -0.35011  -0.32566
  Beta  occ. eigenvalues --   -0.30633  -0.29906  -0.28812  -0.27773  -0.25966
  Beta  occ. eigenvalues --   -0.23882  -0.22966  -0.22148  -0.22068  -0.21180
  Beta  occ. eigenvalues --   -0.19896  -0.19347  -0.19069  -0.18564  -0.17296
  Beta  occ. eigenvalues --   -0.16110  -0.15908  -0.15226  -0.15108  -0.15029
  Beta  occ. eigenvalues --   -0.13332  -0.12821  -0.12260  -0.12027  -0.11473
  Beta  occ. eigenvalues --   -0.10393  -0.10247  -0.09702  -0.08471  -0.08270
  Beta  occ. eigenvalues --   -0.01751  -0.00630  -0.00161  -0.00025   0.01443
  Beta  occ. eigenvalues --    0.02505   0.03150   0.11920
  Beta virt. eigenvalues --    0.13150   0.15423   0.15581   0.15740   0.16770
  Beta virt. eigenvalues --    0.16924   0.17291   0.18600   0.18955   0.19268
  Beta virt. eigenvalues --    0.19607   0.20165   0.20538   0.20958   0.21250

 Mulliken charges and spin densities:
               1          2
     1  O   -0.484649  -0.000000
     2  C   -0.557690  -0.000000
     3  C    0.644015   0.000000
     4  C   -0.162656  -0.000000
     5  C   -0.413840  -0.000000
     6  C   -0.431869  -0.000000
     7  C    0.005952   0.000000
     8  C    0.155945  -0.000000
     9  C   -0.248908   0.000000
    10  O   -0.413756  -0.000000
    11  C   -0.108975   0.000000
    12  C   -1.047056   0.000000
    13  C    0.040476  -0.000000
    14  C   -0.296594   0.000000
    15  C   -0.239141   0.000000
    16  C    0.491843  -0.000000
    17  N    0.558322  -0.000000
    18  C   -0.213128  -0.000000
    19  C   -0.210913   0.000000
    20  C    0.354188  -0.000000
    21  C   -0.629679   0.000000
    22  C    0.297946  -0.000000
    23  H    0.130903   0.000000
    24  H    0.081754   0.000000
    25  H    0.085743   0.000000
    26  H    0.114682  -0.000000
    27  H    0.054897   0.000000
    28  H    0.098399   0.000000
    29  H    0.140013  -0.000000
    30  H    0.201612   0.000000
    31  H    0.142918  -0.000000
    32  H    0.088235  -0.000000
    33  H    0.026863   0.000000
    34  H   -0.725460   0.000000
    35  H    0.193340  -0.000000
    36  H   -0.234498   0.000000
    37  H    0.254457  -0.000000
    38  H    0.197906   0.000000
    39  H    0.058402   0.000000
 Sum of Mulliken charges =  -2.00000   0.00000

 Dipole moment (field-independent basis, Debye):
    X=             -7.7332    Y=              2.1189    Z=             -0.0526  Tot=              8.0184
 Quadrupole moment (field-independent basis, Debye-Ang):
   XX=           -271.0868   YY=           -190.7703   ZZ=           -151.8149
   XY=             27.9937   XZ=             -4.5001   YZ=             -3.2167

  Exact polarizability:2386.747-575.083 742.917  60.295 -32.764 597.603
 Approx polarizability:8497.485********1573.704 394.022 -70.379 526.652

                      1                      2                      3
                      A                      A                      A
 Frequencies --     28.1983                38.0182                50.7642
 Red. masses --      4.7233                 3.2514                 5.6828
 Frc consts  --      0.0022                 0.0028                 0.0086
 IR Inten    --      0.4790                 6.0384                 3.7234

                      4                      5                      6
                      A                      A                      A
 Frequencies --     91.4050               123.8886               143.0252
 Red. masses --      3.5685                 4.0273                 2.5111
 Frc consts  --      0.0176                 0.0364                 0.0303
 IR Inten    --      1.0606                 0.1724                 2.2137

                      7                      8                      9
                      A                      A                      A
 Frequencies --    165.3067               185.7531               190.6223
 Red. masses --      5.5698                 4.2864                 3.1602
 Frc consts  --      0.0897                 0.0871                 0.0677
 IR Inten    --      1.4435                 3.7582                 2.6605

                     10                     11                     12
                      A                      A                      A
 Frequencies --    222.0774               231.1974               281.5261
 Red. masses --      5.3943                 4.8090                 1.8287
 Frc consts  --      0.1567                 0.1515                 0.0854
 IR Inten    --      4.2226                 0.2986                69.6890

                     13                     14                     15
                      A                      A                      A
 Frequencies --    301.0224               315.1309               335.7530
 Red. masses --      3.7959                 4.5974                 4.0637
 Frc consts  --      0.2027                 0.2690                 0.2699
 IR Inten    --      1.4269                 0.5455                 4.9061

                     16                     17                     18
                      A                      A                      A
 Frequencies --    364.6209               383.4641               403.0961
 Red. masses --      5.9516                10.8330                 7.2796
 Frc consts  --      0.4662                 0.9385                 0.6969
 IR Inten    --     45.1661                30.6552                 0.5371

                     19                     20                     21
                      A                      A                      A
 Frequencies --    428.6340               448.7972               459.5118
 Red. masses --      7.0256                 3.2929                 3.4869
 Frc consts  --      0.7605                 0.3908                 0.4338
 IR Inten    --     38.2638                 7.7308               360.5168

                     22                     23                     24
                      A                      A                      A
 Frequencies --    485.8343               501.3063               503.6559
 Red. masses --      5.3301                 5.0172                 4.4299
 Frc consts  --      0.7413                 0.7429                 0.6621
 IR Inten    --    489.3278               110.2442                26.9397

                     25                     26                     27
                      A                      A                      A
 Frequencies --    516.4198               585.9116               606.2494
 Red. masses --      3.6803                 4.4189                 5.6596
 Frc consts  --      0.5783                 0.8938                 1.2256
 IR Inten    --      1.9682                 1.9381                 8.9274

                     28                     29                     30
                      A                      A                      A
 Frequencies --    631.2180               649.7501               664.4032
 Red. masses --      3.7360                 4.0009                 3.8832
 Frc consts  --      0.8770                 0.9952                 1.0100
 IR Inten    --     17.2469                13.4892                24.1181

                     31                     32                     33
                      A                      A                      A
 Frequencies --    689.4613               690.2624               727.3072
 Red. masses --      2.1545                 5.3389                 1.5998
 Frc consts  --      0.6034                 1.4988                 0.4986
 IR Inten    --     70.7415                 9.1551                 3.7354

                     34                     35                     36
                      A                      A                      A
 Frequencies --    755.1210               758.8372               766.7319
 Red. masses --      2.1420                 2.3885                 2.7412
 Frc consts  --      0.7196                 0.8104                 0.9495
 IR Inten    --      4.2921                 5.8676                18.5996

                     37                     38                     39
                      A                      A                      A
 Frequencies --    787.6509               802.4569               818.7652
 Red. masses --      1.6683                 1.8314                 4.2442
 Frc consts  --      0.6098                 0.6948                 1.6764
 IR Inten    --     50.4112                 2.8520                 3.1235

                     40                     41                     42
                      A                      A                      A
 Frequencies --    833.2382               844.1824               862.9074
 Red. masses --      3.6085                 3.3841                 1.5262
 Frc consts  --      1.4761                 1.4209                 0.6695
 IR Inten    --      0.4697                38.0015                32.1392

                     43                     44                     45
                      A                      A                      A
 Frequencies --    881.3517               907.1371               918.8415
 Red. masses --      1.5555                 4.2179                 2.3791
 Frc consts  --      0.7119                 2.0450                 1.1834
 IR Inten    --     81.2255                10.7998                14.0008

                     46                     47                     48
                      A                      A                      A
 Frequencies --    936.6194               959.9845               964.2637
 Red. masses --      5.8239                 1.2705                 1.9572
 Frc consts  --      3.0102                 0.6898                 1.0722
 IR Inten    --      0.5442                 0.5208                62.5018

                     49                     50                     51
                      A                      A                      A
 Frequencies --    967.7906               973.0261               995.1389
 Red. masses --      1.3178                 1.3143                 2.1998
 Frc consts  --      0.7272                 0.7332                 1.2835
 IR Inten    --      2.1992                 2.8019               324.8665

                     52                     53                     54
                      A                      A                      A
 Frequencies --   1015.9941              1035.9032              1058.5912
 Red. masses --      2.0071                 2.2453                 2.0918
 Frc consts  --      1.2207                 1.4196                 1.3811
 IR Inten    --    251.2498               117.1498               200.3975

                     55                     56                     57
                      A                      A                      A
 Frequencies --   1071.3403              1079.9248              1097.7237
 Red. masses --      2.2855                 1.7457                 2.0445
 Frc consts  --      1.5456                 1.1995                 1.4515
 IR Inten    --    108.2881                31.6254                14.7918

                     58                     59                     60
                      A                      A                      A
 Frequencies --   1117.4003              1122.2133              1150.0258
 Red. masses --      1.5413                 2.6189                 1.4102
 Frc consts  --      1.1339                 1.9432                 1.0988
 IR Inten    --    113.0533                13.8541                59.5816

                     61                     62                     63
                      A                      A                      A
 Frequencies --   1153.5284              1170.1630              1182.4574
 Red. masses --      1.8740                 2.6442                 1.2299
 Frc consts  --      1.4692                 2.1332                 1.0132
 IR Inten    --     15.0543               578.0995                 7.6961

                     64                     65                     66
                      A                      A                      A
 Frequencies --   1192.6769              1212.9565              1215.7718
 Red. masses --      2.0020                 2.5469                 2.0375
 Frc consts  --      1.6779                 2.2077                 1.7744
 IR Inten    --     22.3738               106.9519                59.6379

                     67                     68                     69
                      A                      A                      A
 Frequencies --   1235.7737              1240.1549              1275.9330
 Red. masses --      2.3563                 1.7227                 1.3624
 Frc consts  --      2.1201                 1.5610                 1.3068
 IR Inten    --     46.5217               120.6043               152.1745

                     70                     71                     72
                      A                      A                      A
 Frequencies --   1286.1417              1297.1885              1316.6989
 Red. masses --      1.2094                 2.6444                 2.1206
 Frc consts  --      1.1787                 2.6217                 2.1661
 IR Inten    --     21.2224               614.6018               135.2446

                     73                     74                     75
                      A                      A                      A
 Frequencies --   1335.5950              1338.1648              1344.3440
 Red. masses --      2.6591                 1.6161                 1.3298
 Frc consts  --      2.7947                 1.7051                 1.4160
 IR Inten    --     40.5242               138.2601                 8.5947

                     76                     77                     78
                      A                      A                      A
 Frequencies --   1348.6899              1363.3043              1370.2080
 Red. masses --      4.7782                 2.1070                 1.6354
 Frc consts  --      5.1208                 2.3073                 1.8091
 IR Inten    --    823.1549                95.5310               119.0928

                     79                     80                     81
                      A                      A                      A
 Frequencies --   1373.8738              1401.6176              1417.8096
 Red. masses --      1.4631                 1.8523                 2.0447
 Frc consts  --      1.6271                 2.1440                 2.4216
 IR Inten    --     88.3449                24.4651                54.3058

                     82                     83                     84
                      A                      A                      A
 Frequencies --   1448.8343              1466.0021              1473.5410
 Red. masses --      4.3944                 2.3805                 1.0910
 Frc consts  --      5.4349                 3.0143                 1.3957
 IR Inten    --   3340.0160               999.5862               138.5095

                     85                     86                     87
                      A                      A                      A
 Frequencies --   1477.1608              1486.1218              1487.8092
 Red. masses --      3.5522                 1.6574                 1.2104
 Frc consts  --      4.5667                 2.1566                 1.5786
 IR Inten    --      4.7967               600.0931               246.9664

                     88                     89                     90
                      A                      A                      A
 Frequencies --   1490.0659              1502.1275              1530.3108
 Red. masses --      1.7869                 1.1955                 1.3723
 Frc consts  --      2.3376                 1.5893                 1.8935
 IR Inten    --    166.1318                77.2533                24.5347

                     91                     92                     93
                      A                      A                      A
 Frequencies --   1534.0847              1561.5562              1586.1693
 Red. masses --      2.7196                 6.5871                 5.5248
 Frc consts  --      3.7709                 9.4637                 8.1897
 IR Inten    --     67.0840              4257.2068               288.8338

                     94                     95                     96
                      A                      A                      A
 Frequencies --   1592.0102              2934.5543              2972.3461
 Red. masses --      5.2638                 1.0703                 1.0629
 Frc consts  --      7.8603                 5.4307                 5.5325
 IR Inten    --      7.0229                61.4583                31.1678

                     97                     98                     99
                      A                      A                      A
 Frequencies --   2977.1070              2987.0761              3002.4002
 Red. masses --      1.0750                 1.0634                 1.0849
 Frc consts  --      5.6138                 5.5901                 5.7621
 IR Inten    --     42.0968                67.3305                11.5042

                    100                    101                    102
                      A                      A                      A
 Frequencies --   3003.4581              3016.4463              3022.3967
 Red. masses --      1.0713                 1.0900                 1.1003
 Frc consts  --      5.6937                 5.8436                 5.9219
 IR Inten    --     22.7505                34.8170                94.6403

                    103                    104                    105
                      A                      A                      A
 Frequencies --   3044.4400              3056.7269              3095.1549
 Red. masses --      1.0966                 1.0958                 1.0828
 Frc consts  --      5.9885                 6.0324                 6.1118
 IR Inten    --     23.6290                39.8283                30.6659

                    106                    107                    108
                      A                      A                      A
 Frequencies --   3107.4636              3118.4712              3147.2826
 Red. masses --      1.0850                 1.0908                 1.0908
 Frc consts  --      6.1731                 6.2499                 6.3663
 IR Inten    --     78.2578               284.5492                37.5031

                    109                    110                    111
                      A                      A                      A
 Frequencies --   3160.4768              3165.3250              3167.1563
 Red. masses --      1.0908                 1.0914                 1.0908
 Frc consts  --      6.4195                 6.4426                 6.4467
 IR Inten    --    111.5606                95.7222               117.1409

 - Thermochemistry -
 -------------------
 Temperature   298.150 Kelvin.  Pressure   1.00000 Atm.
 Atom     1 has atomic number  8 and mass  15.99491

 Molecular mass:   291.12593 amu.
 Principal axes and moments of inertia in atomic units:
                           1         2         3
     Eigenvalues --  3550.359718770.51302**********
           X            0.99876   0.01233  -0.04824
           Y           -0.01907   0.98972  -0.14175
           Z            0.04600   0.14250   0.98873
 This molecule is an asymmetric top.
 Rotational symmetry number  1.
 Warning -- assumption of classical behavior for rotation
           may cause significant error
 Rotational temperatures (Kelvin)      0.02440     0.00988     0.00744
 Rotational constants (GHZ):           0.50833     0.20577     0.15510
 Zero-point vibrational energy     817132.5 (Joules/Mol)
                                  195.29935 (Kcal/Mol)
 Warning -- explicit consideration of  27 degrees of freedom as
           vibrations may cause significant error
 Vibrational temperatures:     40.57    54.70    73.04   131.51   178.25
          (Kelvin)            205.78   237.84   267.26   274.26   319.52
                              332.64   405.05   433.10   453.40   483.07
                              524.61   551.72   579.97   616.71   645.72
                              661.14   699.01   721.27   724.65   743.01
                              843.00   872.26   908.18   934.85   955.93
                              991.98   993.13  1046.43  1086.45  1091.80
                             1103.16  1133.25  1154.56  1178.02  1198.84
                             1214.59  1241.53  1268.07  1305.17  1322.01
                             1347.59  1381.20  1387.36  1392.43  1399.97
                             1431.78  1461.79  1490.43  1523.08  1541.42
                             1553.77  1579.38  1607.69  1614.61  1654.63
                             1659.67  1683.60  1701.29  1716.00  1745.17
                             1749.22  1778.00  1784.31  1835.78  1850.47
                             1866.36  1894.44  1921.62  1925.32  1934.21
                             1940.46  1961.49  1971.42  1976.70  2016.62
                             2039.91  2084.55  2109.25  2120.10  2125.30
                             2138.20  2140.63  2143.87  2161.23  2201.78
                             2207.21  2246.73  2282.14  2290.55  4222.17
                             4276.54  4283.39  4297.74  4319.78  4321.31
                             4339.99  4348.55  4380.27  4397.95  4453.24
                             4470.95  4486.78  4528.24  4547.22  4554.20
                             4556.83

 Zero-point correction=                           0.311229 (Hartree/Particle)
 Thermal correction to Energy=                    0.328609
 Thermal correction to Enthalpy=                  0.329553
 Thermal correction to Gibbs Free Energy=         0.265714
 Sum of electronic and zero-point Energies=           -939.370032
 Sum of electronic and thermal Energies=              -939.352653
 Sum of electronic and thermal Enthalpies=            -939.351709
 Sum of electronic and thermal Free Energies=         -939.415548

                     E (Thermal)             CV                S
                      KCal/Mol        Cal/Mol-Kelvin    Cal/Mol-Kelvin
 Total                  206.205             71.239            134.361
 Electronic               0.000              0.000              0.000
 Translational            0.889              2.981             42.903
 Rotational               0.889              2.981             34.248
 Vibrational            204.428             65.277             57.210
 Vibration     1          0.593              1.984              5.952
 Vibration     2          0.594              1.982              5.360
 Vibration     3          0.595              1.977              4.787
 Vibration     4          0.602              1.955              3.630
 Vibration     5          0.610              1.929              3.039
 Vibration     6          0.616              1.910              2.763
 Vibration     7          0.624              1.885              2.488
 Vibration     8          0.632              1.859              2.270
 Vibration     9          0.634              1.853              2.222
 Vibration    10          0.648              1.807              1.942
 Vibration    11          0.653              1.793              1.870
 Vibration    12          0.681              1.708              1.524
 Vibration    13          0.693              1.672              1.411
 Vibration    14          0.702              1.645              1.335
 Vibration    15          0.717              1.604              1.232
 Vibration    16          0.738              1.545              1.102
 Vibration    17          0.753              1.505              1.025
 Vibration    18          0.768              1.463              0.951
 Vibration    19          0.790              1.408              0.863
 Vibration    20          0.808              1.364              0.799
 Vibration    21          0.817              1.340              0.768
 Vibration    22          0.842              1.281              0.695
 Vibration    23          0.857              1.247              0.655
 Vibration    24          0.859              1.242              0.649
 Vibration    25          0.871              1.214              0.618
 Vibration    26          0.943              1.062              0.475
 Vibration    27          0.965              1.019              0.439

                           ! Non-Optimized Parameters !
 Normal termination of Gaussian 16 at Sun Jan  7 14:45:07 2024.
