 Q-Chem 5.4, Q-Chem, Inc., Pleasanton, CA (2021)
 Q-Chem 5.4.0 for Intel X86 EM64T Linux

User input:
--------------------------------------------------------------
$molecule
-1 2
C                 -2.0285940000      0.3608500000      1.5330510000
C                 -2.9129560000      1.1967960000      0.7109440000
C                 -2.5197000000      1.5056140000     -0.5661040000
C                 -1.2820710000      1.0750370000     -1.1996730000
C                 -0.3978270000      0.2389280000     -0.3776490000
C                 -0.7910690000     -0.0698940000      0.8994070000
O                 -0.9775530000      1.3910610000     -2.3745930000
O                 -2.3333050000      0.0444640000      2.7078250000
Br                 0.3154870000     -1.1722680000      2.0634190000
Br                -3.6263780000      2.6077380000     -1.7302340000
C                  0.9094660000     -0.2360100000     -0.9985960000
C                  1.8499050000      0.9348940000     -1.3459840000
C                  0.6782680000     -1.1556250000     -2.2138790000
C                 -4.2203940000      1.6715300000      1.3317750000
C                 -3.9894940000      2.5915250000      2.5468270000
C                 -5.1605350000      0.5004450000      1.6793610000
H                  1.4142650000     -0.8340690000     -0.2393540000
H                  2.0517180000      1.5446980000     -0.4600320000
H                  1.4091820000      1.5716940000     -2.1135780000
H                  2.8081480000      0.5481980000     -1.7129710000
H                  0.0580830000     -2.0136620000     -1.9370280000
H                  1.6380870000     -1.5391010000     -2.5801080000
H                  0.1833520000     -0.6145730000     -3.0208840000
H                 -4.7253260000      2.2692780000      0.5723740000
H                 -4.9494280000      2.9749030000      2.9128640000
H                 -3.3694830000      3.4496130000      2.2697570000
H                 -3.4945370000      2.0508120000      3.3540310000
H                 -6.1189270000      0.8869570000      2.0461560000
H                 -4.7197200000     -0.1360420000      2.4471590000
H                 -5.3620800000     -0.1096040000      0.7935180000
$end
$rem
MAX_SCF_CYCLES=200
BASIS  =  6-311++G(d,p)
GUI  =  2
JOB_TYPE  =  SP
METHOD  =  B3LYP
SOLVENT_METHOD = PCM
$end
$pcm
theory = CPCM
$end
$solvent
dielectric 37.219
opticaldielectric 1.43
$end

--------------------------------------------------------------

             Standard Nuclear Orientation (Angstroms)
    I     Atom           X                Y                Z
 ----------------------------------------------------------------
    1      C      -2.0285940000     0.3608500000     1.5330510000
    2      C      -2.9129560000     1.1967960000     0.7109440000
    3      C      -2.5197000000     1.5056140000    -0.5661040000
    4      C      -1.2820710000     1.0750370000    -1.1996730000
    5      C      -0.3978270000     0.2389280000    -0.3776490000
    6      C      -0.7910690000    -0.0698940000     0.8994070000
    7      O      -0.9775530000     1.3910610000    -2.3745930000
    8      O      -2.3333050000     0.0444640000     2.7078250000
    9      Br      0.3154870000    -1.1722680000     2.0634190000
   10      Br     -3.6263780000     2.6077380000    -1.7302340000
   11      C       0.9094660000    -0.2360100000    -0.9985960000
   12      C       1.8499050000     0.9348940000    -1.3459840000
   13      C       0.6782680000    -1.1556250000    -2.2138790000
   14      C      -4.2203940000     1.6715300000     1.3317750000
   15      C      -3.9894940000     2.5915250000     2.5468270000
   16      C      -5.1605350000     0.5004450000     1.6793610000
   17      H       1.4142650000    -0.8340690000    -0.2393540000
   18      H       2.0517180000     1.5446980000    -0.4600320000
   19      H       1.4091820000     1.5716940000    -2.1135780000
   20      H       2.8081480000     0.5481980000    -1.7129710000
   21      H       0.0580830000    -2.0136620000    -1.9370280000
   22      H       1.6380870000    -1.5391010000    -2.5801080000
   23      H       0.1833520000    -0.6145730000    -3.0208840000
   24      H      -4.7253260000     2.2692780000     0.5723740000
   25      H      -4.9494280000     2.9749030000     2.9128640000
   26      H      -3.3694830000     3.4496130000     2.2697570000
   27      H      -3.4945370000     2.0508120000     3.3540310000
   28      H      -6.1189270000     0.8869570000     2.0461560000
   29      H      -4.7197200000    -0.1360420000     2.4471590000
   30      H      -5.3620800000    -0.1096040000     0.7935180000
 ----------------------------------------------------------------

    8   -5764.7517724215      8.46e-06  Convergence criterion met
 Total energy in the final basis set =    -5764.7517724215

                    Orbital Energies (a.u.)
 --------------------------------------------------------------

 Alpha MOs
 -- Occupied --
********-482.8227 -62.4756 -62.4756 -56.2959 -56.2959 -56.2924 -56.2924
-56.2920 -56.2920 -19.0846 -19.0846 -10.2374 -10.2374 -10.2198 -10.2198
-10.1875 -10.1875 -10.1735 -10.1735 -10.1484 -10.1484 -10.1484 -10.1483
 -8.6841  -8.6841  -6.5150  -6.5150  -6.5033  -6.5033  -6.5023  -6.5023
 -2.6262  -2.6262  -2.6227  -2.6227  -2.6220  -2.6220  -2.6128  -2.6128
 -2.6128  -2.6128  -1.0160  -1.0133  -0.8566  -0.8281  -0.7862  -0.7847
 -0.7631  -0.7116  -0.6760  -0.6758  -0.6757  -0.6256  -0.5732  -0.5685
 -0.5377  -0.5126  -0.4614  -0.4483  -0.4408  -0.4362  -0.4287  -0.4153
 -0.4153  -0.4064  -0.3991  -0.3978  -0.3950  -0.3725  -0.3677  -0.3666
 -0.3476  -0.3450  -0.3409  -0.3354  -0.3327  -0.3314  -0.3177  -0.3140
 -0.2850  -0.2762  -0.2722  -0.2477  -0.2447  -0.2411  -0.1686

 Beta MOs
 -- Occupied --
********-482.8227 -62.4756 -62.4756 -56.2959 -56.2959 -56.2923 -56.2923
-56.2920 -56.2920 -19.0782 -19.0782 -10.2358 -10.2358 -10.2188 -10.2188
-10.1863 -10.1863 -10.1736 -10.1735 -10.1483 -10.1483 -10.1483 -10.1483
 -8.6841  -8.6841  -6.5151  -6.5151  -6.5032  -6.5032  -6.5023  -6.5023
 -2.6262  -2.6262  -2.6227  -2.6227  -2.6220  -2.6220  -2.6128  -2.6128
 -2.6127  -2.6127  -1.0049  -1.0019  -0.8517  -0.8267  -0.7856  -0.7833
 -0.7612  -0.7094  -0.6755  -0.6754  -0.6670  -0.6232  -0.5721  -0.5645
 -0.5347  -0.5110  -0.4594  -0.4460  -0.4392  -0.4275  -0.4235  -0.4130
 -0.4108  -0.4036  -0.3973  -0.3906  -0.3863  -0.3704  -0.3644  -0.3553
 -0.3462  -0.3443  -0.3398  -0.3340  -0.3321  -0.3308  -0.3118  -0.3028
 -0.2845  -0.2758  -0.2507  -0.2424  -0.2393  -0.2352

          Ground-State Mulliken Net Atomic Charges

     Atom                 Charge (a.u.)    Spin (a.u.)
  --------------------------------------------------------
      1 C                    -1.161909       0.075645
      2 C                     1.300607       0.127583
      3 C                    -0.105402       0.068535
      4 C                    -1.161512       0.075656
      5 C                     1.300729       0.127595
      6 C                    -0.105645       0.068534
      7 O                    -0.363283       0.240951
      8 O                    -0.363279       0.240949
      9 Br                   -0.196533       0.003109
     10 Br                   -0.196611       0.003109
     11 C                     0.369808      -0.033634
     12 C                    -0.729526       0.009771
     13 C                    -0.728396       0.009785
     14 C                     0.369777      -0.033620
     15 C                    -0.728483       0.009791
     16 C                    -0.729426       0.009763
     17 H                     0.171147      -0.000567
     18 H                     0.133077       0.000114
     19 H                     0.183075      -0.001068
     20 H                     0.155838       0.000343
     21 H                     0.133362       0.000115
     22 H                     0.155585       0.000343
     23 H                     0.182452      -0.001042
     24 H                     0.171170      -0.000566
     25 H                     0.155612       0.000345
     26 H                     0.133367       0.000114
     27 H                     0.182463      -0.001043
     28 H                     0.155822       0.000341
     29 H                     0.183055      -0.001066
     30 H                     0.133059       0.000115
  --------------------------------------------------------
  Sum of atomic charges =    -1.000000

                    Cartesian Multipole Moments
 -----------------------------------------------------------------
    Charge (ESU x 10^10)
                -4.8032
    Dipole Moment (Debye)
         X       7.9513      Y      -3.4473      Z      -0.8003
       Tot       8.7033
    Quadrupole Moments (Debye-Ang)
        XX    -142.3246     XY       6.4534     YY    -135.9605
        XZ       2.2113     YZ      13.5321     ZZ    -162.5776

 Total job time:  105.80s(wall), 461.40s(cpu)
        *  Thank you very much for using Q-Chem.  Have a nice day.  *
