 Gaussian 16, Revision A.03,
 Gaussian 16:  ES64L-G16RevA.03 25-Dec-2016

 --------------------------------------
 #P UB3LYP/6-311++G(d,p) nosym opt freq
 --------------------------------------

 -------
 Radical
 -------
 Symbolic Z-matrix:
 Charge = -1 Multiplicity = 2

 SCF Done:  E(UB3LYP) =  -5764.68442030     A.U. after   20 cycles
 SCF Done:  E(UB3LYP) =  -5764.68442026     A.U. after   12 cycles
 SCF Done:  E(UB3LYP) =  -5764.68442046     A.U. after   11 cycles
 Optimization completed.
    -- Stationary point found.
 Normal termination of Gaussian 16 at Sat Jan  6 06:06:47 2024.

 ----------------------------------------------------------------------
 #P Geom=AllCheck Guess=TCheck SCRF=Check GenChk UB3LYP/6-311++G(d,p) F
 req
 ----------------------------------------------------------------------

 Structure from the checkpoint file:  "020-rad.chk"
 -------
 Radical
 -------
 Charge = -1 Multiplicity = 2

                          Input orientation:
 ---------------------------------------------------------------------
 Center     Atomic      Atomic             Coordinates (Angstroms)
 Number     Number       Type             X           Y           Z
 ---------------------------------------------------------------------
      1          6           0       -2.028594    0.360850    1.533051
      2          6           0       -2.912956    1.196796    0.710944
      3          6           0       -2.519700    1.505614   -0.566104
      4          6           0       -1.282071    1.075037   -1.199673
      5          6           0       -0.397827    0.238928   -0.377649
      6          6           0       -0.791069   -0.069894    0.899407
      7          8           0       -0.977553    1.391061   -2.374593
      8          8           0       -2.333305    0.044464    2.707825
      9         35           0        0.315487   -1.172268    2.063419
     10         35           0       -3.626378    2.607738   -1.730234
     11          6           0        0.909466   -0.236010   -0.998596
     12          6           0        1.849905    0.934894   -1.345984
     13          6           0        0.678268   -1.155625   -2.213879
     14          6           0       -4.220394    1.671530    1.331775
     15          6           0       -3.989494    2.591525    2.546827
     16          6           0       -5.160535    0.500445    1.679361
     17          1           0        1.414265   -0.834069   -0.239354
     18          1           0        2.051718    1.544698   -0.460032
     19          1           0        1.409182    1.571694   -2.113578
     20          1           0        2.808148    0.548198   -1.712971
     21          1           0        0.058083   -2.013662   -1.937028
     22          1           0        1.638087   -1.539101   -2.580108
     23          1           0        0.183352   -0.614573   -3.020884
     24          1           0       -4.725326    2.269278    0.572374
     25          1           0       -4.949428    2.974903    2.912864
     26          1           0       -3.369483    3.449613    2.269757
     27          1           0       -3.494537    2.050812    3.354031
     28          1           0       -6.118927    0.886957    2.046156
     29          1           0       -4.719720   -0.136042    2.447159
     30          1           0       -5.362080   -0.109604    0.793518
 ---------------------------------------------------------------------

 SCF Done:  E(UB3LYP) =  -5764.68442046     A.U. after    2 cycles

 Alpha  occ. eigenvalues -- -482.70286-482.70286 -62.35566 -62.35566 -56.17583
 Alpha  occ. eigenvalues --  -56.17583 -56.17237 -56.17237 -56.17201 -56.17201
 Alpha  occ. eigenvalues --  -18.95844 -18.95844 -10.11284 -10.11283 -10.10051
 Alpha  occ. eigenvalues --  -10.10049 -10.06796 -10.06795 -10.06652 -10.06652
 Alpha  occ. eigenvalues --  -10.04658 -10.04657 -10.04656 -10.04654  -8.56530
 Alpha  occ. eigenvalues --   -8.56530  -6.39608  -6.39608  -6.38449  -6.38449
 Alpha  occ. eigenvalues --   -6.38350  -6.38350  -2.50713  -2.50713  -2.50399
 Alpha  occ. eigenvalues --   -2.50399  -2.50325  -2.50324  -2.49400  -2.49400
 Alpha  occ. eigenvalues --   -2.49400  -2.49400  -0.88956  -0.88662  -0.73715
 Alpha  occ. eigenvalues --   -0.71284  -0.67615  -0.67146  -0.64555  -0.59705
 Alpha  occ. eigenvalues --   -0.57357  -0.57353  -0.55396  -0.51476  -0.46556
 Alpha  occ. eigenvalues --   -0.44899  -0.42246  -0.39530  -0.34819  -0.33735
 Alpha  occ. eigenvalues --   -0.33237  -0.32061  -0.31887  -0.30156  -0.30109
 Alpha  occ. eigenvalues --   -0.29272  -0.28703  -0.28365  -0.27887  -0.26858
 Alpha  occ. eigenvalues --   -0.25368  -0.24840  -0.24014  -0.23667  -0.23338
 Alpha  occ. eigenvalues --   -0.23195  -0.22440  -0.22401  -0.19967  -0.19195
 Alpha  occ. eigenvalues --   -0.16409  -0.15758  -0.15062  -0.12275  -0.12260
 Alpha  occ. eigenvalues --   -0.11971  -0.04413
 Alpha virt. eigenvalues --    0.08008   0.08278   0.09324   0.09365   0.09380
 Alpha virt. eigenvalues --    0.10444   0.11024   0.11084   0.11921   0.12250
 Alpha virt. eigenvalues --    0.12418   0.13163   0.13932   0.13958   0.14100

  Beta  occ. eigenvalues -- -482.70286-482.70286 -62.35566 -62.35566 -56.17585
  Beta  occ. eigenvalues --  -56.17585 -56.17234 -56.17234 -56.17201 -56.17201
  Beta  occ. eigenvalues --  -18.95136 -18.95135 -10.11171 -10.11170 -10.09944
  Beta  occ. eigenvalues --  -10.09942 -10.06675 -10.06674 -10.06651 -10.06651
  Beta  occ. eigenvalues --  -10.04650 -10.04649 -10.04648 -10.04647  -8.56530
  Beta  occ. eigenvalues --   -8.56530  -6.39612  -6.39612  -6.38444  -6.38444
  Beta  occ. eigenvalues --   -6.38350  -6.38350  -2.50715  -2.50715  -2.50397
  Beta  occ. eigenvalues --   -2.50397  -2.50327  -2.50327  -2.49398  -2.49397
  Beta  occ. eigenvalues --   -2.49397  -2.49397  -0.87766  -0.87431  -0.73233
  Beta  occ. eigenvalues --   -0.71149  -0.67543  -0.67014  -0.64373  -0.59459
  Beta  occ. eigenvalues --   -0.57334  -0.57329  -0.54537  -0.51263  -0.46451
  Beta  occ. eigenvalues --   -0.44536  -0.41942  -0.39385  -0.34670  -0.33614
  Beta  occ. eigenvalues --   -0.33127  -0.31977  -0.31080  -0.30011  -0.29770
  Beta  occ. eigenvalues --   -0.28776  -0.28210  -0.27902  -0.27557  -0.26407
  Beta  occ. eigenvalues --   -0.24560  -0.23930  -0.23767  -0.23193  -0.23191
  Beta  occ. eigenvalues --   -0.23041  -0.22369  -0.22340  -0.19248  -0.18079
  Beta  occ. eigenvalues --   -0.16378  -0.15724  -0.12581  -0.11667  -0.11630
  Beta  occ. eigenvalues --   -0.11350
  Beta virt. eigenvalues --    0.02702   0.08020   0.08279   0.09383   0.09426
  Beta virt. eigenvalues --    0.09748   0.10451   0.11092   0.11950   0.12145
  Beta virt. eigenvalues --    0.12260   0.12424   0.13275   0.13950   0.13965

 Mulliken charges and spin densities:
               1          2
     1  C   -1.282044   0.067324
     2  C    1.516659   0.109536
     3  C   -0.017072   0.070177
     4  C   -1.281967   0.067327
     5  C    1.516503   0.109545
     6  C   -0.017097   0.070195
     7  O   -0.265904   0.261536
     8  O   -0.265905   0.261535
     9  Br  -0.213803   0.002906
    10  Br  -0.213799   0.002906
    11  C    0.170004  -0.028661
    12  C   -0.716786   0.009813
    13  C   -0.716620   0.009813
    14  C    0.169956  -0.028646
    15  C   -0.716607   0.009817
    16  C   -0.716788   0.009804
    17  H    0.161752  -0.000687
    18  H    0.115668   0.000132
    19  H    0.202055  -0.001556
    20  H    0.114241   0.000538
    21  H    0.115594   0.000136
    22  H    0.114217   0.000534
    23  H    0.202115  -0.001560
    24  H    0.161741  -0.000686
    25  H    0.114256   0.000536
    26  H    0.115605   0.000134
    27  H    0.202102  -0.001561
    28  H    0.114216   0.000536
    29  H    0.202047  -0.001554
    30  H    0.115664   0.000133
 Sum of Mulliken charges =  -1.00000   1.00000

 Dipole moment (field-independent basis, Debye):
    X=              7.9513    Y=             -3.4474    Z=             -0.8002  Tot=              8.7034
 Quadrupole moment (field-independent basis, Debye-Ang):
   XX=           -153.2799   YY=           -138.9778   ZZ=           -160.3576
   XY=             10.8548   XZ=              4.0917   YZ=             10.8622

  Exact polarizability: 228.656 -40.185 178.610 -17.882 -30.009 240.259
 Approx polarizability: 304.716 -40.843 268.238 -21.859 -71.761 418.347

                      1                      2                      3
                      A                      A                      A
 Frequencies --     39.8371                47.0012                61.2313
 Red. masses --      5.7860                 3.6276                 3.1073
 Frc consts  --      0.0054                 0.0047                 0.0069
 IR Inten    --      0.0049                 3.1067                 0.0000

                      4                      5                      6
                      A                      A                      A
 Frequencies --     65.2054                90.3207               142.1828
 Red. masses --      4.0630                 5.0550                 6.6369
 Frc consts  --      0.0102                 0.0243                 0.0791
 IR Inten    --      1.1137                 0.0000                 1.5316

                      7                      8                      9
                      A                      A                      A
 Frequencies --    151.2306               170.9155               173.2974
 Red. masses --      5.2455                 4.7033                 3.3389
 Frc consts  --      0.0707                 0.0809                 0.0591
 IR Inten    --      0.0000                 2.1391                 3.7633

                     10                     11                     12
                      A                      A                      A
 Frequencies --    193.9764               197.1369               226.5229
 Red. masses --     32.5341                 1.9891                 1.5803
 Frc consts  --      0.7213                 0.0455                 0.0478
 IR Inten    --      0.0000                 0.0000                 0.0000

                     13                     14                     15
                      A                      A                      A
 Frequencies --    229.6320               234.1074               234.9872
 Red. masses --      1.2031                 1.4400                 1.0624
 Frc consts  --      0.0374                 0.0465                 0.0346
 IR Inten    --      1.1730                 0.0001                 1.2834

                     16                     17                     18
                      A                      A                      A
 Frequencies --    245.3054               304.4854               312.8976
 Red. masses --      1.5745                 7.7359                 2.9349
 Frc consts  --      0.0558                 0.4226                 0.1693
 IR Inten    --      0.0000                 0.0000                 2.6096

                     19                     20                     21
                      A                      A                      A
 Frequencies --    314.3851               325.9990               342.6889
 Red. masses --      4.4122                12.3118                10.2705
 Frc consts  --      0.2569                 0.7709                 0.7106
 IR Inten    --      0.3412                 0.6429                 0.0000

                     22                     23                     24
                      A                      A                      A
 Frequencies --    425.4718               455.8951               464.8318
 Red. masses --      2.8341                 5.4213                 2.7664
 Frc consts  --      0.3023                 0.6639                 0.3522
 IR Inten    --      0.0000                34.7679                 3.2996

                     25                     26                     27
                      A                      A                      A
 Frequencies --    473.8388               498.9773               516.1483
 Red. masses --      4.3819                 5.9001                 5.1985
 Frc consts  --      0.5797                 0.8655                 0.8160
 IR Inten    --      0.0000                 0.0000                 0.0000

                     28                     29                     30
                      A                      A                      A
 Frequencies --    604.0766               706.4627               732.6833
 Red. masses --      8.6849                 3.8656                 9.2058
 Frc consts  --      1.8672                 1.1367                 2.9117
 IR Inten    --      0.3696               113.2660                 9.6187

                     31                     32                     33
                      A                      A                      A
 Frequencies --    740.5869               767.2000               788.8483
 Red. masses --      6.0883                10.0648                 7.0310
 Frc consts  --      1.9674                 3.4904                 2.5778
 IR Inten    --      0.0000                 0.0000                 0.0000

                     34                     35                     36
                      A                      A                      A
 Frequencies --    856.1166               871.9717               931.3652
 Red. masses --      4.3209                 2.8957                 1.1557
 Frc consts  --      1.8659                 1.2972                 0.5906
 IR Inten    --     54.4113                 0.0000                 0.0050

                     37                     38                     39
                      A                      A                      A
 Frequencies --    931.3900               944.8309               961.2044
 Red. masses --      1.1555                 3.4390                 1.5558
 Frc consts  --      0.5906                 1.8088                 0.8469
 IR Inten    --      2.5279                27.7240                 0.1652

                     40                     41                     42
                      A                      A                      A
 Frequencies --    961.2231              1014.8800              1044.4920
 Red. masses --      1.5544                 2.5143                 1.9127
 Frc consts  --      0.8462                 1.5258                 1.2294
 IR Inten    --      0.0013                 0.0000               143.1245

                     43                     44                     45
                      A                      A                      A
 Frequencies --   1118.0552              1119.8505              1123.6312
 Red. masses --      2.4416                 2.4490                 7.9494
 Frc consts  --      1.7983                 1.8095                 5.9133
 IR Inten    --      0.0000                 4.8943                51.8054

                     46                     47                     48
                      A                      A                      A
 Frequencies --   1139.4129              1193.8231              1200.7511
 Red. masses --      2.0857                 2.1160                 2.0617
 Frc consts  --      1.5954                 1.7769                 1.7514
 IR Inten    --      0.0000                 6.4698                 0.0000

                     49                     50                     51
                      A                      A                      A
 Frequencies --   1238.9346              1339.5805              1358.2000
 Red. masses --      4.0730                 4.4988                 1.2631
 Frc consts  --      3.6835                 4.7565                 1.3728
 IR Inten    --     54.2441                 0.0000                 4.4354

                     52                     53                     54
                      A                      A                      A
 Frequencies --   1358.2555              1370.4896              1377.6682
 Red. masses --      1.2624                 1.3573                 1.2260
 Frc consts  --      1.3721                 1.5020                 1.3709
 IR Inten    --      0.1033                 4.0162                 0.0481

                     55                     56                     57
                      A                      A                      A
 Frequencies --   1377.7563              1382.0488              1395.5436
 Red. masses --      1.2264                 1.4840                 1.2347
 Frc consts  --      1.3717                 1.6701                 1.4167
 IR Inten    --     21.1773                 0.0000                55.1381

                     58                     59                     60
                      A                      A                      A
 Frequencies --   1398.3757              1479.7358              1479.8851
 Red. masses --      1.2833                 1.0399                 1.0473
 Frc consts  --      1.4785                 1.3415                 1.3514
 IR Inten    --      0.0002                 0.0007                 0.9433

                     61                     62                     63
                      A                      A                      A
 Frequencies --   1480.3563              1490.9596              1491.0363
 Red. masses --      4.0347                 1.2909                 1.1111
 Frc consts  --      5.2095                 1.6908                 1.4553
 IR Inten    --     29.9467                90.3839                 0.0039

                     64                     65                     66
                      A                      A                      A
 Frequencies --   1504.9172              1504.9327              1517.3644
 Red. masses --      1.0505                 1.0505                 1.3329
 Frc consts  --      1.4018                 1.4018                 1.8081
 IR Inten    --      1.7677                 0.3169                97.6639

                     67                     68                     69
                      A                      A                      A
 Frequencies --   1520.3043              1529.1455              1533.7566
 Red. masses --      1.0642                 7.2714                 2.7043
 Frc consts  --      1.4493                10.0177                 3.7481
 IR Inten    --      0.0005                 0.0001               186.6171

                     70                     71                     72
                      A                      A                      A
 Frequencies --   1594.4658              3003.2082              3003.2410
 Red. masses --      8.7471                 1.0417                 1.0418
 Frc consts  --     13.1022                 5.5357                 5.5361
 IR Inten    --      0.0000                 0.2427                84.5467

                     73                     74                     75
                      A                      A                      A
 Frequencies --   3008.2411              3009.0854              3061.5729
 Red. masses --      1.0418                 1.0416                 1.0964
 Frc consts  --      5.5547                 5.5570                 6.0548
 IR Inten    --    264.7558                 0.0012                 0.0353

                     76                     77                     78
                      A                      A                      A
 Frequencies --   3061.7850              3063.8121              3063.9559
 Red. masses --      1.0963                 1.0956                 1.0956
 Frc consts  --      6.0553                 6.0592                 6.0597
 IR Inten    --     67.2009               108.3829                 0.0613

                     79                     80                     81
                      A                      A                      A
 Frequencies --   3072.9582              3073.1214              3114.5614
 Red. masses --      1.0844                 1.0844                 1.0986
 Frc consts  --      6.0331                 6.0342                 6.2791
 IR Inten    --     33.1639                 0.0287                 0.2271

                     82                     83                     84
                      A                      A                      A
 Frequencies --   3114.5850              3120.5064              3120.5717
 Red. masses --      1.0986                 1.0971                 1.0971
 Frc consts  --      6.2792                 6.2942                 6.2943
 IR Inten    --      0.0939                 0.6626                36.5340

 - Thermochemistry -
 -------------------
 Temperature   298.150 Kelvin.  Pressure   1.00000 Atm.
 Atom     1 has atomic number  6 and mass  12.00000

 Molecular mass:   347.93605 amu.
 Principal axes and moments of inertia in atomic units:
                           1         2         3
     Eigenvalues --  4328.945727788.62814**********
           X            0.73163  -0.50354   0.45952
           Y           -0.56674  -0.07468   0.82050
           Z            0.37884   0.86074   0.34002
 This molecule is an asymmetric top.
 Rotational symmetry number  1.
 Warning -- assumption of classical behavior for rotation
           may cause significant error
 Rotational temperatures (Kelvin)      0.02001     0.01112     0.00765
 Rotational constants (GHZ):           0.41690     0.23171     0.15932
 Zero-point vibrational energy     605946.1 (Joules/Mol)
                                  144.82460 (Kcal/Mol)
 Warning -- explicit consideration of  28 degrees of freedom as
           vibrations may cause significant error
 Vibrational temperatures:     57.32    67.62    88.10    93.82   129.95
          (Kelvin)            204.57   217.59   245.91   249.34   279.09
                              283.64   325.92   330.39   336.83   338.09
                              352.94   438.09   450.19   452.33   469.04
                              493.05   612.16   655.93   668.79   681.75
                              717.92   742.62   869.13  1016.44  1054.17
                             1065.54  1103.83  1134.98  1231.76  1254.57
                             1340.03  1340.06  1359.40  1382.96  1382.99
                             1460.19  1502.79  1608.63  1611.22  1616.65
                             1639.36  1717.65  1727.61  1782.55  1927.36
                             1954.15  1954.23  1971.83  1982.16  1982.28
                             1988.46  2007.88  2011.95  2129.01  2129.22
                             2129.90  2145.16  2145.27  2165.24  2165.26
                             2183.15  2187.38  2200.10  2206.73  2294.08
                             4320.95  4320.99  4328.19  4329.40  4404.92
                             4405.23  4408.14  4408.35  4421.30  4421.54
                             4481.16  4481.19  4489.71  4489.81

 Zero-point correction=                           0.230793 (Hartree/Particle)
 Thermal correction to Energy=                    0.248661
 Thermal correction to Enthalpy=                  0.249606
 Thermal correction to Gibbs Free Energy=         0.183110
 Sum of electronic and zero-point Energies=          -5764.453628
 Sum of electronic and thermal Energies=             -5764.435759
 Sum of electronic and thermal Enthalpies=           -5764.434815
 Sum of electronic and thermal Free Energies=        -5764.501311

                     E (Thermal)             CV                S
                      KCal/Mol        Cal/Mol-Kelvin    Cal/Mol-Kelvin
 Total                  156.037             64.344            139.953
 Electronic               0.000              0.000              1.377
 Translational            0.889              2.981             43.435
 Rotational               0.889              2.981             34.301
 Vibrational            154.260             58.383             60.840
 Vibration     1          0.594              1.981              5.267
 Vibration     2          0.595              1.979              4.940
 Vibration     3          0.597              1.973              4.417
 Vibration     4          0.597              1.971              4.293
 Vibration     5          0.602              1.956              3.653
 Vibration     6          0.616              1.911              2.774
 Vibration     7          0.619              1.901              2.657
 Vibration     8          0.626              1.878              2.425
 Vibration     9          0.627              1.875              2.399
 Vibration    10          0.635              1.848              2.189
 Vibration    11          0.637              1.844              2.160
 Vibration    12          0.650              1.801              1.906
 Vibration    13          0.652              1.796              1.882
 Vibration    14          0.654              1.789              1.847
 Vibration    15          0.655              1.787              1.841
 Vibration    16          0.660              1.771              1.764
 Vibration    17          0.695              1.665              1.392
 Vibration    18          0.701              1.649              1.347
 Vibration    19          0.702              1.646              1.339
 Vibration    20          0.710              1.624              1.280
 Vibration    21          0.722              1.590              1.200
 Vibration    22          0.787              1.415              0.874
 Vibration    23          0.814              1.348              0.778
 Vibration    24          0.822              1.328              0.752
 Vibration    25          0.831              1.308              0.727
 Vibration    26          0.854              1.252              0.661
 Vibration    27          0.871              1.214              0.619
 Vibration    28          0.963              1.023              0.443

 Optimization completed.
    -- Stationary point found.
 Normal termination of Gaussian 16 at Sat Jan  6 07:30:04 2024.
