 Q-Chem 5.4, Q-Chem, Inc., Pleasanton, CA (2021)
 Q-Chem 5.4.0 for Intel X86 EM64T Linux

User input:
--------------------------------------------------------------
$molecule
0 1
C                 -1.4191230000      1.9948810000     -4.7408910000
C                 -1.4900660000      0.6359580000     -5.0122710000
C                 -1.3955770000     -0.2937730000     -3.9698970000
C                 -1.2527220000      2.4423750000     -3.4235460000
C                 -1.1580580000      1.5116630000     -2.3800950000
C                 -1.2306610000      0.1411900000     -2.6626170000
C                 -1.1793630000      3.8990950000     -3.1542010000
C                 -0.9814300000      1.9562990000     -0.9761290000
C                 -1.0054040000      4.3482520000     -1.7715680000
C                 -0.9079930000      3.3921830000     -0.6997430000
C                 -0.9332020000      5.7431850000     -1.4960810000
C                 -0.7637870000      6.1449490000     -0.1417270000
C                 -0.6712990000      5.2373790000      0.8757160000
C                 -0.7387160000      3.8354320000      0.6425850000
O                 -1.2680720000      4.6891480000     -4.1109240000
O                 -0.9019750000      1.0952630000     -0.0818780000
H                 -1.4896650000      2.7328500000     -5.5297430000
H                 -1.6188870000      0.2940880000     -6.0332080000
H                 -1.4512620000     -1.3553020000     -4.1839940000
H                 -1.1550500000     -0.5582840000     -1.8398920000
H                 -0.5429630000      5.5997550000      1.8872190000
H                 -0.7059900000      7.1995090000      0.0938300000
N                 -1.0199920000      6.6847920000     -2.4730070000
N                 -0.6414280000      2.9723140000      1.6885780000
C                 -0.9530530000      8.1131480000     -2.2548430000
C                 -0.4683510000      3.3621970000      3.0707170000
H                 -1.1396000000      6.3101750000     -3.4105140000
H                 -0.6993000000      1.9903000000      1.4319210000
H                  0.0025240000      8.4220500000     -1.8138030000
H                 -1.7623950000      8.4732990000     -1.6080710000
H                 -1.0512610000      8.6086250000     -3.2204820000
H                 -1.3031090000      3.9712540000      3.4385310000
H                  0.4617190000      3.9208500000      3.2317780000
H                 -0.4233910000      2.4566790000      3.6753820000
$end
$rem
MAX_SCF_CYCLES=200
BASIS  =  6-311++G(d,p)
GUI  =  2
JOB_TYPE  =  SP
METHOD  =  B3LYP
SOLVENT_METHOD = PCM
$end
$pcm
theory = CPCM
$end
$solvent
dielectric 37.219
opticaldielectric 1.43
$end

--------------------------------------------------------------

             Standard Nuclear Orientation (Angstroms)
    I     Atom           X                Y                Z
 ----------------------------------------------------------------
    1      C      -1.4191230000     1.9948810000    -4.7408910000
    2      C      -1.4900660000     0.6359580000    -5.0122710000
    3      C      -1.3955770000    -0.2937730000    -3.9698970000
    4      C      -1.2527220000     2.4423750000    -3.4235460000
    5      C      -1.1580580000     1.5116630000    -2.3800950000
    6      C      -1.2306610000     0.1411900000    -2.6626170000
    7      C      -1.1793630000     3.8990950000    -3.1542010000
    8      C      -0.9814300000     1.9562990000    -0.9761290000
    9      C      -1.0054040000     4.3482520000    -1.7715680000
   10      C      -0.9079930000     3.3921830000    -0.6997430000
   11      C      -0.9332020000     5.7431850000    -1.4960810000
   12      C      -0.7637870000     6.1449490000    -0.1417270000
   13      C      -0.6712990000     5.2373790000     0.8757160000
   14      C      -0.7387160000     3.8354320000     0.6425850000
   15      O      -1.2680720000     4.6891480000    -4.1109240000
   16      O      -0.9019750000     1.0952630000    -0.0818780000
   17      H      -1.4896650000     2.7328500000    -5.5297430000
   18      H      -1.6188870000     0.2940880000    -6.0332080000
   19      H      -1.4512620000    -1.3553020000    -4.1839940000
   20      H      -1.1550500000    -0.5582840000    -1.8398920000
   21      H      -0.5429630000     5.5997550000     1.8872190000
   22      H      -0.7059900000     7.1995090000     0.0938300000
   23      N      -1.0199920000     6.6847920000    -2.4730070000
   24      N      -0.6414280000     2.9723140000     1.6885780000
   25      C      -0.9530530000     8.1131480000    -2.2548430000
   26      C      -0.4683510000     3.3621970000     3.0707170000
   27      H      -1.1396000000     6.3101750000    -3.4105140000
   28      H      -0.6993000000     1.9903000000     1.4319210000
   29      H       0.0025240000     8.4220500000    -1.8138030000
   30      H      -1.7623950000     8.4732990000    -1.6080710000
   31      H      -1.0512610000     8.6086250000    -3.2204820000
   32      H      -1.3031090000     3.9712540000     3.4385310000
   33      H       0.4617190000     3.9208500000     3.2317780000
   34      H      -0.4233910000     2.4566790000     3.6753820000
 ----------------------------------------------------------------

    9    -878.3649556703      2.76e-06  Convergence criterion met
 Total energy in the final basis set =     -878.3649556703

                    Orbital Energies (a.u.)
 --------------------------------------------------------------

 Alpha MOs
 -- Occupied --
-19.1111 -19.1111 -14.3355 -14.3355 -10.2631 -10.2631 -10.2369 -10.2369
-10.1999 -10.1999 -10.1955 -10.1950 -10.1937 -10.1933 -10.1930 -10.1929
-10.1885 -10.1880 -10.1865 -10.1865  -1.0458  -1.0436  -0.9537  -0.9471
 -0.8798  -0.8542  -0.8031  -0.7685  -0.7642  -0.7631  -0.7096  -0.6868
 -0.6785  -0.6495  -0.6373  -0.6044  -0.5887  -0.5530  -0.5468  -0.5266
 -0.5200  -0.4968  -0.4822  -0.4768  -0.4723  -0.4585  -0.4515  -0.4471
 -0.4438  -0.4407  -0.4360  -0.4345  -0.4244  -0.4040  -0.4020  -0.3999
 -0.3944  -0.3882  -0.3767  -0.3683  -0.3618  -0.3577  -0.3354  -0.2836
 -0.2738  -0.2732  -0.2696  -0.2620  -0.2610  -0.1921

          Ground-State Mulliken Net Atomic Charges

     Atom                 Charge (a.u.)
  ----------------------------------------
      1 C                     0.064724
      2 C                    -0.503461
      3 C                    -0.507298
      4 C                     0.200908
      5 C                     0.202776
      6 C                     0.067077
      7 C                    -0.190657
      8 C                    -0.191223
      9 C                     0.252957
     10 C                     0.259481
     11 C                    -0.251007
     12 C                    -0.105001
     13 C                    -0.109613
     14 C                    -0.252630
     15 O                    -0.367680
     16 O                    -0.367261
     17 H                     0.193679
     18 H                     0.213138
     19 H                     0.213070
     20 H                     0.193821
     21 H                     0.237365
     22 H                     0.237276
     23 N                    -0.291370
     24 N                    -0.289747
     25 C                    -0.403396
     26 C                    -0.403815
     27 H                     0.417535
     28 H                     0.417069
     29 H                     0.177071
     30 H                     0.177195
     31 H                     0.177385
     32 H                     0.177192
     33 H                     0.177044
     34 H                     0.177397
  ----------------------------------------
  Sum of atomic charges =     0.000000

                    Cartesian Multipole Moments
 -----------------------------------------------------------------
    Charge (ESU x 10^10)
                 0.0000
    Dipole Moment (Debye)
         X       0.5649      Y       4.2784      Z       3.7650
       Tot       5.7270
    Quadrupole Moments (Debye-Ang)
        XX    -122.4195     XY       0.1881     YY     -63.8270
        XZ      -1.4382     YZ      21.0903     ZZ    -109.4231

 Total job time:  135.90s(wall), 515.18s(cpu)
        *  Thank you very much for using Q-Chem.  Have a nice day.  *
