 Q-Chem 5.4, Q-Chem, Inc., Pleasanton, CA (2021)
 Q-Chem 5.4.0 for Intel X86 EM64T Linux

User input:
--------------------------------------------------------------
$molecule
-1 2
C                  6.6523390000      0.5036190000      0.8131260000
C                  5.1776190000      0.4178430000      0.4985610000
C                  4.5223110000      1.4303710000     -0.2169030000
C                  3.1793770000      1.3380560000     -0.5472480000
C                  2.4003170000      0.2195840000     -0.1691760000
N                  1.0603050000      0.2328950000     -0.5068990000
C                  0.1058470000     -0.7840310000     -0.4266320000
C                  0.4505330000     -2.1219180000     -0.5659130000
C                 -0.5210200000     -3.1240500000     -0.4876040000
C                 -1.8550040000     -2.8201000000     -0.2709750000
O                 -2.7638940000     -3.8465380000     -0.1748360000
C                 -2.2800650000     -1.4677520000     -0.1645960000
C                 -3.7007480000     -1.1476240000      0.0489020000
O                 -4.5921130000     -2.0118140000      0.1659140000
C                 -4.0507960000      0.2796590000      0.1246980000
C                 -5.3962880000      0.6416690000      0.3395540000
C                 -5.7750710000      1.9683810000      0.4086900000
C                 -4.8051930000      2.9826150000      0.2599150000
C                 -3.4834320000      2.6483420000      0.0464100000
C                 -3.0779180000      1.2950390000     -0.0218910000
C                 -1.6744760000      0.9797440000     -0.2455380000
O                 -0.8482940000      1.9382120000     -0.4235190000
C                 -1.2829930000     -0.4237710000     -0.2695240000
C                  3.0527360000     -0.7890470000      0.5676780000
C                  4.4054610000     -0.6795180000      0.8847880000
H                  6.9218370000     -0.1702880000      1.6313920000
H                  7.2722770000      0.2303660000     -0.0503560000
H                  6.9423440000      1.5171640000      1.1087300000
H                  5.0781830000      2.3117360000     -0.5267330000
H                  2.7001460000      2.1376790000     -1.1023740000
H                  0.5947340000      1.1544880000     -0.5810490000
H                  1.4759980000     -2.3965650000     -0.7704940000
H                 -0.2246630000     -4.1650510000     -0.5997100000
H                 -2.2700930000     -4.6669430000     -0.2806540000
H                 -6.1161120000     -0.1612750000      0.4459880000
H                 -6.8152580000      2.2314760000      0.5757660000
H                 -5.0999790000      4.0265510000      0.3133870000
H                 -2.7192890000      3.4065510000     -0.0732100000
H                  2.4935860000     -1.6404750000      0.9290800000
H                  4.8667510000     -1.4752810000      1.4645250000
$end

$rem
BASIS  =  6-311++G(d,p)
GUI  =  2
JOB_TYPE  =  SP
METHOD  =  B3LYP
SCF_CONVERGENCE  = 8
SOLVENT_METHOD = sm12
$end

$smx
solvent dimethylformamide
charges CM5
$end

--------------------------------------------------------------

             Standard Nuclear Orientation (Angstroms)
    I     Atom           X                Y                Z
 ----------------------------------------------------------------
    1      C       6.6523390000     0.5036190000     0.8131260000
    2      C       5.1776190000     0.4178430000     0.4985610000
    3      C       4.5223110000     1.4303710000    -0.2169030000
    4      C       3.1793770000     1.3380560000    -0.5472480000
    5      C       2.4003170000     0.2195840000    -0.1691760000
    6      N       1.0603050000     0.2328950000    -0.5068990000
    7      C       0.1058470000    -0.7840310000    -0.4266320000
    8      C       0.4505330000    -2.1219180000    -0.5659130000
    9      C      -0.5210200000    -3.1240500000    -0.4876040000
   10      C      -1.8550040000    -2.8201000000    -0.2709750000
   11      O      -2.7638940000    -3.8465380000    -0.1748360000
   12      C      -2.2800650000    -1.4677520000    -0.1645960000
   13      C      -3.7007480000    -1.1476240000     0.0489020000
   14      O      -4.5921130000    -2.0118140000     0.1659140000
   15      C      -4.0507960000     0.2796590000     0.1246980000
   16      C      -5.3962880000     0.6416690000     0.3395540000
   17      C      -5.7750710000     1.9683810000     0.4086900000
   18      C      -4.8051930000     2.9826150000     0.2599150000
   19      C      -3.4834320000     2.6483420000     0.0464100000
   20      C      -3.0779180000     1.2950390000    -0.0218910000
   21      C      -1.6744760000     0.9797440000    -0.2455380000
   22      O      -0.8482940000     1.9382120000    -0.4235190000
   23      C      -1.2829930000    -0.4237710000    -0.2695240000
   24      C       3.0527360000    -0.7890470000     0.5676780000
   25      C       4.4054610000    -0.6795180000     0.8847880000
   26      H       6.9218370000    -0.1702880000     1.6313920000
   27      H       7.2722770000     0.2303660000    -0.0503560000
   28      H       6.9423440000     1.5171640000     1.1087300000
   29      H       5.0781830000     2.3117360000    -0.5267330000
   30      H       2.7001460000     2.1376790000    -1.1023740000
   31      H       0.5947340000     1.1544880000    -0.5810490000
   32      H       1.4759980000    -2.3965650000    -0.7704940000
   33      H      -0.2246630000    -4.1650510000    -0.5997100000
   34      H      -2.2700930000    -4.6669430000    -0.2806540000
   35      H      -6.1161120000    -0.1612750000     0.4459880000
   36      H      -6.8152580000     2.2314760000     0.5757660000
   37      H      -5.0999790000     4.0265510000     0.3133870000
   38      H      -2.7192890000     3.4065510000    -0.0732100000
   39      H       2.4935860000    -1.6404750000     0.9290800000
   40      H       4.8667510000    -1.4752810000     1.4645250000
 ----------------------------------------------------------------

   18   -1090.0580197799      7.68e-09  Convergence criterion met
 Total energy in the final basis set =    -1090.1541935817

                    Orbital Energies (a.u.)
 --------------------------------------------------------------

 Alpha MOs
 -- Occupied --
-19.1493 -19.0810 -19.0724 -14.3239 -10.2375 -10.2297 -10.2297 -10.2222
-10.2214 -10.1866 -10.1837 -10.1816 -10.1808 -10.1800 -10.1787 -10.1782
-10.1782 -10.1777 -10.1773 -10.1771 -10.1768 -10.1765 -10.1754 -10.1750
-10.1683  -1.0613  -1.0079  -1.0032  -0.9468  -0.8663  -0.8612  -0.8442
 -0.7923  -0.7760  -0.7569  -0.7541  -0.7484  -0.7355  -0.6852  -0.6732
 -0.6472  -0.6360  -0.6190  -0.6040  -0.5867  -0.5722  -0.5595  -0.5494
 -0.5217  -0.5144  -0.4844  -0.4810  -0.4746  -0.4670  -0.4654  -0.4507
 -0.4404  -0.4373  -0.4328  -0.4297  -0.4255  -0.4209  -0.4153  -0.4086
 -0.4024  -0.3997  -0.3927  -0.3870  -0.3832  -0.3754  -0.3685  -0.3614
 -0.3570  -0.3545  -0.3454  -0.3436  -0.3431  -0.3060  -0.2722  -0.2626
 -0.2621  -0.2577  -0.2531  -0.2420  -0.2321  -0.1943  -0.1411

 Beta MOs
 -- Occupied --
-19.1491 -19.0755 -19.0670 -14.3236 -10.2376 -10.2289 -10.2275 -10.2223
-10.2210 -10.1865 -10.1828 -10.1814 -10.1802 -10.1799 -10.1783 -10.1782
-10.1778 -10.1775 -10.1769 -10.1769 -10.1759 -10.1757 -10.1754 -10.1749
-10.1683  -1.0609  -0.9987  -0.9941  -0.9455  -0.8644  -0.8604  -0.8430
 -0.7884  -0.7753  -0.7551  -0.7537  -0.7467  -0.7340  -0.6842  -0.6671
 -0.6457  -0.6338  -0.6184  -0.6037  -0.5859  -0.5702  -0.5579  -0.5487
 -0.5209  -0.5133  -0.4820  -0.4794  -0.4743  -0.4659  -0.4645  -0.4497
 -0.4397  -0.4347  -0.4295  -0.4276  -0.4246  -0.4205  -0.4142  -0.4035
 -0.3975  -0.3947  -0.3913  -0.3851  -0.3816  -0.3679  -0.3630  -0.3607
 -0.3538  -0.3481  -0.3430  -0.3423  -0.3357  -0.3020  -0.2624  -0.2565
 -0.2525  -0.2514  -0.2487  -0.2370  -0.2271  -0.1876

          Ground-State Mulliken Net Atomic Charges

     Atom                 Charge (a.u.)    Spin (a.u.)
  --------------------------------------------------------
      1 C                     0.717918      -0.000596
      2 C                     1.251067       0.007308
      3 C                     0.380369      -0.003941
      4 C                    -0.659565       0.006763
      5 C                    -2.108369      -0.011424
      6 N                    -0.100405       0.018140
      7 C                    -0.954718       0.042480
      8 C                     0.717560       0.050509
      9 C                     1.909916       0.098164
     10 C                     0.163537       0.007978
     11 O                    -0.145860       0.003511
     12 C                    -0.687559       0.058892
     13 C                    -2.207211       0.019177
     14 O                    -0.280804       0.204815
     15 C                    -1.001072       0.053706
     16 C                     0.013917       0.004214
     17 C                     0.845024       0.053729
     18 C                     0.913339       0.013755
     19 C                    -0.141561       0.046147
     20 C                    -1.070406      -0.012641
     21 C                    -1.546125       0.110100
     22 O                    -0.245525       0.208422
     23 C                    -0.140050       0.025110
     24 C                    -0.785651       0.012460
     25 C                     0.188386       0.000338
     26 H                     0.241877       0.000081
     27 H                     0.212357       0.000514
     28 H                     0.225348       0.000134
     29 H                     0.278330       0.000201
     30 H                     0.229130      -0.000965
     31 H                     0.331742       0.001486
     32 H                     0.288626      -0.004810
     33 H                     0.378218      -0.007552
     34 H                     0.362618      -0.000589
     35 H                     0.153007      -0.000098
     36 H                     0.339749      -0.004019
     37 H                     0.362944      -0.001322
     38 H                     0.163206      -0.002571
     39 H                     0.180775       0.002257
     40 H                     0.225924       0.000142
  --------------------------------------------------------
  Sum of atomic charges =    -1.000000

                    Cartesian Multipole Moments
 -----------------------------------------------------------------
    Charge (ESU x 10^10)
                -4.8032
    Dipole Moment (Debye)
         X      11.9564      Y      -0.2872      Z       0.4144
       Tot      11.9670
    Quadrupole Moments (Debye-Ang)
        XX    -203.9610     XY     -15.7442     YY    -152.6887
        XZ       2.0105     YZ       0.7969     ZZ    -155.5038

 Total job time:  2063.51s(wall), 15619.72s(cpu)
        *  Thank you very much for using Q-Chem.  Have a nice day.  *
