 Gaussian 16, Revision A.03,
 Gaussian 16:  ES64L-G16RevA.03 25-Dec-2016

 --------------------------------------
 #P UB3LYP/6-311++G(d,p) nosym opt freq
 --------------------------------------

 -------
 Radical
 -------
 Symbolic Z-matrix:
 Charge = -2 Multiplicity = 2

 SCF Done:  E(UB3LYP) =  -1316.86696824     A.U. after   55 cycles
 SCF Done:  E(UB3LYP) =  -1316.87629678     A.U. after   23 cycles
 SCF Done:  E(UB3LYP) =  -1316.87994188     A.U. after   18 cycles
 SCF Done:  E(UB3LYP) =  -1316.88009726     A.U. after   18 cycles
 SCF Done:  E(UB3LYP) =  -1316.88010751     A.U. after   17 cycles
 SCF Done:  E(UB3LYP) =  -1316.88010854     A.U. after   17 cycles
 SCF Done:  E(UB3LYP) =  -1316.88010881     A.U. after   16 cycles
 SCF Done:  E(UB3LYP) =  -1316.88010894     A.U. after   16 cycles
 SCF Done:  E(UB3LYP) =  -1316.88010905     A.U. after   16 cycles
 SCF Done:  E(UB3LYP) =  -1316.88010920     A.U. after   14 cycles
 SCF Done:  E(UB3LYP) =  -1316.88010930     A.U. after   16 cycles
 SCF Done:  E(UB3LYP) =  -1316.88010936     A.U. after   14 cycles
 SCF Done:  E(UB3LYP) =  -1316.88010941     A.U. after   14 cycles
 SCF Done:  E(UB3LYP) =  -1316.88010943     A.U. after   15 cycles
 Optimization completed.
    -- Stationary point found.
 Normal termination of Gaussian 16 at Sat Jan  6 04:29:14 2024.

 ----------------------------------------------------------------------
 #P Geom=AllCheck Guess=TCheck SCRF=Check GenChk UB3LYP/6-311++G(d,p) F
 req
 ----------------------------------------------------------------------

 Structure from the checkpoint file:  "342-rad.chk"
 -------
 Radical
 -------
 Charge = -2 Multiplicity = 2

                          Input orientation:
 ---------------------------------------------------------------------
 Center     Atomic      Atomic             Coordinates (Angstroms)
 Number     Number       Type             X           Y           Z
 ---------------------------------------------------------------------
      1          6           0       -3.491056    2.430895    1.134026
      2          6           0       -4.213811    2.299859    2.304116
      3          6           0       -3.832770    1.356379    3.273321
      4          6           0       -2.341915    1.624222    0.863427
      5          6           0       -1.954877    0.665751    1.847221
      6          6           0       -2.703004    0.556383    3.017342
      7          6           0       -1.633501    1.817453   -0.383645
      8          6           0       -0.451487    0.972485   -0.629398
      9          6           0       -0.014061    0.001543    0.302464
     10          6           0       -0.734135   -0.246238    1.639728
     11          6           0        0.269762    1.135513   -1.838833
     12          6           0        1.387986    0.366427   -2.123323
     13          6           0        1.819338   -0.594707   -1.205212
     14          6           0        1.115704   -0.761951   -0.013602
     15          8           0       -2.013302    2.681263   -1.231894
     16         16           0        2.370158    0.618930   -3.650781
     17          8           0        1.395012    1.014005   -4.702072
     18          8           0        3.349724    1.691405   -3.310691
     19          8           0        3.020036   -0.703214   -3.900364
     20          6           0        0.273792   -0.003165    2.798478
     21          6           0       -1.206095   -1.727369    1.683277
     22          1           0       -3.766342    3.151667    0.373091
     23          1           0       -5.083424    2.932192    2.475117
     24          1           0       -4.390869    1.242060    4.197889
     25          1           0       -2.412076   -0.172285    3.769574
     26          1           0       -0.087228    1.875550   -2.543168
     27          1           0        2.681437   -1.206027   -1.441832
     28          1           0        1.465995   -1.518454    0.683705
     29          1           0        0.615289    1.034788    2.783724
     30          1           0        1.151387   -0.649104    2.700996
     31          1           0       -0.189317   -0.195589    3.771518
     32          1           0       -0.363879   -2.414724    1.560050
     33          1           0       -1.916999   -1.915798    0.874953
     34          1           0       -1.701513   -1.955705    2.632366
 ---------------------------------------------------------------------

 SCF Done:  E(UB3LYP) =  -1316.88010943     A.U. after    1 cycles

 Alpha  occ. eigenvalues --  -88.79023 -18.83411 -18.83337 -18.83279 -18.83255
 Alpha  occ. eigenvalues --  -10.00212  -9.98242  -9.97840  -9.97820  -9.97243
 Alpha  occ. eigenvalues --   -9.96968  -9.96800  -9.96634  -9.96522  -9.95918
 Alpha  occ. eigenvalues --   -9.95788  -9.95315  -9.95265  -9.95152  -9.95014
 Alpha  occ. eigenvalues --   -9.94114  -7.84876  -5.81140  -5.81129  -5.81077
 Alpha  occ. eigenvalues --   -0.84947  -0.75533  -0.71408  -0.71150  -0.66237
 Alpha  occ. eigenvalues --   -0.63603  -0.60673  -0.55224  -0.53710  -0.52458
 Alpha  occ. eigenvalues --   -0.51844  -0.50484  -0.43695  -0.42900  -0.40424
 Alpha  occ. eigenvalues --   -0.37967  -0.35493  -0.34939  -0.31956  -0.29742
 Alpha  occ. eigenvalues --   -0.27409  -0.25575  -0.24870  -0.24067  -0.23938
 Alpha  occ. eigenvalues --   -0.23866  -0.22805  -0.21495  -0.20905  -0.19931
 Alpha  occ. eigenvalues --   -0.19655  -0.19393  -0.18734  -0.17947  -0.17634
 Alpha  occ. eigenvalues --   -0.17409  -0.15735  -0.15547  -0.14965  -0.13451
 Alpha  occ. eigenvalues --   -0.12312  -0.12013  -0.10500  -0.07553  -0.07436
 Alpha  occ. eigenvalues --   -0.05569  -0.04879  -0.04131  -0.03892  -0.03677
 Alpha  occ. eigenvalues --   -0.02988  -0.01421  -0.00252   0.00387   0.10223
 Alpha virt. eigenvalues --    0.13416   0.14424   0.15812   0.16224   0.17174
 Alpha virt. eigenvalues --    0.18530   0.18540   0.19024   0.19191   0.19927
 Alpha virt. eigenvalues --    0.20174   0.20651   0.21025   0.21683   0.22749

  Beta  occ. eigenvalues --  -88.79023 -18.83412 -18.83338 -18.83260 -18.82659
  Beta  occ. eigenvalues --  -10.00229  -9.97948  -9.97815  -9.97795  -9.97119
  Beta  occ. eigenvalues --   -9.97049  -9.96827  -9.96529  -9.96227  -9.95981
  Beta  occ. eigenvalues --   -9.95838  -9.95206  -9.95205  -9.95111  -9.94858
  Beta  occ. eigenvalues --   -9.93982  -7.84875  -5.81140  -5.81128  -5.81075
  Beta  occ. eigenvalues --   -0.84950  -0.74414  -0.71409  -0.71156  -0.66018
  Beta  occ. eigenvalues --   -0.63404  -0.60527  -0.54756  -0.53512  -0.52203
  Beta  occ. eigenvalues --   -0.51718  -0.50440  -0.43296  -0.42498  -0.40250
  Beta  occ. eigenvalues --   -0.37775  -0.35383  -0.34740  -0.31809  -0.29557
  Beta  occ. eigenvalues --   -0.27261  -0.25490  -0.24842  -0.23871  -0.23786
  Beta  occ. eigenvalues --   -0.23725  -0.22726  -0.21435  -0.20841  -0.19826
  Beta  occ. eigenvalues --   -0.19600  -0.19365  -0.18705  -0.17521  -0.17264
  Beta  occ. eigenvalues --   -0.17105  -0.15189  -0.15047  -0.14392  -0.13360
  Beta  occ. eigenvalues --   -0.11905  -0.10688  -0.10355  -0.07552  -0.07432
  Beta  occ. eigenvalues --   -0.05424  -0.04220  -0.03884  -0.03683  -0.02763
  Beta  occ. eigenvalues --   -0.01520  -0.01063   0.00308   0.00384
  Beta virt. eigenvalues --    0.13374   0.14383   0.15760   0.15865   0.16413
  Beta virt. eigenvalues --    0.17135   0.18482   0.18783   0.18991   0.19703
  Beta virt. eigenvalues --    0.20140   0.20616   0.20884   0.21252   0.21658

 Mulliken charges and spin densities:
               1          2
     1  C   -0.201213   0.192929
     2  C   -0.337011  -0.059188
     3  C   -0.546413   0.260018
     4  C    0.694864   0.021007
     5  C    0.462176   0.118666
     6  C   -0.295990  -0.048434
     7  C   -0.770777   0.180265
     8  C    0.774714  -0.038378
     9  C    0.423983   0.102664
    10  C    0.424534  -0.105312
    11  C   -0.010193   0.114178
    12  C   -0.933141  -0.061091
    13  C   -0.578902   0.120265
    14  C   -0.305272  -0.047985
    15  O   -0.409108   0.236804
    16  S    0.716328   0.003745
    17  O   -0.347178  -0.000646
    18  O   -0.319385  -0.001476
    19  O   -0.382270  -0.001018
    20  C   -0.837363   0.002694
    21  C   -0.829918   0.002661
    22  H    0.167293  -0.012298
    23  H    0.091902   0.004088
    24  H    0.094766  -0.020269
    25  H    0.044498   0.001934
    26  H    0.222402  -0.008872
    27  H    0.175360  -0.009320
    28  H    0.047407   0.002664
    29  H    0.158551   0.002671
    30  H    0.123987   0.009799
    31  H    0.100846   0.012291
    32  H    0.122710   0.010257
    33  H    0.156739   0.002917
    34  H    0.101074   0.011771
 Sum of Mulliken charges =  -2.00000   1.00000

 Dipole moment (field-independent basis, Debye):
    X=             -2.8257    Y=            -11.3071    Z=             17.4446  Tot=             20.9797
 Quadrupole moment (field-independent basis, Debye-Ang):
   XX=           -215.3817   YY=           -172.2925   ZZ=           -245.3856
   XY=             11.3092   XZ=             62.6626   YZ=             12.4577

  Exact polarizability: 329.856 -59.282 226.497-118.740 -10.509 339.357
 Approx polarizability: 482.549 -96.689 366.010-145.110 -39.629 510.146

                      1                      2                      3
                      A                      A                      A
 Frequencies --     10.3958                30.6235                51.1291
 Red. masses --     12.0946                 5.6334                 4.9570
 Frc consts  --      0.0008                 0.0031                 0.0076
 IR Inten    --      0.3413                 0.0496                 0.7351

                      4                      5                      6
                      A                      A                      A
 Frequencies --    101.3143               105.1914               139.2031
 Red. masses --      3.8509                 8.7780                 6.6023
 Frc consts  --      0.0233                 0.0572                 0.0754
 IR Inten    --      0.6503                 0.7081                 1.5641

                      7                      8                      9
                      A                      A                      A
 Frequencies --    159.4062               191.1038               199.4989
 Red. masses --      5.5133                 1.9676                 7.1786
 Frc consts  --      0.0825                 0.0423                 0.1683
 IR Inten    --      0.7140                 0.2228                 3.5534

                     10                     11                     12
                      A                      A                      A
 Frequencies --    225.4758               250.2964               267.1353
 Red. masses --      6.2581                 1.7195                 1.0525
 Frc consts  --      0.1875                 0.0635                 0.0443
 IR Inten    --      1.1646                 0.4849                 0.0418

                     13                     14                     15
                      A                      A                      A
 Frequencies --    282.6722               297.7068               303.8349
 Red. masses --      4.3165                 3.6024                 3.2761
 Frc consts  --      0.2032                 0.1881                 0.1782
 IR Inten    --      1.5662                 0.8636                 3.1641

                     16                     17                     18
                      A                      A                      A
 Frequencies --    342.4969               346.4315               376.6367
 Red. masses --      3.6415                 4.4762                 6.7856
 Frc consts  --      0.2517                 0.3165                 0.5671
 IR Inten    --      0.1332                 2.1503                 6.7390

                     19                     20                     21
                      A                      A                      A
 Frequencies --    378.8128               405.5379               416.6347
 Red. masses --      4.1172                 6.0459                 4.5174
 Frc consts  --      0.3481                 0.5858                 0.4620
 IR Inten    --      0.5108                13.2157                 1.0768

                     22                     23                     24
                      A                      A                      A
 Frequencies --    443.7776               471.5895               504.3775
 Red. masses --      6.7864                 3.7960                 8.1993
 Frc consts  --      0.7874                 0.4974                 1.2290
 IR Inten    --      1.6629                 0.0978                 9.8371

                     25                     26                     27
                      A                      A                      A
 Frequencies --    507.0032               519.1356               561.2617
 Red. masses --      4.7163                12.7582                 4.1541
 Frc consts  --      0.7143                 2.0258                 0.7710
 IR Inten    --      1.4108                13.8722                 0.3882

                     28                     29                     30
                      A                      A                      A
 Frequencies --    599.8478               600.5183               620.1164
 Red. masses --      3.7532                 7.3599                 5.0680
 Frc consts  --      0.7957                 1.5638                 1.1482
 IR Inten    --     95.3263               180.5547                13.4051

                     31                     32                     33
                      A                      A                      A
 Frequencies --    643.5464               649.4294               664.8782
 Red. masses --      6.9680                 2.2114                 5.1148
 Frc consts  --      1.7003                 0.5495                 1.3322
 IR Inten    --     22.9323                26.5396                17.1028

                     34                     35                     36
                      A                      A                      A
 Frequencies --    684.1039               695.3795               739.4609
 Red. masses --      2.0135                 6.6595                 3.6591
 Frc consts  --      0.5552                 1.8973                 1.1788
 IR Inten    --     19.5017                25.9531                 2.3466

                     37                     38                     39
                      A                      A                      A
 Frequencies --    769.5358               794.9019               813.6680
 Red. masses --      3.4383                 5.3103                 1.4718
 Frc consts  --      1.1996                 1.9770                 0.5741
 IR Inten    --      2.3172                 7.2813                18.5650

                     40                     41                     42
                      A                      A                      A
 Frequencies --    818.6843               819.2732               877.9368
 Red. masses --      3.0382                 1.6500                 1.3558
 Frc consts  --      1.1998                 0.6525                 0.6157
 IR Inten    --     39.7316                12.2284                 4.2176

                     43                     44                     45
                      A                      A                      A
 Frequencies --    913.8075               919.4608               924.7951
 Red. masses --      2.8931                 1.5911                 1.3470
 Frc consts  --      1.4234                 0.7925                 0.6788
 IR Inten    --      4.0375                 0.7321                 3.5178

                     46                     47                     48
                      A                      A                      A
 Frequencies --    940.9299               944.6684               947.3790
 Red. masses --      1.6181                 4.1719                 1.2679
 Frc consts  --      0.8440                 2.1935                 0.6705
 IR Inten    --     21.2763                83.7161                 2.1899

                     49                     50                     51
                      A                      A                      A
 Frequencies --    981.8547              1028.5421              1031.9245
 Red. masses --      9.0392                 1.2810                 2.4700
 Frc consts  --      5.1342                 0.7984                 1.5497
 IR Inten    --    256.6042                 0.0292               141.9374

                     52                     53                     54
                      A                      A                      A
 Frequencies --   1072.8862              1087.6985              1102.9715
 Red. masses --      2.8545                 2.5513                 1.5967
 Frc consts  --      1.9359                 1.7784                 1.1445
 IR Inten    --     56.8501                12.3359                14.3543

                     55                     56                     57
                      A                      A                      A
 Frequencies --   1115.9566              1129.9213              1131.9655
 Red. masses --      2.0225                 4.4212                 3.3113
 Frc consts  --      1.4840                 3.3257                 2.4999
 IR Inten    --     40.8331               220.8118                14.9783

                     58                     59                     60
                      A                      A                      A
 Frequencies --   1140.7682              1147.5980              1156.1370
 Red. masses --      2.1998                 1.4293                 6.9778
 Frc consts  --      1.6867                 1.1091                 5.4953
 IR Inten    --    150.2831                53.9477               202.7403

                     61                     62                     63
                      A                      A                      A
 Frequencies --   1182.8227              1209.0774              1212.8032
 Red. masses --      3.0641                 1.9474                 2.7309
 Frc consts  --      2.5258                 1.6773                 2.3667
 IR Inten    --     85.7438               129.1144                24.7830

                     64                     65                     66
                      A                      A                      A
 Frequencies --   1266.5917              1278.2841              1303.9212
 Red. masses --      1.8929                 2.0370                 2.5346
 Frc consts  --      1.7892                 1.9611                 2.5390
 IR Inten    --     65.1904                60.1568                34.0557

                     67                     68                     69
                      A                      A                      A
 Frequencies --   1324.3816              1349.4659              1380.1116
 Red. masses --      7.9173                 5.8293                 1.1970
 Frc consts  --      8.1819                 6.2545                 1.3433
 IR Inten    --     13.1961                28.2822                 8.0229

                     70                     71                     72
                      A                      A                      A
 Frequencies --   1393.1869              1403.9454              1447.2479
 Red. masses --      3.4914                 1.2763                 2.3906
 Frc consts  --      3.9927                 1.4822                 2.9501
 IR Inten    --    142.8753                14.4869                79.8535

                     73                     74                     75
                      A                      A                      A
 Frequencies --   1470.8127              1481.3214              1482.5530
 Red. masses --      3.1823                 1.0490                 2.5356
 Frc consts  --      4.0560                 1.3562                 3.2836
 IR Inten    --     66.8882                 0.7258                54.4902

                     76                     77                     78
                      A                      A                      A
 Frequencies --   1483.3665              1494.3716              1502.1356
 Red. masses --      1.0511                 1.0574                 1.3244
 Frc consts  --      1.3627                 1.3913                 1.7607
 IR Inten    --      1.0374                15.4680                15.6184

                     79                     80                     81
                      A                      A                      A
 Frequencies --   1513.7827              1527.0164              1567.5666
 Red. masses --      2.5753                 5.6173                 5.8740
 Frc consts  --      3.4770                 7.7173                 8.5043
 IR Inten    --     33.4975               248.8293               199.5577

                     82                     83                     84
                      A                      A                      A
 Frequencies --   1587.4573              1618.5120              3009.3981
 Red. masses --      5.9324                 6.2486                 1.0339
 Frc consts  --      8.8081                 9.6442                 5.5168
 IR Inten    --    191.2030                 9.3267                41.0829

                     85                     86                     87
                      A                      A                      A
 Frequencies --   3014.7957              3067.0209              3071.6445
 Red. masses --      1.0346                 1.1009                 1.1003
 Frc consts  --      5.5402                 6.1014                 6.1167
 IR Inten    --     73.3021                 1.2410                47.6014

                     88                     89                     90
                      A                      A                      A
 Frequencies --   3088.6392              3090.4770              3104.6545
 Red. masses --      1.1014                 1.1006                 1.0846
 Frc consts  --      6.1905                 6.1934                 6.1594
 IR Inten    --     13.4662                32.5106                58.2327

                     91                     92                     93
                      A                      A                      A
 Frequencies --   3122.3516              3127.5880              3148.5758
 Red. masses --      1.0857                 1.0864                 1.0934
 Frc consts  --      6.2364                 6.2615                 6.3862
 IR Inten    --     37.5970                62.0535                75.7172

                     94                     95                     96
                      A                      A                      A
 Frequencies --   3181.5838              3188.5615              3207.4951
 Red. masses --      1.0901                 1.0910                 1.0889
 Frc consts  --      6.5014                 6.5354                 6.6007
 IR Inten    --     15.5928                10.1316                 1.6023

 - Thermochemistry -
 -------------------
 Temperature   298.150 Kelvin.  Pressure   1.00000 Atm.
 Atom     1 has atomic number  6 and mass  12.00000

 Molecular mass:   301.05346 amu.
 Principal axes and moments of inertia in atomic units:
                           1         2         3
     Eigenvalues --  2628.37651********************
           X           -0.66603  -0.47112   0.57832
           Y            0.07770   0.72727   0.68194
           Z            0.74187  -0.49913   0.44778
 This molecule is an asymmetric top.
 Rotational symmetry number  1.
 Warning -- assumption of classical behavior for rotation
           may cause significant error
 Rotational temperatures (Kelvin)      0.03295     0.00759     0.00652
 Rotational constants (GHZ):           0.68664     0.15820     0.13579
 Zero-point vibrational energy     659757.0 (Joules/Mol)
                                  157.68570 (Kcal/Mol)
 Warning -- explicit consideration of  30 degrees of freedom as
           vibrations may cause significant error
 Vibrational temperatures:     14.96    44.06    73.56   145.77   151.35
          (Kelvin)            200.28   229.35   274.96   287.03   324.41
                              360.12   384.35   406.70   428.33   437.15
                              492.78   498.44   541.90   545.03   583.48
                              599.44   638.50   678.51   725.69   729.46
                              746.92   807.53   863.05   864.01   892.21
                              925.92   934.38   956.61   984.27  1000.50
                             1063.92  1107.19  1143.69  1170.69  1177.90
                             1178.75  1263.16  1314.77  1322.90  1330.57
                             1353.79  1359.17  1363.07  1412.67  1479.84
                             1484.71  1543.64  1564.96  1586.93  1605.61
                             1625.70  1628.65  1641.31  1651.14  1663.42
                             1701.82  1739.59  1744.95  1822.34  1839.17
                             1876.05  1905.49  1941.58  1985.67  2004.49
                             2019.96  2082.27  2116.17  2131.29  2133.06
                             2134.23  2150.07  2161.24  2178.00  2197.04
                             2255.38  2284.00  2328.68  4329.85  4337.62
                             4412.76  4419.41  4443.86  4446.51  4466.91
                             4492.37  4499.90  4530.10  4577.59  4587.63
                             4614.87

 Zero-point correction=                           0.251288 (Hartree/Particle)
 Thermal correction to Energy=                    0.269161
 Thermal correction to Enthalpy=                  0.270105
 Thermal correction to Gibbs Free Energy=         0.203541
 Sum of electronic and zero-point Energies=          -1316.628821
 Sum of electronic and thermal Energies=             -1316.610949
 Sum of electronic and thermal Enthalpies=           -1316.610005
 Sum of electronic and thermal Free Energies=        -1316.676569

                     E (Thermal)             CV                S
                      KCal/Mol        Cal/Mol-Kelvin    Cal/Mol-Kelvin
 Total                  168.901             71.016            140.096
 Electronic               0.000              0.000              1.377
 Translational            0.889              2.981             43.003
 Rotational               0.889              2.981             34.343
 Vibrational            167.123             65.055             61.372
 Vibration     1          0.593              1.987              7.934
 Vibration     2          0.594              1.984              5.789
 Vibration     3          0.595              1.977              4.773
 Vibration     4          0.604              1.948              3.429
 Vibration     5          0.605              1.945              3.356
 Vibration     6          0.615              1.914              2.815
 Vibration     7          0.621              1.892              2.557
 Vibration     8          0.634              1.852              2.217
 Vibration     9          0.638              1.841              2.138
 Vibration    10          0.650              1.802              1.915
 Vibration    11          0.663              1.762              1.728
 Vibration    12          0.672              1.733              1.615
 Vibration    13          0.682              1.706              1.517
 Vibration    14          0.691              1.678              1.430
 Vibration    15          0.695              1.666              1.396
 Vibration    16          0.722              1.591              1.200
 Vibration    17          0.724              1.583              1.182
 Vibration    18          0.747              1.520              1.053
 Vibration    19          0.749              1.515              1.044
 Vibration    20          0.771              1.458              0.943
 Vibration    21          0.780              1.434              0.903
 Vibration    22          0.803              1.375              0.815
 Vibration    23          0.829              1.313              0.733
 Vibration    24          0.860              1.240              0.647
 Vibration    25          0.862              1.234              0.641
 Vibration    26          0.874              1.208              0.612
 Vibration    27          0.917              1.115              0.521
 Vibration    28          0.958              1.032              0.450
 Vibration    29          0.959              1.031              0.449
 Vibration    30          0.980              0.989              0.416

                           ! Non-Optimized Parameters !
 Normal termination of Gaussian 16 at Sat Jan  6 06:38:19 2024.
