 Gaussian 16, Revision A.03,
 Gaussian 16:  ES64L-G16RevA.03 25-Dec-2016

 --------------------------------------
 #P UB3LYP/6-311++G(d,p) nosym opt freq
 --------------------------------------

 -------
 Reduced
 -------
 Symbolic Z-matrix:
 Charge = -2 Multiplicity = 1

 SCF Done:  E(UB3LYP) =  -574.556469923     A.U. after   44 cycles
 SCF Done:  E(UB3LYP) =  -574.556709694     A.U. after   32 cycles
 SCF Done:  E(UB3LYP) =  -574.556725193     A.U. after   30 cycles
 SCF Done:  E(UB3LYP) =  -574.556727554     A.U. after   45 cycles
 SCF Done:  E(UB3LYP) =  -574.556729101     A.U. after   74 cycles
 Optimization completed.
    -- Stationary point found.
 Normal termination of Gaussian 16 at Sun Jan  7 20:49:21 2024.

 ----------------------------------------------------------------------
 #P Geom=AllCheck Guess=TCheck SCRF=Check GenChk UB3LYP/6-311++G(d,p) F
 req
 ----------------------------------------------------------------------

 Structure from the checkpoint file:  "236-an.chk"
 -------
 Reduced
 -------
 Charge = -2 Multiplicity = 1

                          Input orientation:
 ---------------------------------------------------------------------
 Center     Atomic      Atomic             Coordinates (Angstroms)
 Number     Number       Type             X           Y           Z
 ---------------------------------------------------------------------
      1          6           0       -3.208875    0.061009    1.000143
      2          6           0       -1.849472   -0.002348    0.350987
      3          6           0       -1.740299   -0.220262   -1.042697
      4          6           0       -0.524669   -0.296668   -1.767274
      5          8           0       -0.447556   -0.499587   -3.046957
      6          6           0        0.656839   -0.127793   -0.927235
      7          6           0        1.945638   -0.181231   -1.506734
      8          6           0        3.103012   -0.027284   -0.762536
      9          6           0        3.006854    0.194347    0.638420
     10          6           0        1.760746    0.251436    1.236780
     11          6           0        0.557723    0.096319    0.504669
     12          6           0       -0.718643    0.166850    1.195974
     13          8           0       -0.815887    0.370883    2.478058
     14          1           0       -4.003235   -0.183079    0.282438
     15          1           0       -3.272475   -0.628946    1.853805
     16          1           0       -3.416218    1.058946    1.419989
     17          1           0       -2.656390   -0.344411   -1.624605
     18          1           0        1.980813   -0.351281   -2.579678
     19          1           0        4.079220   -0.074481   -1.244896
     20          1           0        3.909902    0.318208    1.236312
     21          1           0        1.652970    0.419374    2.305040
 ---------------------------------------------------------------------

 SCF Done:  E(UB3LYP) =  -574.556729101     A.U. after    2 cycles

 Alpha  occ. eigenvalues --  -18.74731 -18.74582  -9.90777  -9.90685  -9.90661
 Alpha  occ. eigenvalues --   -9.90423  -9.90315  -9.89707  -9.89674  -9.87939
 Alpha  occ. eigenvalues --   -9.87888  -9.87190  -9.86040  -0.65897  -0.65457
 Alpha  occ. eigenvalues --   -0.57149  -0.51551  -0.47201  -0.47062  -0.41667
 Alpha  occ. eigenvalues --   -0.37356  -0.33037  -0.31279  -0.26906  -0.22601
 Alpha  occ. eigenvalues --   -0.21379  -0.17449  -0.16776  -0.14999  -0.14866
 Alpha  occ. eigenvalues --   -0.13227  -0.12360  -0.10582  -0.10274  -0.08483
 Alpha  occ. eigenvalues --   -0.08329  -0.05751  -0.05497  -0.04359  -0.04141
 Alpha  occ. eigenvalues --    0.02494   0.04103   0.05148   0.07363   0.07741
 Alpha  occ. eigenvalues --    0.15390
 Alpha virt. eigenvalues --    0.17095   0.18104   0.18834   0.20755   0.21449
 Alpha virt. eigenvalues --    0.22010   0.22812   0.23497   0.24376   0.25829
 Alpha virt. eigenvalues --    0.26952   0.27382   0.28408   0.28891   0.29319

  Beta  occ. eigenvalues --  -18.74731 -18.74582  -9.90777  -9.90685  -9.90661
  Beta  occ. eigenvalues --   -9.90423  -9.90315  -9.89707  -9.89674  -9.87939
  Beta  occ. eigenvalues --   -9.87888  -9.87190  -9.86040  -0.65897  -0.65457
  Beta  occ. eigenvalues --   -0.57149  -0.51551  -0.47201  -0.47062  -0.41667
  Beta  occ. eigenvalues --   -0.37356  -0.33037  -0.31279  -0.26906  -0.22601
  Beta  occ. eigenvalues --   -0.21379  -0.17449  -0.16776  -0.14999  -0.14866
  Beta  occ. eigenvalues --   -0.13227  -0.12360  -0.10582  -0.10274  -0.08483
  Beta  occ. eigenvalues --   -0.08329  -0.05751  -0.05497  -0.04359  -0.04141
  Beta  occ. eigenvalues --    0.02494   0.04103   0.05148   0.07363   0.07741
  Beta  occ. eigenvalues --    0.15390
  Beta virt. eigenvalues --    0.17095   0.18104   0.18834   0.20755   0.21449
  Beta virt. eigenvalues --    0.22010   0.22812   0.23497   0.24376   0.25829
  Beta virt. eigenvalues --    0.26952   0.27382   0.28408   0.28891   0.29319

 Mulliken charges and spin densities:
               1          2
     1  C   -0.472420   0.000000
     2  C    1.324937   0.000000
     3  C   -0.285125  -0.000000
     4  C   -1.300128   0.000000
     5  O   -0.572122  -0.000000
     6  C    0.684931   0.000000
     7  C   -0.178013   0.000000
     8  C   -0.331222   0.000000
     9  C   -0.401335  -0.000000
    10  C   -0.090134  -0.000000
    11  C    0.551077  -0.000000
    12  C   -0.999401   0.000000
    13  O   -0.555432   0.000000
    14  H    0.089890  -0.000000
    15  H    0.116052   0.000000
    16  H    0.057392   0.000000
    17  H    0.009161   0.000000
    18  H    0.111176   0.000000
    19  H    0.064457  -0.000000
    20  H    0.063536  -0.000000
    21  H    0.112722   0.000000
 Sum of Mulliken charges =  -2.00000   0.00000

 Dipole moment (field-independent basis, Debye):
    X=              2.0083    Y=              0.2996    Z=              2.0974  Tot=              2.9193
 Quadrupole moment (field-independent basis, Debye-Ang):
   XX=           -115.8802   YY=            -91.0033   ZZ=           -143.0113
   XY=              0.2237   XZ=              3.8332   YZ=             -8.6803

  Exact polarizability: 320.954 -54.282 250.962 -30.745  17.559 221.415
 Approx polarizability: 502.968  -7.318 199.861 -21.105  33.064 354.159

                      1                      2                      3
                      A                      A                      A
 Frequencies --     31.8526                84.7320               148.7034
 Red. masses --      1.0231                 4.6829                 4.4336
 Frc consts  --      0.0006                 0.0198                 0.0578
 IR Inten    --     14.6876                 3.8570                 5.7338

                      4                      5                      6
                      A                      A                      A
 Frequencies --    170.3902               243.1738               254.3053
 Red. masses --      6.3009                 4.0552                 4.1150
 Frc consts  --      0.1078                 0.1413                 0.1568
 IR Inten    --      2.5379                 2.4234                 7.2236

                      7                      8                      9
                      A                      A                      A
 Frequencies --    290.3933               346.8141               367.5628
 Red. masses --      3.7996                10.9870                 5.7020
 Frc consts  --      0.1888                 0.7786                 0.4539
 IR Inten    --      0.6423                 0.1825                29.7717

                     10                     11                     12
                      A                      A                      A
 Frequencies --    423.8773               434.0634               475.1940
 Red. masses --      6.1346                 3.2836                 8.0520
 Frc consts  --      0.6494                 0.3645                 1.0713
 IR Inten    --      0.8489                 7.0498                 4.4463

                     13                     14                     15
                      A                      A                      A
 Frequencies --    478.4000               527.1478               635.3851
 Red. masses --      4.1570                 7.6978                 2.1777
 Frc consts  --      0.5606                 1.2603                 0.5180
 IR Inten    --      6.8703                 3.5450                45.8680

                     16                     17                     18
                      A                      A                      A
 Frequencies --    638.0557               653.5677               669.7992
 Red. masses --      4.8136                 5.2628                 2.9558
 Frc consts  --      1.1546                 1.3245                 0.7813
 IR Inten    --     12.6474                10.5248                41.9254

                     19                     20                     21
                      A                      A                      A
 Frequencies --    720.9944               727.2915               739.3500
 Red. masses --      6.0871                 1.6171                 2.2668
 Frc consts  --      1.8643                 0.5040                 0.7301
 IR Inten    --     41.3009               183.3105                12.8453

                     22                     23                     24
                      A                      A                      A
 Frequencies --    797.0953               813.1553               819.6014
 Red. masses --      2.0337                 2.3322                 4.3646
 Frc consts  --      0.7613                 0.9086                 1.7274
 IR Inten    --    148.9724                38.5046                 7.0241

                     25                     26                     27
                      A                      A                      A
 Frequencies --    939.8643               946.1015               956.4875
 Red. masses --      1.2978                 4.3365                 1.1858
 Frc consts  --      0.6754                 2.2870                 0.6392
 IR Inten    --      7.5293                39.9458                28.3945

                     28                     29                     30
                      A                      A                      A
 Frequencies --   1002.5749              1010.9693              1028.9286
 Red. masses --      1.7433                 2.1150                 1.4337
 Frc consts  --      1.0324                 1.2736                 0.8943
 IR Inten    --     64.0571               100.5973                23.3847

                     31                     32                     33
                      A                      A                      A
 Frequencies --   1084.2709              1110.8883              1136.4477
 Red. masses --      2.3073                 1.7181                 2.0287
 Frc consts  --      1.5982                 1.2492                 1.5437
 IR Inten    --     33.4248                96.4264                 9.1729

                     34                     35                     36
                      A                      A                      A
 Frequencies --   1168.4035              1210.9854              1221.4559
 Red. masses --      1.9651                 2.0478                 2.4805
 Frc consts  --      1.5806                 1.7694                 2.1805
 IR Inten    --     12.8480               221.7103               154.9735

                     37                     38                     39
                      A                      A                      A
 Frequencies --   1276.1951              1324.1683              1357.8115
 Red. masses --      2.0721                 6.7520                 1.6609
 Frc consts  --      1.9884                 6.9754                 1.8041
 IR Inten    --     19.3155               100.6939               232.8898

                     40                     41                     42
                      A                      A                      A
 Frequencies --   1378.1900              1403.3538              1419.4954
 Red. masses --      3.8563                 4.1805                 2.7182
 Frc consts  --      4.3156                 4.8508                 3.2271
 IR Inten    --    135.2811               686.9221                34.9633

                     43                     44                     45
                      A                      A                      A
 Frequencies --   1440.5637              1446.3206              1473.5316
 Red. masses --      1.0651                 3.1438                 1.4363
 Frc consts  --      1.3023                 3.8746                 1.8374
 IR Inten    --     82.2595                 2.4665                 3.9427

                     46                     47                     48
                      A                      A                      A
 Frequencies --   1499.4425              1517.7075              1572.6478
 Red. masses --      2.1224                 5.0249                 5.2786
 Frc consts  --      2.8115                 6.8195                 7.6919
 IR Inten    --     70.5032               212.1785                 0.1130

                     49                     50                     51
                      A                      A                      A
 Frequencies --   1586.5104              2921.2446              2956.2783
 Red. masses --      6.7463                 1.0778                 1.0525
 Frc consts  --     10.0047                 5.4191                 5.4196
 IR Inten    --     72.4950              1608.4135               508.0937

                     52                     53                     54
                      A                      A                      A
 Frequencies --   3017.3586              3067.5375              3073.5939
 Red. masses --      1.0994                 1.0858                 1.0818
 Frc consts  --      5.8975                 6.0197                 6.0213
 IR Inten    --     50.6644               136.2438                41.0591

                     55                     56                     57
                      A                      A                      A
 Frequencies --   3099.2886              3143.0391              3146.2296
 Red. masses --      1.0902                 1.0899                 1.0909
 Frc consts  --      6.1697                 6.3434                 6.3622
 IR Inten    --    144.1542                40.1406                57.1581

 - Thermochemistry -
 -------------------
 Temperature   298.150 Kelvin.  Pressure   1.00000 Atm.
 Atom     1 has atomic number  6 and mass  12.00000

 Molecular mass:   172.05243 amu.
 Principal axes and moments of inertia in atomic units:
                           1         2         3
     Eigenvalues --  1483.013782291.197493763.20748
           X            0.96349   0.26603  -0.03026
           Y           -0.01312   0.15979   0.98706
           Z           -0.26742   0.95063  -0.15745
 This molecule is an asymmetric top.
 Rotational symmetry number  1.
 Warning -- assumption of classical behavior for rotation
           may cause significant error
 Rotational temperatures (Kelvin)      0.05840     0.03780     0.02302
 Rotational constants (GHZ):           1.21694     0.78768     0.47958
 Zero-point vibrational energy     403313.7 (Joules/Mol)
                                   96.39430 (Kcal/Mol)
 Warning -- explicit consideration of  14 degrees of freedom as
           vibrations may cause significant error
 Vibrational temperatures:     45.83   121.91   213.95   245.15   349.87
          (Kelvin)            365.89   417.81   498.99   528.84   609.86
                              624.52   683.70   688.31   758.45   914.18
                              918.02   940.34   963.69  1037.35  1046.41
                             1063.76  1146.84  1169.95  1179.22  1352.26
                             1361.23  1376.17  1442.48  1454.56  1480.40
                             1560.02  1598.32  1635.09  1681.07  1742.34
                             1757.40  1836.16  1905.18  1953.59  1982.91
                             2019.11  2042.34  2072.65  2080.93  2120.08
                             2157.36  2183.64  2262.69  2282.63  4203.02
                             4253.43  4341.31  4413.50  4422.22  4459.18
                             4522.13  4526.72

 Zero-point correction=                           0.153614 (Hartree/Particle)
 Thermal correction to Energy=                    0.164229
 Thermal correction to Enthalpy=                  0.165174
 Thermal correction to Gibbs Free Energy=         0.116764
 Sum of electronic and zero-point Energies=           -574.403115
 Sum of electronic and thermal Energies=              -574.392500
 Sum of electronic and thermal Enthalpies=            -574.391556
 Sum of electronic and thermal Free Energies=         -574.439965

                     E (Thermal)             CV                S
                      KCal/Mol        Cal/Mol-Kelvin    Cal/Mol-Kelvin
 Total                  103.055             41.675            101.887
 Electronic               0.000              0.000              0.000
 Translational            0.889              2.981             41.335
 Rotational               0.889              2.981             30.926
 Vibrational            101.278             35.714             29.626
 Vibration     1          0.594              1.983              5.711
 Vibration     2          0.601              1.960              3.778
 Vibration     3          0.618              1.904              2.689
 Vibration     4          0.625              1.879              2.431
 Vibration     5          0.659              1.774              1.780
 Vibration     6          0.665              1.756              1.701
 Vibration     7          0.686              1.692              1.472
 Vibration     8          0.725              1.582              1.181
 Vibration     9          0.740              1.539              1.090
 Vibration    10          0.786              1.418              0.879
 Vibration    11          0.795              1.396              0.845
 Vibration    12          0.832              1.305              0.723
 Vibration    13          0.835              1.298              0.714
 Vibration    14          0.882              1.190              0.594

                           ! Non-Optimized Parameters !
 Normal termination of Gaussian 16 at Sun Jan  7 21:05:59 2024.
