 Q-Chem 5.4, Q-Chem, Inc., Pleasanton, CA (2021)
 Q-Chem 5.4.0 for Intel X86 EM64T Linux

User input:
--------------------------------------------------------------
$molecule
-2 1
C                 -3.2088750000      0.0610090000      1.0001430000
C                 -1.8494720000     -0.0023480000      0.3509870000
C                 -1.7402990000     -0.2202620000     -1.0426970000
C                 -0.5246690000     -0.2966680000     -1.7672740000
O                 -0.4475560000     -0.4995870000     -3.0469570000
C                  0.6568390000     -0.1277930000     -0.9272350000
C                  1.9456380000     -0.1812310000     -1.5067340000
C                  3.1030120000     -0.0272840000     -0.7625360000
C                  3.0068540000      0.1943470000      0.6384200000
C                  1.7607460000      0.2514360000      1.2367800000
C                  0.5577230000      0.0963190000      0.5046690000
C                 -0.7186430000      0.1668500000      1.1959740000
O                 -0.8158870000      0.3708830000      2.4780580000
H                 -4.0032350000     -0.1830790000      0.2824380000
H                 -3.2724750000     -0.6289460000      1.8538050000
H                 -3.4162180000      1.0589460000      1.4199890000
H                 -2.6563900000     -0.3444110000     -1.6246050000
H                  1.9808130000     -0.3512810000     -2.5796780000
H                  4.0792200000     -0.0744810000     -1.2448960000
H                  3.9099020000      0.3182080000      1.2363120000
H                  1.6529700000      0.4193740000      2.3050400000
$end
$rem
MAX_SCF_CYCLES=200
BASIS  =  6-311++G(d,p)
GUI  =  2
JOB_TYPE  =  SP
METHOD  =  B3LYP
SOLVENT_METHOD = PCM
$end
$pcm
theory = CPCM
$end
$solvent
dielectric 37.219
opticaldielectric 1.43
$end

--------------------------------------------------------------

             Standard Nuclear Orientation (Angstroms)
    I     Atom           X                Y                Z
 ----------------------------------------------------------------
    1      C      -3.2088750000     0.0610090000     1.0001430000
    2      C      -1.8494720000    -0.0023480000     0.3509870000
    3      C      -1.7402990000    -0.2202620000    -1.0426970000
    4      C      -0.5246690000    -0.2966680000    -1.7672740000
    5      O      -0.4475560000    -0.4995870000    -3.0469570000
    6      C       0.6568390000    -0.1277930000    -0.9272350000
    7      C       1.9456380000    -0.1812310000    -1.5067340000
    8      C       3.1030120000    -0.0272840000    -0.7625360000
    9      C       3.0068540000     0.1943470000     0.6384200000
   10      C       1.7607460000     0.2514360000     1.2367800000
   11      C       0.5577230000     0.0963190000     0.5046690000
   12      C      -0.7186430000     0.1668500000     1.1959740000
   13      O      -0.8158870000     0.3708830000     2.4780580000
   14      H      -4.0032350000    -0.1830790000     0.2824380000
   15      H      -3.2724750000    -0.6289460000     1.8538050000
   16      H      -3.4162180000     1.0589460000     1.4199890000
   17      H      -2.6563900000    -0.3444110000    -1.6246050000
   18      H       1.9808130000    -0.3512810000    -2.5796780000
   19      H       4.0792200000    -0.0744810000    -1.2448960000
   20      H       3.9099020000     0.3182080000     1.2363120000
   21      H       1.6529700000     0.4193740000     2.3050400000
 ----------------------------------------------------------------

    9    -574.8438818998      3.66e-06  Convergence criterion met
 Total energy in the final basis set =     -574.8438818998

                    Orbital Energies (a.u.)
 --------------------------------------------------------------

 Alpha MOs
 -- Occupied --
-19.0190 -19.0172 -10.1705 -10.1650 -10.1497 -10.1487 -10.1457 -10.1450
-10.1387 -10.1379 -10.1373 -10.1278 -10.1181  -0.9311  -0.9268  -0.8233
 -0.7705  -0.7219  -0.7202  -0.6668  -0.6287  -0.5815  -0.5619  -0.5221
 -0.4744  -0.4633  -0.4296  -0.4162  -0.3991  -0.3929  -0.3833  -0.3722
 -0.3621  -0.3554  -0.3494  -0.3370  -0.3175  -0.3111  -0.3083  -0.3015
 -0.2295  -0.2240  -0.2088  -0.2007  -0.1950  -0.1137

          Ground-State Mulliken Net Atomic Charges

     Atom                 Charge (a.u.)
  ----------------------------------------
      1 C                    -0.397373
      2 C                     0.751220
      3 C                    -0.430951
      4 C                    -0.762768
      5 O                    -0.744970
      6 C                     0.404003
      7 C                    -0.113262
      8 C                    -0.455402
      9 C                    -0.506988
     10 C                    -0.052458
     11 C                     0.280237
     12 C                    -0.395395
     13 O                    -0.738216
     14 H                     0.138876
     15 H                     0.142522
     16 H                     0.146004
     17 H                     0.106201
     18 H                     0.141719
     19 H                     0.174579
     20 H                     0.175635
     21 H                     0.136787
  ----------------------------------------
  Sum of atomic charges =    -2.000000

                    Cartesian Multipole Moments
 -----------------------------------------------------------------
    Charge (ESU x 10^10)
                -9.6064
    Dipole Moment (Debye)
         X       3.7478      Y       0.5553      Z       2.7448
       Tot       4.6785
    Quadrupole Moments (Debye-Ang)
        XX     -94.1224     XY       0.1928     YY     -89.0843
        XZ       2.4376     YZ      -9.0911     ZZ    -145.2169

 Total job time:  36.65s(wall), 182.65s(cpu)
        *  Thank you very much for using Q-Chem.  Have a nice day.  *
