 Q-Chem 5.4, Q-Chem, Inc., Pleasanton, CA (2021)
 Q-Chem 5.4.0 for Intel X86 EM64T Linux

User input:
--------------------------------------------------------------
$molecule
0 1
C                  5.6741640000     -4.0408310000     -2.3568650000
O                  4.8645790000     -3.0814480000     -1.6850200000
C                  5.4182860000     -2.2742820000     -0.7591800000
C                  6.7761920000     -2.3443560000     -0.4233730000
C                  7.3128510000     -1.4952130000      0.5382750000
C                  6.5131360000     -0.5635510000      1.1828750000
C                  5.1587820000     -0.4771300000      0.8633160000
C                  4.3596540000      0.5606250000      1.6048460000
O                  4.9178660000      1.2496920000      2.4421280000
C                  2.9206200000      0.6896930000      1.2752360000
C                  2.1143100000      1.6566210000      1.8889390000
O                  2.6688340000      2.4988330000      2.7983370000
C                  0.7351560000      1.7581410000      1.5697560000
C                 -0.0781780000      2.8697760000      2.2005980000
C                 -1.3822360000      3.2250750000      1.4472140000
O                 -2.1745220000      4.0936330000      2.2632570000
C                 -2.1368540000      1.9360740000      1.1253880000
C                 -1.3314260000      0.8692130000      0.3681160000
O                 -1.8845840000     -0.4112370000      0.7338360000
C                 -2.6628490000     -1.0380750000     -0.2378180000
C                 -3.0116100000     -2.4365400000      0.2449470000
C                 -3.9698080000     -3.1382900000     -0.7407740000
N                 -3.3668300000     -3.5639950000     -2.0141730000
C                 -5.1824530000     -2.2310110000     -1.0199230000
O                 -5.9717380000     -2.2467540000      0.1705730000
C                 -4.7247030000     -0.8155200000     -1.4205050000
C                 -5.8637530000      0.1734640000     -1.6234170000
O                 -3.8492040000     -0.2578000000     -0.4364760000
C                  0.1517010000      0.8576540000      0.6917330000
C                  0.9642870000     -0.0897510000      0.0250130000
O                  0.3745990000     -0.8621450000     -0.8973560000
C                  2.3418080000     -0.1822580000      0.3125410000
C                  3.1432270000     -1.1908300000     -0.4113430000
O                  2.5962540000     -1.9114440000     -1.2634840000
C                  4.5823520000     -1.3216830000     -0.1065170000
C                 -1.0506610000      4.0391720000      0.1867330000
O                 -0.6133740000      3.5056900000     -0.8119100000
C                 -1.2568450000      5.5427940000      0.2048020000
O                 -0.8029070000      6.1363310000     -0.9841610000
H                  5.0015960000     -4.5534980000     -3.0417150000
H                  6.1014980000     -4.7652470000     -1.6560540000
H                  6.4756540000     -3.5595730000     -2.9264700000
H                  7.4188480000     -3.0624940000     -0.9122560000
H                  8.3671940000     -1.5678890000      0.7808690000
H                  6.9093880000      0.1064470000      1.9335400000
H                  1.9922690000      3.0700280000      3.1747290000
H                  0.5172170000      3.7862570000      2.2916300000
H                 -0.3774710000      2.5915760000      3.2203790000
H                 -2.5966010000      3.5729330000      2.9551120000
H                 -3.0583860000      2.1479020000      0.5813060000
H                 -2.4265360000      1.4862790000      2.0824980000
H                 -1.4403620000      1.0103100000     -0.7090140000
H                 -2.1103210000     -1.0610690000     -1.1899330000
H                 -2.0936580000     -3.0180450000      0.3640450000
H                 -3.4918280000     -2.3419920000      1.2220370000
H                 -4.3655270000     -4.0384660000     -0.2647230000
H                 -2.7565040000     -2.8547490000     -2.4067310000
H                 -2.7973060000     -4.3913010000     -1.8748630000
H                 -5.7423100000     -2.6625450000     -1.8589830000
H                 -6.7026030000     -1.6286520000      0.0772940000
H                 -4.1794620000     -0.9177430000     -2.3734530000
H                 -6.5753610000     -0.2026290000     -2.3635580000
H                 -5.4732470000      1.1292320000     -1.9777580000
H                 -6.3914570000      0.3645480000     -0.6844180000
H                  1.0988010000     -1.4461730000     -1.2628220000
H                 -2.3256250000      5.7354470000      0.3629480000
H                 -0.7389190000      5.9681600000      1.0737110000
H                 -0.5131030000      5.4146150000     -1.5635100000
$end

$rem
BASIS  =  6-311++G(d,p)
GUI  =  2
JOB_TYPE  =  SP
METHOD  =  B3LYP
SCF_CONVERGENCE  = 8
SOLVENT_METHOD = sm12
$end

$smx
solvent dimethylformamide
charges CM5
$end

--------------------------------------------------------------

             Standard Nuclear Orientation (Angstroms)
    I     Atom           X                Y                Z
 ----------------------------------------------------------------
    1      C       5.6741640000    -4.0408310000    -2.3568650000
    2      O       4.8645790000    -3.0814480000    -1.6850200000
    3      C       5.4182860000    -2.2742820000    -0.7591800000
    4      C       6.7761920000    -2.3443560000    -0.4233730000
    5      C       7.3128510000    -1.4952130000     0.5382750000
    6      C       6.5131360000    -0.5635510000     1.1828750000
    7      C       5.1587820000    -0.4771300000     0.8633160000
    8      C       4.3596540000     0.5606250000     1.6048460000
    9      O       4.9178660000     1.2496920000     2.4421280000
   10      C       2.9206200000     0.6896930000     1.2752360000
   11      C       2.1143100000     1.6566210000     1.8889390000
   12      O       2.6688340000     2.4988330000     2.7983370000
   13      C       0.7351560000     1.7581410000     1.5697560000
   14      C      -0.0781780000     2.8697760000     2.2005980000
   15      C      -1.3822360000     3.2250750000     1.4472140000
   16      O      -2.1745220000     4.0936330000     2.2632570000
   17      C      -2.1368540000     1.9360740000     1.1253880000
   18      C      -1.3314260000     0.8692130000     0.3681160000
   19      O      -1.8845840000    -0.4112370000     0.7338360000
   20      C      -2.6628490000    -1.0380750000    -0.2378180000
   21      C      -3.0116100000    -2.4365400000     0.2449470000
   22      C      -3.9698080000    -3.1382900000    -0.7407740000
   23      N      -3.3668300000    -3.5639950000    -2.0141730000
   24      C      -5.1824530000    -2.2310110000    -1.0199230000
   25      O      -5.9717380000    -2.2467540000     0.1705730000
   26      C      -4.7247030000    -0.8155200000    -1.4205050000
   27      C      -5.8637530000     0.1734640000    -1.6234170000
   28      O      -3.8492040000    -0.2578000000    -0.4364760000
   29      C       0.1517010000     0.8576540000     0.6917330000
   30      C       0.9642870000    -0.0897510000     0.0250130000
   31      O       0.3745990000    -0.8621450000    -0.8973560000
   32      C       2.3418080000    -0.1822580000     0.3125410000
   33      C       3.1432270000    -1.1908300000    -0.4113430000
   34      O       2.5962540000    -1.9114440000    -1.2634840000
   35      C       4.5823520000    -1.3216830000    -0.1065170000
   36      C      -1.0506610000     4.0391720000     0.1867330000
   37      O      -0.6133740000     3.5056900000    -0.8119100000
   38      C      -1.2568450000     5.5427940000     0.2048020000
   39      O      -0.8029070000     6.1363310000    -0.9841610000
   40      H       5.0015960000    -4.5534980000    -3.0417150000
   41      H       6.1014980000    -4.7652470000    -1.6560540000
   42      H       6.4756540000    -3.5595730000    -2.9264700000
   43      H       7.4188480000    -3.0624940000    -0.9122560000
   44      H       8.3671940000    -1.5678890000     0.7808690000
   45      H       6.9093880000     0.1064470000     1.9335400000
   46      H       1.9922690000     3.0700280000     3.1747290000
   47      H       0.5172170000     3.7862570000     2.2916300000
   48      H      -0.3774710000     2.5915760000     3.2203790000
   49      H      -2.5966010000     3.5729330000     2.9551120000
   50      H      -3.0583860000     2.1479020000     0.5813060000
   51      H      -2.4265360000     1.4862790000     2.0824980000
   52      H      -1.4403620000     1.0103100000    -0.7090140000
   53      H      -2.1103210000    -1.0610690000    -1.1899330000
   54      H      -2.0936580000    -3.0180450000     0.3640450000
   55      H      -3.4918280000    -2.3419920000     1.2220370000
   56      H      -4.3655270000    -4.0384660000    -0.2647230000
   57      H      -2.7565040000    -2.8547490000    -2.4067310000
   58      H      -2.7973060000    -4.3913010000    -1.8748630000
   59      H      -5.7423100000    -2.6625450000    -1.8589830000
   60      H      -6.7026030000    -1.6286520000     0.0772940000
   61      H      -4.1794620000    -0.9177430000    -2.3734530000
   62      H      -6.5753610000    -0.2026290000    -2.3635580000
   63      H      -5.4732470000     1.1292320000    -1.9777580000
   64      H      -6.3914570000     0.3645480000    -0.6844180000
   65      H       1.0988010000    -1.4461730000    -1.2628220000
   66      H      -2.3256250000     5.7354470000     0.3629480000
   67      H      -0.7389190000     5.9681600000     1.0737110000
   68      H      -0.5131030000     5.4146150000    -1.5635100000
 ----------------------------------------------------------------

   15   -1929.0681861570      8.71e-09  Convergence criterion met
 Total energy in the final basis set =    -1929.1212850445

                    Orbital Energies (a.u.)
 --------------------------------------------------------------

 Alpha MOs
 -- Occupied --
-19.1691 -19.1639 -19.1487 -19.1432 -19.1425 -19.1314 -19.1280 -19.1271
-19.1222 -19.1214 -19.1138 -14.2907 -10.2825 -10.2821 -10.2726 -10.2647
-10.2634 -10.2621 -10.2612 -10.2581 -10.2395 -10.2320 -10.2241 -10.2188
-10.2172 -10.2143 -10.2068 -10.2060 -10.2058 -10.2046 -10.2041 -10.2040
-10.2006 -10.1971 -10.1912 -10.1847 -10.1819 -10.1632 -10.1608  -1.0878
 -1.0866  -1.0856  -1.0817  -1.0714  -1.0506  -1.0493  -1.0479  -1.0298
 -1.0288  -1.0087  -0.8902  -0.8871  -0.8793  -0.8432  -0.8013  -0.7934
 -0.7790  -0.7719  -0.7714  -0.7612  -0.7486  -0.7384  -0.7119  -0.7009
 -0.6869  -0.6777  -0.6631  -0.6457  -0.6323  -0.6200  -0.6177  -0.6144
 -0.5901  -0.5871  -0.5665  -0.5596  -0.5548  -0.5492  -0.5399  -0.5287
 -0.5219  -0.5162  -0.5100  -0.5082  -0.5005  -0.4965  -0.4919  -0.4910
 -0.4859  -0.4821  -0.4789  -0.4779  -0.4761  -0.4696  -0.4637  -0.4620
 -0.4546  -0.4478  -0.4436  -0.4402  -0.4343  -0.4313  -0.4228  -0.4217
 -0.4209  -0.4126  -0.4103  -0.4030  -0.4002  -0.3977  -0.3951  -0.3928
 -0.3911  -0.3886  -0.3872  -0.3834  -0.3809  -0.3788  -0.3757  -0.3742
 -0.3719  -0.3640  -0.3608  -0.3546  -0.3440  -0.3386  -0.3356  -0.3325
 -0.3242  -0.3178  -0.3049  -0.2919  -0.2868  -0.2841  -0.2801  -0.2793
 -0.2753  -0.2662  -0.2594  -0.2538  -0.2446  -0.2429  -0.2262

          Ground-State Mulliken Net Atomic Charges

     Atom                 Charge (a.u.)
  ----------------------------------------
      1 C                    -0.067695
      2 O                    -0.165722
      3 C                     0.058074
      4 C                     1.457793
      5 C                     0.379291
      6 C                    -0.158657
      7 C                    -0.611358
      8 C                    -1.597161
      9 O                    -0.287969
     10 C                    -0.560493
     11 C                    -0.757830
     12 O                    -0.171395
     13 C                    -0.160219
     14 C                     0.712250
     15 C                     1.735074
     16 O                    -0.155370
     17 C                     0.282238
     18 C                    -0.662316
     19 O                     0.140687
     20 C                    -0.137981
     21 C                    -0.554422
     22 C                    -0.047197
     23 N                    -0.340027
     24 C                    -0.309462
     25 O                    -0.245278
     26 C                    -0.156672
     27 C                    -0.357505
     28 O                     0.083470
     29 C                    -0.146354
     30 C                    -0.778143
     31 O                    -0.343044
     32 C                     0.456621
     33 C                    -0.821376
     34 O                    -0.291616
     35 C                    -0.196044
     36 C                    -0.730080
     37 O                    -0.327890
     38 C                    -0.533458
     39 O                    -0.350729
     40 H                     0.231491
     41 H                     0.228112
     42 H                     0.228099
     43 H                     0.366382
     44 H                     0.329928
     45 H                     0.133085
     46 H                     0.330723
     47 H                     0.282175
     48 H                     0.386273
     49 H                     0.342965
     50 H                     0.275999
     51 H                     0.219037
     52 H                     0.150402
     53 H                     0.102725
     54 H                     0.169073
     55 H                     0.035896
     56 H                     0.149424
     57 H                     0.259229
     58 H                     0.310381
     59 H                     0.167214
     60 H                     0.255874
     61 H                     0.103173
     62 H                     0.201277
     63 H                     0.161514
     64 H                     0.137090
     65 H                     0.485188
     66 H                     0.218642
     67 H                     0.220949
     68 H                     0.235643
  ----------------------------------------
  Sum of atomic charges =     0.000000

                    Cartesian Multipole Moments
 -----------------------------------------------------------------
    Charge (ESU x 10^10)
                 0.0000
    Dipole Moment (Debye)
         X       0.1633      Y      -3.1027      Z       0.0095
       Tot       3.1070
    Quadrupole Moments (Debye-Ang)
        XX    -193.7550     XY     -40.0375     YY    -234.3642
        XZ     -19.2842     YZ      21.0741     ZZ    -224.0618

 Total job time:  8272.08s(wall), 34939.31s(cpu)
        *  Thank you very much for using Q-Chem.  Have a nice day.  *
