 Gaussian 16, Revision A.03,
 Gaussian 16:  ES64L-G16RevA.03 25-Dec-2016

 --------------------------------------
 #P UB3LYP/6-311++G(d,p) nosym opt freq
 --------------------------------------

 -------
 Radical
 -------
 Symbolic Z-matrix:
 Charge = -1 Multiplicity = 2

 SCF Done:  E(UB3LYP) =  -954.090667465     A.U. after   20 cycles
 SCF Done:  E(UB3LYP) =  -954.090667179     A.U. after   10 cycles
 SCF Done:  E(UB3LYP) =  -954.090667527     A.U. after    9 cycles
 Optimization completed.
    -- Stationary point found.
 Normal termination of Gaussian 16 at Sun Jan  7 05:18:37 2024.

 ----------------------------------------------------------------------
 #P Geom=AllCheck Guess=TCheck SCRF=Check GenChk UB3LYP/6-311++G(d,p) F
 req
 ----------------------------------------------------------------------

 Structure from the checkpoint file:  "191-rad.chk"
 -------
 Radical
 -------
 Charge = -1 Multiplicity = 2

                          Input orientation:
 ---------------------------------------------------------------------
 Center     Atomic      Atomic             Coordinates (Angstroms)
 Number     Number       Type             X           Y           Z
 ---------------------------------------------------------------------
      1          6           0        4.888753   -2.937756   -0.316424
      2          6           0        5.647198   -2.081976   -1.076531
      3          6           0        5.105037   -0.861436   -1.526688
      4          6           0        3.557466   -2.607741    0.024395
      5          6           0        2.974582   -1.375916   -0.415835
      6          6           0        3.799683   -0.509774   -1.207706
      7          6           0        2.815807   -3.562846    0.831589
      8          6           0        1.454820   -3.241129    1.188718
      9          6           0        0.861611   -2.015462    0.755931
     10          6           0        1.597916   -1.051397   -0.053979
     11          6           0        0.699039   -4.153302    1.978334
     12          6           0       -0.611871   -3.843843    2.322449
     13          6           0       -0.484098   -1.732329    1.127881
     14          6           0       -1.196088   -2.646045    1.901205
     15          8           0        3.360791   -4.657055    1.211826
     16          8           0        1.027329    0.027759   -0.416078
     17          8           0        1.238657   -5.321900    2.401164
     18          1           0        5.276458   -3.881694    0.043935
     19          1           0        6.669873   -2.335913   -1.338136
     20          1           0        5.719247   -0.202026   -2.124071
     21          8           0        3.251919    0.665326   -1.631139
     22          1           0        2.174517   -5.316450    2.032825
     23          8           0       -1.093534   -0.586775    0.744832
     24          1           0       -2.218531   -2.402642    2.168506
     25          1           0       -1.169440   -4.552946    2.924561
     26          1           0       -0.388373   -0.103437    0.207406
     27          6           0        4.032541    1.543034   -2.411424
     28          1           0        3.388823    2.397206   -2.623278
     29          1           0        4.345353    1.083609   -3.358277
     30          1           0        4.924780    1.888687   -1.873009
 ---------------------------------------------------------------------

 SCF Done:  E(UB3LYP) =  -954.090667527     A.U. after    1 cycles

 Alpha  occ. eigenvalues --  -19.05024 -19.00375 -19.00115 -18.96570 -18.96425
 Alpha  occ. eigenvalues --  -10.13488 -10.13418 -10.11754 -10.11116 -10.10839
 Alpha  occ. eigenvalues --  -10.10835 -10.06976 -10.06829 -10.06614 -10.06395
 Alpha  occ. eigenvalues --  -10.05692 -10.05593 -10.05509 -10.05233 -10.05166
 Alpha  occ. eigenvalues --   -0.97009  -0.92775  -0.92596  -0.88244  -0.88050
 Alpha  occ. eigenvalues --   -0.74986  -0.72801  -0.67512  -0.65863  -0.63268
 Alpha  occ. eigenvalues --   -0.61407  -0.60081  -0.55846  -0.52369  -0.52191
 Alpha  occ. eigenvalues --   -0.47612  -0.46458  -0.43848  -0.42241  -0.39808
 Alpha  occ. eigenvalues --   -0.38820  -0.38306  -0.37823  -0.37549  -0.35739
 Alpha  occ. eigenvalues --   -0.34312  -0.33365  -0.31748  -0.31081  -0.30194
 Alpha  occ. eigenvalues --   -0.29714  -0.28851  -0.28450  -0.28295  -0.27829
 Alpha  occ. eigenvalues --   -0.26458  -0.25389  -0.25285  -0.24329  -0.23889
 Alpha  occ. eigenvalues --   -0.23182  -0.22366  -0.21559  -0.18287  -0.15459
 Alpha  occ. eigenvalues --   -0.13734  -0.13526  -0.12507  -0.12029  -0.08917
 Alpha  occ. eigenvalues --   -0.02425
 Alpha virt. eigenvalues --    0.06471   0.07093   0.08420   0.08758   0.09353
 Alpha virt. eigenvalues --    0.10255   0.10401   0.11351   0.11818   0.12391
 Alpha virt. eigenvalues --    0.12828   0.13191   0.14584   0.15017   0.15706

  Beta  occ. eigenvalues --  -19.05028 -19.00314 -19.00069 -18.96072 -18.95940
  Beta  occ. eigenvalues --  -10.13486 -10.13434 -10.11605 -10.10916 -10.10811
  Beta  occ. eigenvalues --  -10.10781 -10.06913 -10.06742 -10.06531 -10.06285
  Beta  occ. eigenvalues --  -10.05682 -10.05611 -10.05509 -10.05151 -10.05057
  Beta  occ. eigenvalues --   -0.97009  -0.92572  -0.92401  -0.87489  -0.87248
  Beta  occ. eigenvalues --   -0.74746  -0.72641  -0.67108  -0.65743  -0.63081
  Beta  occ. eigenvalues --   -0.61112  -0.59974  -0.55189  -0.52167  -0.51979
  Beta  occ. eigenvalues --   -0.47524  -0.46343  -0.43627  -0.42114  -0.39678
  Beta  occ. eigenvalues --   -0.38768  -0.38110  -0.37802  -0.37430  -0.35589
  Beta  occ. eigenvalues --   -0.34177  -0.33245  -0.30929  -0.30928  -0.29895
  Beta  occ. eigenvalues --   -0.29486  -0.28730  -0.28066  -0.28053  -0.26881
  Beta  occ. eigenvalues --   -0.26364  -0.25304  -0.24348  -0.23736  -0.23124
  Beta  occ. eigenvalues --   -0.22892  -0.22220  -0.20881  -0.17605  -0.13654
  Beta  occ. eigenvalues --   -0.13152  -0.13108  -0.11838  -0.11639  -0.07896
  Beta virt. eigenvalues --    0.02942   0.06470   0.08133   0.08413   0.09353
  Beta virt. eigenvalues --    0.09784   0.10257   0.10456   0.11358   0.11829
  Beta virt. eigenvalues --    0.12395   0.13199   0.13293   0.14589   0.15018

 Mulliken charges and spin densities:
               1          2
     1  C   -0.241901   0.023618
     2  C   -0.410529   0.052102
     3  C   -0.046490   0.070353
     4  C    0.264467   0.040195
     5  C    0.169434   0.054341
     6  C    0.079607   0.006695
     7  C   -0.455343   0.108199
     8  C    0.317709  -0.030197
     9  C    0.684080   0.014356
    10  C   -0.463334   0.071726
    11  C   -0.354566   0.056251
    12  C    0.031277   0.049313
    13  C   -0.416785   0.036094
    14  C   -0.058780   0.079463
    15  O   -0.428246   0.183186
    16  O   -0.421162   0.178211
    17  O   -0.377399   0.018862
    18  H    0.157985  -0.000570
    19  H    0.139829  -0.004051
    20  H    0.124688  -0.004806
    21  O   -0.101895   0.000537
    22  H    0.344913  -0.004017
    23  O   -0.391285   0.014913
    24  H    0.150786  -0.006950
    25  H    0.151237  -0.004910
    26  H    0.384276  -0.003293
    27  C   -0.270248  -0.000900
    28  H    0.179965  -0.000170
    29  H    0.128824   0.000724
    30  H    0.128889   0.000724
 Sum of Mulliken charges =  -1.00000   1.00000

 Dipole moment (field-independent basis, Debye):
    X=             -6.7265    Y=             12.8169    Z=             -4.3203  Tot=             15.1058
 Quadrupole moment (field-independent basis, Debye-Ang):
   XX=           -144.6870   YY=           -176.9928   ZZ=           -128.5301
   XY=             30.8980   XZ=             -7.8830   YZ=             17.7469

  Exact polarizability: 304.152   9.984 236.712 -82.712 -74.655 178.957
 Approx polarizability: 495.788 -24.471 412.104-114.111-121.918 280.216

                      1                      2                      3
                      A                      A                      A
 Frequencies --     35.7765                56.2596                84.3540
 Red. masses --      5.2635                 5.9190                 3.8979
 Frc consts  --      0.0040                 0.0110                 0.0163
 IR Inten    --      2.1858                 1.4160                 1.5309

                      4                      5                      6
                      A                      A                      A
 Frequencies --    107.0598               149.2632               161.0464
 Red. masses --     10.6318                 7.1689                 4.7730
 Frc consts  --      0.0718                 0.0941                 0.0729
 IR Inten    --      0.1596                 0.7130                 1.8926

                      7                      8                      9
                      A                      A                      A
 Frequencies --    169.8354               204.1142               262.3965
 Red. masses --      6.1824                 3.1486                 1.7646
 Frc consts  --      0.1051                 0.0773                 0.0716
 IR Inten    --      1.1177                 0.1361                 0.2665

                     10                     11                     12
                      A                      A                      A
 Frequencies --    264.9237               294.8266               313.5405
 Red. masses --      5.9173                 2.4686                 4.4344
 Frc consts  --      0.2447                 0.1264                 0.2568
 IR Inten    --      0.7775                 0.0080                 2.3911

                     13                     14                     15
                      A                      A                      A
 Frequencies --    341.8743               373.0198               399.5648
 Red. masses --      5.5388                 6.9271                 9.3290
 Frc consts  --      0.3814                 0.5679                 0.8775
 IR Inten    --      1.6423                 0.0006                 8.9477

                     16                     17                     18
                      A                      A                      A
 Frequencies --    410.2367               427.7411               444.5035
 Red. masses --      6.5585                 7.7127                 8.7395
 Frc consts  --      0.6503                 0.8314                 1.0174
 IR Inten    --      0.0323                 8.2209                 1.6259

                     19                     20                     21
                      A                      A                      A
 Frequencies --    454.0124               472.3584               490.3342
 Red. masses --     10.2786                10.3607                 4.5480
 Frc consts  --      1.2483                 1.3620                 0.6443
 IR Inten    --     22.0864                 6.1072                 0.2715

                     22                     23                     24
                      A                      A                      A
 Frequencies --    517.3637               525.0974               540.1524
 Red. masses --      9.2892                 5.4524                 4.5454
 Frc consts  --      1.4649                 0.8858                 0.7814
 IR Inten    --      2.3738                12.0490                 5.6946

                     25                     26                     27
                      A                      A                      A
 Frequencies --    602.4557               602.7239               627.3946
 Red. masses --      3.8317                 6.6094                 4.5392
 Frc consts  --      0.8194                 1.4146                 1.0527
 IR Inten    --      9.2907                 4.8629                 2.1734

                     28                     29                     30
                      A                      A                      A
 Frequencies --    650.2768               708.7365               715.0328
 Red. masses --      4.5545                 3.3919                 6.8979
 Frc consts  --      1.1347                 1.0038                 2.0779
 IR Inten    --      0.1446                 7.5374                22.3417

                     31                     32                     33
                      A                      A                      A
 Frequencies --    735.4728               757.1084               757.4417
 Red. masses --      3.6798                 7.0732                 2.1782
 Frc consts  --      1.1728                 2.3888                 0.7363
 IR Inten    --     10.0212                36.2123                33.6753

                     34                     35                     36
                      A                      A                      A
 Frequencies --    802.9752               817.6985               821.2027
 Red. masses --      5.6848                 1.7258                 8.0596
 Frc consts  --      2.1596                 0.6799                 3.2023
 IR Inten    --     10.1710                55.6449                37.9426

                     37                     38                     39
                      A                      A                      A
 Frequencies --    846.6968               893.7364               899.6627
 Red. masses --      1.4410                 7.5284                 1.3101
 Frc consts  --      0.6086                 3.5430                 0.6248
 IR Inten    --      0.1948                14.2418                 0.5089

                     40                     41                     42
                      A                      A                      A
 Frequencies --    921.9937               937.4212               957.8001
 Red. masses --      1.0583                 1.0556                 6.0766
 Frc consts  --      0.5301                 0.5465                 3.2844
 IR Inten    --     64.8714                74.0063                22.8451

                     43                     44                     45
                      A                      A                      A
 Frequencies --    968.7288               980.3193              1062.6115
 Red. masses --      1.2752                 6.3435                 3.0716
 Frc consts  --      0.7051                 3.5918                 2.0434
 IR Inten    --      0.5937                66.6327                23.6826

                     46                     47                     48
                      A                      A                      A
 Frequencies --   1096.8092              1113.8396              1162.3781
 Red. masses --      2.5012                 2.3327                 1.2809
 Frc consts  --      1.7728                 1.7051                 1.0197
 IR Inten    --     41.7035               171.8200                 0.7501

                     49                     50                     51
                      A                      A                      A
 Frequencies --   1162.4898              1175.4859              1201.1532
 Red. masses --      1.9982                 1.3066                 1.5041
 Frc consts  --      1.5910                 1.0637                 1.2786
 IR Inten    --     23.1459                 7.5443                 1.5690

                     52                     53                     54
                      A                      A                      A
 Frequencies --   1213.9684              1246.0672              1266.2679
 Red. masses --      2.5515                 3.0106                 3.9093
 Frc consts  --      2.2155                 2.7541                 3.6932
 IR Inten    --      0.9135                 0.2194               110.3957

                     55                     56                     57
                      A                      A                      A
 Frequencies --   1277.7460              1284.7371              1303.9277
 Red. masses --      2.4801                 5.7578                 4.8755
 Frc consts  --      2.3857                 5.5993                 4.8840
 IR Inten    --     58.9720                22.6582               161.2522

                     58                     59                     60
                      A                      A                      A
 Frequencies --   1321.8380              1349.5908              1388.8879
 Red. masses --      3.9635                 6.7267                 5.4370
 Frc consts  --      4.0803                 7.2187                 6.1794
 IR Inten    --    243.9092               183.6123                 3.8175

                     61                     62                     63
                      A                      A                      A
 Frequencies --   1399.5368              1434.9179              1458.3755
 Red. masses --      4.1140                 4.0666                 3.6179
 Frc consts  --      4.7478                 4.9332                 4.5336
 IR Inten    --    148.5523                 8.4372                 8.8975

                     64                     65                     66
                      A                      A                      A
 Frequencies --   1466.9096              1483.3995              1487.0878
 Red. masses --      1.4258                 2.7042                 1.0479
 Frc consts  --      1.8077                 3.5060                 1.3654
 IR Inten    --     16.0882                90.9797                 5.9624

                     67                     68                     69
                      A                      A                      A
 Frequencies --   1503.2518              1514.1636              1531.8036
 Red. masses --      1.0800                 1.9853                 5.0162
 Frc consts  --      1.4379                 2.6818                 6.9348
 IR Inten    --    120.5804               567.2079               396.4070

                     70                     71                     72
                      A                      A                      A
 Frequencies --   1564.7227              1603.8519              1614.9524
 Red. masses --      4.5591                 1.8186                 5.4011
 Frc consts  --      6.5767                 2.7562                 8.2995
 IR Inten    --    187.8487               183.7049                12.8816

                     73                     74                     75
                      A                      A                      A
 Frequencies --   1639.2766              1654.7030              2910.9694
 Red. masses --      5.9149                 2.5028                 1.0737
 Frc consts  --      9.3649                 4.0376                 5.3607
 IR Inten    --     12.2892                 6.0018               299.4301

                     76                     77                     78
                      A                      A                      A
 Frequencies --   2975.6940              2983.4082              3023.6293
 Red. masses --      1.0362                 1.0728                 1.1045
 Frc consts  --      5.4058                 5.6259                 5.9492
 IR Inten    --    136.1185               314.6912                60.6904

                     79                     80                     81
                      A                      A                      A
 Frequencies --   3108.1851              3147.3498              3161.6596
 Red. masses --      1.0961                 1.0876                 1.0864
 Frc consts  --      6.2390                 6.3476                 6.3983
 IR Inten    --     34.7748                32.7688                19.8122

                     82                     83                     84
                      A                      A                      A
 Frequencies --   3178.8627              3199.9119              3202.7665
 Red. masses --      1.0937                 1.0895                 1.0921
 Frc consts  --      6.5117                 6.5727                 6.6002
 IR Inten    --     34.1916                 6.6263                26.5280

 - Thermochemistry -
 -------------------
 Temperature   298.150 Kelvin.  Pressure   1.00000 Atm.
 Atom     1 has atomic number  6 and mass  12.00000

 Molecular mass:   270.05282 amu.
 Principal axes and moments of inertia in atomic units:
                           1         2         3
     Eigenvalues --  3116.919226300.817049406.25570
           X            0.65027  -0.68683   0.32469
           Y            0.53201   0.71678   0.45076
           Z           -0.54233  -0.12038   0.83150
 This molecule is an asymmetric top.
 Rotational symmetry number  1.
 Warning -- assumption of classical behavior for rotation
           may cause significant error
 Rotational temperatures (Kelvin)      0.02779     0.01375     0.00921
 Rotational constants (GHZ):           0.57901     0.28643     0.19187
 Zero-point vibrational energy     570509.4 (Joules/Mol)
                                  136.35502 (Kcal/Mol)
 Warning -- explicit consideration of  26 degrees of freedom as
           vibrations may cause significant error
 Vibrational temperatures:     51.47    80.94   121.37   154.04   214.76
          (Kelvin)            231.71   244.36   293.67   377.53   381.17
                              424.19   451.11   491.88   536.69   574.88
                              590.24   615.42   639.54   653.22   679.62
                              705.48   744.37   755.50   777.16   866.80
                              867.19   902.68   935.60  1019.71  1028.77
                             1058.18  1089.31  1089.79  1155.30  1176.49
                             1181.53  1218.21  1285.89  1294.41  1326.54
                             1348.74  1378.06  1393.78  1410.46  1528.86
                             1578.06  1602.57  1672.40  1672.56  1691.26
                             1728.19  1746.63  1792.81  1821.88  1838.39
                             1848.45  1876.06  1901.83  1941.76  1998.30
                             2013.62  2064.53  2098.28  2110.56  2134.28
                             2139.59  2162.84  2178.54  2203.92  2251.29
                             2307.59  2323.56  2358.55  2380.75  4188.24
                             4281.36  4292.46  4350.33  4471.99  4528.33
                             4548.92  4573.67  4603.96  4608.07

 Zero-point correction=                           0.217296 (Hartree/Particle)
 Thermal correction to Energy=                    0.232755
 Thermal correction to Enthalpy=                  0.233700
 Thermal correction to Gibbs Free Energy=         0.173904
 Sum of electronic and zero-point Energies=           -953.873372
 Sum of electronic and thermal Energies=              -953.857912
 Sum of electronic and thermal Enthalpies=            -953.856968
 Sum of electronic and thermal Free Energies=         -953.916763

                     E (Thermal)             CV                S
                      KCal/Mol        Cal/Mol-Kelvin    Cal/Mol-Kelvin
 Total                  146.056             61.987            125.850
 Electronic               0.000              0.000              1.377
 Translational            0.889              2.981             42.679
 Rotational               0.889              2.981             33.579
 Vibrational            144.279             56.025             48.214
 Vibration     1          0.594              1.982              5.480
 Vibration     2          0.596              1.975              4.584
 Vibration     3          0.601              1.960              3.787
 Vibration     4          0.606              1.944              3.322
 Vibration     5          0.618              1.903              2.682
 Vibration     6          0.622              1.890              2.537
 Vibration     7          0.625              1.880              2.437
 Vibration     8          0.640              1.834              2.096
 Vibration     9          0.670              1.742              1.646
 Vibration    10          0.671              1.737              1.629
 Vibration    11          0.689              1.683              1.446
 Vibration    12          0.701              1.648              1.344
 Vibration    13          0.721              1.592              1.203
 Vibration    14          0.744              1.528              1.067
 Vibration    15          0.766              1.471              0.964
 Vibration    16          0.774              1.448              0.926
 Vibration    17          0.789              1.410              0.866
 Vibration    18          0.804              1.373              0.813
 Vibration    19          0.812              1.352              0.784
 Vibration    20          0.829              1.311              0.731
 Vibration    21          0.846              1.271              0.683
 Vibration    22          0.872              1.212              0.616
 Vibration    23          0.880              1.194              0.598
 Vibration    24          0.895              1.161              0.565
 Vibration    25          0.961              1.027              0.445
 Vibration    26          0.961              1.026              0.445

 Optimization completed.
    -- Stationary point found.
 Normal termination of Gaussian 16 at Sun Jan  7 07:14:38 2024.
