 Q-Chem 5.4, Q-Chem, Inc., Pleasanton, CA (2021)
 Q-Chem 5.4.0 for Intel X86 EM64T Linux

User input:
--------------------------------------------------------------
$molecule
-1 2
C                  5.8522400000     -5.5618090000      0.8701150000
C                  6.3495060000     -5.5484900000     -0.4210040000
C                  5.9090050000     -4.5692090000     -1.3335070000
C                  4.9059520000     -4.6073810000      1.2940020000
C                  4.4630730000     -3.6222520000      0.3755200000
C                  4.9802390000     -3.6241980000     -0.9352940000
C                  4.3957640000     -4.6468210000      2.6729030000
C                  3.4233470000     -3.6346110000      3.0376710000
C                  2.9967140000     -2.6633310000      2.1376960000
C                  3.4773560000     -2.6075070000      0.7729220000
O                  4.7966590000     -5.5269820000      3.4855460000
O                  3.0752320000     -1.7316360000     -0.0444630000
H                  7.0785290000     -6.2913860000     -0.7320830000
C                  1.9822880000     -1.6086340000      2.5192580000
H                  6.2987270000     -4.5575410000     -2.3474790000
C                  2.9062230000     -3.6852630000      4.4572280000
C                  0.5398220000     -1.9800420000      2.1221890000
C                 -0.4810580000     -0.8895570000      2.4646390000
C                 -1.9191410000     -1.2416930000      2.0668810000
C                 -2.9339090000     -0.1450840000      2.4076220000
H                  6.1727170000     -6.3025130000      1.5938590000
H                  4.6217510000     -2.8591450000     -1.6146400000
H                  2.2450640000     -0.6824900000      1.9985380000
H                  2.0192630000     -1.4092820000      3.5953460000
H                  3.2779360000     -4.5906610000      4.9376560000
H                  1.8114850000     -3.6844220000      4.4981730000
H                  3.2496640000     -2.8247120000      5.0462870000
H                  0.2538940000     -2.9169400000      2.6172160000
H                  0.5232380000     -2.1736080000      1.0449360000
H                 -0.1884720000      0.0440700000      1.9659260000
H                 -0.4477500000     -0.6816840000      3.5436480000
H                 -2.2121730000     -2.1756830000      2.5627390000
H                 -1.9523520000     -1.4474510000      0.9901090000
H                 -2.9469110000      0.0603680000      3.4835240000
H                 -3.9496190000     -0.4267080000      2.1108810000
H                 -2.6866130000      0.7922300000      1.8980000000
$end
$rem
MAX_SCF_CYCLES=200
BASIS  =  6-311++G(d,p)
GUI  =  2
JOB_TYPE  =  SP
METHOD  =  B3LYP
SOLVENT_METHOD = PCM
$end
$pcm
theory = CPCM
$end
$solvent
dielectric 37.219
opticaldielectric 1.43
$end

--------------------------------------------------------------

             Standard Nuclear Orientation (Angstroms)
    I     Atom           X                Y                Z
 ----------------------------------------------------------------
    1      C       5.8522400000    -5.5618090000     0.8701150000
    2      C       6.3495060000    -5.5484900000    -0.4210040000
    3      C       5.9090050000    -4.5692090000    -1.3335070000
    4      C       4.9059520000    -4.6073810000     1.2940020000
    5      C       4.4630730000    -3.6222520000     0.3755200000
    6      C       4.9802390000    -3.6241980000    -0.9352940000
    7      C       4.3957640000    -4.6468210000     2.6729030000
    8      C       3.4233470000    -3.6346110000     3.0376710000
    9      C       2.9967140000    -2.6633310000     2.1376960000
   10      C       3.4773560000    -2.6075070000     0.7729220000
   11      O       4.7966590000    -5.5269820000     3.4855460000
   12      O       3.0752320000    -1.7316360000    -0.0444630000
   13      H       7.0785290000    -6.2913860000    -0.7320830000
   14      C       1.9822880000    -1.6086340000     2.5192580000
   15      H       6.2987270000    -4.5575410000    -2.3474790000
   16      C       2.9062230000    -3.6852630000     4.4572280000
   17      C       0.5398220000    -1.9800420000     2.1221890000
   18      C      -0.4810580000    -0.8895570000     2.4646390000
   19      C      -1.9191410000    -1.2416930000     2.0668810000
   20      C      -2.9339090000    -0.1450840000     2.4076220000
   21      H       6.1727170000    -6.3025130000     1.5938590000
   22      H       4.6217510000    -2.8591450000    -1.6146400000
   23      H       2.2450640000    -0.6824900000     1.9985380000
   24      H       2.0192630000    -1.4092820000     3.5953460000
   25      H       3.2779360000    -4.5906610000     4.9376560000
   26      H       1.8114850000    -3.6844220000     4.4981730000
   27      H       3.2496640000    -2.8247120000     5.0462870000
   28      H       0.2538940000    -2.9169400000     2.6172160000
   29      H       0.5232380000    -2.1736080000     1.0449360000
   30      H      -0.1884720000     0.0440700000     1.9659260000
   31      H      -0.4477500000    -0.6816840000     3.5436480000
   32      H      -2.2121730000    -2.1756830000     2.5627390000
   33      H      -1.9523520000    -1.4474510000     0.9901090000
   34      H      -2.9469110000     0.0603680000     3.4835240000
   35      H      -3.9496190000    -0.4267080000     2.1108810000
   36      H      -2.6866130000     0.7922300000     1.8980000000
 ----------------------------------------------------------------

    8    -771.3627656116      5.01e-06  Convergence criterion met
 Total energy in the final basis set =     -771.3627656116

                    Orbital Energies (a.u.)
 --------------------------------------------------------------

 Alpha MOs
 -- Occupied --
-19.0730 -19.0720 -10.2171 -10.2163 -10.1701 -10.1696 -10.1688 -10.1683
-10.1670 -10.1669 -10.1664 -10.1630 -10.1563 -10.1538 -10.1534 -10.1533
-10.1505 -10.1493  -0.9978  -0.9950  -0.8549  -0.8173  -0.7909  -0.7576
 -0.7470  -0.7404  -0.7013  -0.6663  -0.6508  -0.6117  -0.5921  -0.5750
 -0.5683  -0.5477  -0.5121  -0.4865  -0.4682  -0.4615  -0.4473  -0.4314
 -0.4233  -0.4230  -0.4174  -0.4107  -0.4088  -0.3993  -0.3935  -0.3834
 -0.3782  -0.3710  -0.3693  -0.3601  -0.3511  -0.3462  -0.3396  -0.3345
 -0.3246  -0.3208  -0.3142  -0.3136  -0.2653  -0.2544  -0.2443  -0.2372
 -0.2320  -0.1484

 Beta MOs
 -- Occupied --
-19.0672 -19.0663 -10.2152 -10.2144 -10.1697 -10.1692 -10.1683 -10.1678
-10.1669 -10.1669 -10.1651 -10.1617 -10.1563 -10.1537 -10.1534 -10.1533
-10.1505 -10.1494  -0.9875  -0.9846  -0.8528  -0.8140  -0.7897  -0.7560
 -0.7451  -0.7389  -0.6985  -0.6648  -0.6444  -0.6106  -0.5907  -0.5729
 -0.5677  -0.5450  -0.5101  -0.4842  -0.4674  -0.4593  -0.4464  -0.4286
 -0.4224  -0.4179  -0.4158  -0.4072  -0.4047  -0.3966  -0.3868  -0.3823
 -0.3765  -0.3690  -0.3593  -0.3539  -0.3457  -0.3395  -0.3335  -0.3333
 -0.3238  -0.3202  -0.3138  -0.3116  -0.2479  -0.2443  -0.2390  -0.2282
 -0.2263

          Ground-State Mulliken Net Atomic Charges

     Atom                 Charge (a.u.)    Spin (a.u.)
  --------------------------------------------------------
      1 C                     0.176868       0.034811
      2 C                    -0.474748       0.026257
      3 C                    -0.453253       0.027460
      4 C                     0.233194       0.010724
      5 C                    -0.170637       0.016042
      6 C                     0.077645       0.035918
      7 C                    -0.752473       0.107727
      8 C                     0.943896       0.091732
      9 C                     1.030024       0.081328
     10 C                    -0.942366       0.112591
     11 O                    -0.503678       0.219060
     12 O                    -0.487996       0.217686
     13 H                     0.193024      -0.002315
     14 C                    -0.381816       0.013176
     15 H                     0.192609      -0.002223
     16 C                    -0.533721      -0.002537
     17 C                    -0.582749       0.002000
     18 C                    -0.179781       0.004608
     19 C                    -0.191701      -0.000422
     20 C                    -0.679076       0.000097
     21 H                     0.171469      -0.002291
     22 H                     0.171709      -0.002479
     23 H                     0.199429       0.003221
     24 H                     0.179292       0.000574
     25 H                     0.175636      -0.001564
     26 H                     0.168984       0.004359
     27 H                     0.183511       0.006096
     28 H                     0.129339      -0.000599
     29 H                     0.170619      -0.001035
     30 H                     0.116161       0.000218
     31 H                     0.112382      -0.000285
     32 H                     0.136494       0.000119
     33 H                     0.133224      -0.000079
     34 H                     0.145234      -0.000005
     35 H                     0.147768       0.000038
     36 H                     0.145474      -0.000008
  --------------------------------------------------------
  Sum of atomic charges =    -1.000008

                    Cartesian Multipole Moments
 -----------------------------------------------------------------
    Charge (ESU x 10^10)
                -4.8032
    Dipole Moment (Debye)
         X     -19.5082      Y      17.7648      Z      -7.6428
       Tot      27.4694
    Quadrupole Moments (Debye-Ang)
        XX    -196.2801     XY      78.8006     YY    -197.8196
        XZ     -41.4261     YZ      45.8029     ZZ    -138.0212

 Total job time:  85.35s(wall), 539.03s(cpu)
        *  Thank you very much for using Q-Chem.  Have a nice day.  *
