 Gaussian 16, Revision A.03,
 Gaussian 16:  ES64L-G16RevA.03 25-Dec-2016

 --------------------------------------
 #P UB3LYP/6-311++G(d,p) nosym opt freq
 --------------------------------------

 -------
 Reduced
 -------
 Symbolic Z-matrix:
 Charge = -2 Multiplicity = 1

 SCF Done:  E(UB3LYP) =  -917.966484991     A.U. after   46 cycles
 SCF Done:  E(UB3LYP) =  -917.995087802     A.U. after   34 cycles
 SCF Done:  E(UB3LYP) =  -918.003342982     A.U. after   36 cycles
 SCF Done:  E(UB3LYP) =  -918.005515688     A.U. after   32 cycles
 SCF Done:  E(UB3LYP) =  -918.006071123     A.U. after   27 cycles
 SCF Done:  E(UB3LYP) =  -918.006194327     A.U. after   29 cycles
 SCF Done:  E(UB3LYP) =  -918.006278979     A.U. after   25 cycles
 SCF Done:  E(UB3LYP) =  -918.006309204     A.U. after   26 cycles
 SCF Done:  E(UB3LYP) =  -918.006350297     A.U. after   33 cycles
 SCF Done:  E(UB3LYP) =  -918.006371630     A.U. after   28 cycles
 SCF Done:  E(UB3LYP) =  -918.006375261     A.U. after   25 cycles
 SCF Done:  E(UB3LYP) =  -918.006375444     A.U. after   21 cycles
 SCF Done:  E(UB3LYP) =  -918.006375500     A.U. after   23 cycles
 SCF Done:  E(UB3LYP) =  -918.006375533     A.U. after   23 cycles
 SCF Done:  E(UB3LYP) =  -918.006375550     A.U. after   17 cycles
 SCF Done:  E(UB3LYP) =  -918.006375563     A.U. after   23 cycles
 Optimization completed.
    -- Stationary point found.
 Normal termination of Gaussian 16 at Thu Dec 21 11:09:37 2023.

 ----------------------------------------------------------------------
 #P Geom=AllCheck Guess=TCheck SCRF=Check GenChk UB3LYP/6-311++G(d,p) F
 req
 ----------------------------------------------------------------------

 Structure from the checkpoint file:  "140-an.chk"
 -------
 Reduced
 -------
 Charge = -2 Multiplicity = 1

                          Input orientation:
 ---------------------------------------------------------------------
 Center     Atomic      Atomic             Coordinates (Angstroms)
 Number     Number       Type             X           Y           Z
 ---------------------------------------------------------------------
      1          6           0       -5.015542   -1.022397   -0.027594
      2          8           0       -3.612406   -1.087458    0.016611
      3          6           0       -2.891252    0.082251    0.005345
      4          6           0       -3.533271    1.312214   -0.029324
      5          6           0       -2.775844    2.509212   -0.042067
      6          6           0       -1.404136    2.451265   -0.033438
      7          6           0       -0.712819    1.215576   -0.005592
      8          6           0        0.752784    1.298819   -0.007219
      9          8           0        1.323702    2.431317   -0.043637
     10          6           0        1.455650    0.024468    0.040203
     11          6           0        2.891260   -0.082533    0.031770
     12          8           0        3.612619    1.084224   -0.050486
     13          6           0        5.016009    1.016166   -0.079369
     14          6           0        3.533183   -1.310861    0.104737
     15          6           0        2.775530   -2.504918    0.187515
     16          6           0        1.403807   -2.446840    0.182140
     17          6           0        0.712641   -1.213391    0.101482
     18          6           0       -0.752955   -1.296889    0.096954
     19          8           0       -1.323934   -2.428593    0.152050
     20          6           0       -1.455748   -0.023258    0.032341
     21          1           0       -5.364488   -2.057685   -0.048404
     22          1           0       -5.443233   -0.522033    0.854581
     23          1           0       -5.388186   -0.506761   -0.926253
     24          1           0       -4.613985    1.370452   -0.036893
     25          1           0       -3.293053    3.466061   -0.065491
     26          1           0       -0.790389    3.344165   -0.049989
     27          1           0        5.365319    2.046184   -0.184551
     28          1           0        5.394755    0.427125   -0.929029
     29          1           0        5.437490    0.591714    0.844594
     30          1           0        4.613910   -1.369210    0.109111
     31          1           0        3.292607   -3.460208    0.248041
     32          1           0        0.789973   -3.338180    0.236537
 ---------------------------------------------------------------------

 SCF Done:  E(UB3LYP) =  -918.006375563     A.U. after    2 cycles

 Alpha  occ. eigenvalues --  -18.93114 -18.93114 -18.80273 -18.80272 -10.02309
 Alpha  occ. eigenvalues --  -10.02309 -10.00946 -10.00946  -9.96875  -9.96874
 Alpha  occ. eigenvalues --   -9.94582  -9.94582  -9.94289  -9.94289  -9.93376
 Alpha  occ. eigenvalues --   -9.93376  -9.92997  -9.92997  -9.92748  -9.92747
 Alpha  occ. eigenvalues --   -0.84890  -0.84887  -0.72844  -0.72516  -0.61872
 Alpha  occ. eigenvalues --   -0.61350  -0.54459  -0.53504  -0.53453  -0.50488
 Alpha  occ. eigenvalues --   -0.48169  -0.47800  -0.42505  -0.39754  -0.38821
 Alpha  occ. eigenvalues --   -0.35475  -0.33577  -0.31725  -0.30613  -0.27002
 Alpha  occ. eigenvalues --   -0.26256  -0.26238  -0.25984  -0.25561  -0.23988
 Alpha  occ. eigenvalues --   -0.23966  -0.22296  -0.20821  -0.20007  -0.18305
 Alpha  occ. eigenvalues --   -0.17339  -0.16152  -0.16102  -0.15361  -0.13769
 Alpha  occ. eigenvalues --   -0.13093  -0.12713  -0.11924  -0.11424  -0.11265
 Alpha  occ. eigenvalues --   -0.10672  -0.09831  -0.08614  -0.08434  -0.01003
 Alpha  occ. eigenvalues --   -0.00736   0.00031   0.00510   0.02445   0.03100
 Alpha  occ. eigenvalues --    0.12104
 Alpha virt. eigenvalues --    0.13417   0.13603   0.15725   0.15747   0.17231
 Alpha virt. eigenvalues --    0.17344   0.17574   0.17597   0.19422   0.19659
 Alpha virt. eigenvalues --    0.19981   0.21000   0.21142   0.21599   0.22323

  Beta  occ. eigenvalues --  -18.93114 -18.93114 -18.80273 -18.80272 -10.02309
  Beta  occ. eigenvalues --  -10.02309 -10.00946 -10.00946  -9.96875  -9.96874
  Beta  occ. eigenvalues --   -9.94582  -9.94582  -9.94289  -9.94289  -9.93376
  Beta  occ. eigenvalues --   -9.93376  -9.92997  -9.92997  -9.92748  -9.92747
  Beta  occ. eigenvalues --   -0.84890  -0.84887  -0.72844  -0.72516  -0.61872
  Beta  occ. eigenvalues --   -0.61350  -0.54459  -0.53504  -0.53453  -0.50488
  Beta  occ. eigenvalues --   -0.48169  -0.47800  -0.42505  -0.39754  -0.38821
  Beta  occ. eigenvalues --   -0.35475  -0.33577  -0.31725  -0.30613  -0.27002
  Beta  occ. eigenvalues --   -0.26256  -0.26238  -0.25984  -0.25561  -0.23988
  Beta  occ. eigenvalues --   -0.23966  -0.22296  -0.20821  -0.20007  -0.18305
  Beta  occ. eigenvalues --   -0.17339  -0.16152  -0.16102  -0.15361  -0.13769
  Beta  occ. eigenvalues --   -0.13093  -0.12713  -0.11924  -0.11424  -0.11265
  Beta  occ. eigenvalues --   -0.10672  -0.09831  -0.08614  -0.08434  -0.01003
  Beta  occ. eigenvalues --   -0.00736   0.00031   0.00510   0.02445   0.03100
  Beta  occ. eigenvalues --    0.12104
  Beta virt. eigenvalues --    0.13417   0.13603   0.15725   0.15747   0.17231
  Beta virt. eigenvalues --    0.17344   0.17574   0.17597   0.19422   0.19659
  Beta virt. eigenvalues --    0.19981   0.21000   0.21142   0.21599   0.22323

 Mulliken charges and spin densities:
               1          2
     1  C    0.529707  -0.000000
     2  O   -0.101049   0.000000
     3  C   -0.198144  -0.000000
     4  C   -0.156627   0.000000
     5  C   -0.350514  -0.000000
     6  C    0.030401   0.000000
     7  C    0.530165   0.000000
     8  C   -0.528333  -0.000000
     9  O   -0.446449   0.000000
    10  C    0.097695   0.000000
    11  C   -0.198102  -0.000000
    12  O   -0.101034   0.000000
    13  C    0.529464  -0.000000
    14  C   -0.156683  -0.000000
    15  C   -0.350477   0.000000
    16  C    0.030399  -0.000000
    17  C    0.530160  -0.000000
    18  C   -0.528370   0.000000
    19  O   -0.446419  -0.000000
    20  C    0.097820  -0.000000
    21  H   -0.213919   0.000000
    22  H   -0.056815   0.000000
    23  H   -0.276789   0.000000
    24  H   -0.025909   0.000000
    25  H    0.023911   0.000000
    26  H    0.142574   0.000000
    27  H   -0.213789   0.000000
    28  H   -0.276801   0.000000
    29  H   -0.056710   0.000000
    30  H   -0.025826   0.000000
    31  H    0.023896   0.000000
    32  H    0.142568  -0.000000
 Sum of Mulliken charges =  -2.00000   0.00000

 Dipole moment (field-independent basis, Debye):
    X=             -0.0023    Y=              0.0444    Z=              0.8403  Tot=              0.8415
 Quadrupole moment (field-independent basis, Debye-Ang):
   XX=           -250.1455   YY=           -180.4449   ZZ=           -138.5459
   XY=            -18.7083   XZ=              0.4115   YZ=              1.7025

  Exact polarizability:7533.727 944.8111286.161 -16.793 -29.802 505.355
 Approx polarizability:********1436.9991242.353 -20.155 -27.151 482.657

                      1                      2                      3
                      A                      A                      A
 Frequencies --     21.1752                48.4977                51.3622
 Red. masses --      4.9557                 5.4185                 5.1329
 Frc consts  --      0.0013                 0.0075                 0.0080
 IR Inten    --      0.7247                 2.4749                 3.5181

                      4                      5                      6
                      A                      A                      A
 Frequencies --     83.9067                90.6833               149.4312
 Red. masses --      3.7324                 4.2013                 4.2306
 Frc consts  --      0.0155                 0.0204                 0.0557
 IR Inten    --      2.4789                 6.5257                31.7507

                      7                      8                      9
                      A                      A                      A
 Frequencies --    156.8307               193.0399               201.6788
 Red. masses --      5.4142                 3.0093                 4.8580
 Frc consts  --      0.0785                 0.0661                 0.1164
 IR Inten    --      5.7573                 2.2650                 0.8713

                     10                     11                     12
                      A                      A                      A
 Frequencies --    231.2969               274.2284               291.8175
 Red. masses --      2.4602                 1.5890                 1.4152
 Frc consts  --      0.0775                 0.0704                 0.0710
 IR Inten    --      3.4310                 2.7597                14.2222

                     13                     14                     15
                      A                      A                      A
 Frequencies --    303.1886               309.0176               318.2944
 Red. masses --      2.5247                 3.9219                 3.8969
 Frc consts  --      0.1367                 0.2207                 0.2326
 IR Inten    --     84.5067                 0.4073                13.8323

                     16                     17                     18
                      A                      A                      A
 Frequencies --    352.9230               371.5015               378.2255
 Red. masses --      6.9834                 7.4754                 7.9289
 Frc consts  --      0.5125                 0.6079                 0.6683
 IR Inten    --      0.0383                 0.0047               177.8133

                     19                     20                     21
                      A                      A                      A
 Frequencies --    396.3847               405.9740               469.2215
 Red. masses --      7.3082                 7.6898                11.4700
 Frc consts  --      0.6765                 0.7467                 1.4879
 IR Inten    --     44.0687                37.2007                 0.7933

                     22                     23                     24
                      A                      A                      A
 Frequencies --    485.9419               507.6377               539.7909
 Red. masses --      4.2272                 6.5431                 4.7763
 Frc consts  --      0.5881                 0.9934                 0.8200
 IR Inten    --      7.1322                 0.0041                 0.0076

                     25                     26                     27
                      A                      A                      A
 Frequencies --    566.6774               577.4493               620.2290
 Red. masses --      6.6055                 4.9432                 5.3197
 Frc consts  --      1.2498                 0.9711                 1.2057
 IR Inten    --     39.6951                32.0779                 2.8793

                     28                     29                     30
                      A                      A                      A
 Frequencies --    626.6305               652.0760               688.1357
 Red. masses --      4.8008                 3.3736                 1.9253
 Frc consts  --      1.1107                 0.8452                 0.5371
 IR Inten    --      2.5436               109.1189                21.5207

                     31                     32                     33
                      A                      A                      A
 Frequencies --    699.8316               725.4625               750.0827
 Red. masses --      6.4531                 1.3591                 2.7419
 Frc consts  --      1.8621                 0.4214                 0.9089
 IR Inten    --      0.0015                 1.8316                 0.5292

                     34                     35                     36
                      A                      A                      A
 Frequencies --    764.4380               770.2869               792.0574
 Red. masses --      6.5149                 3.7475                 1.5136
 Frc consts  --      2.2431                 1.3101                 0.5595
 IR Inten    --    219.5738                41.6766                32.0417

                     37                     38                     39
                      A                      A                      A
 Frequencies --    803.0028               826.1470               839.2481
 Red. masses --      1.6008                 7.0916                 6.7779
 Frc consts  --      0.6082                 2.8518                 2.8127
 IR Inten    --      0.8442                 5.4188                14.2835

                     40                     41                     42
                      A                      A                      A
 Frequencies --    874.7096               935.3280               957.3836
 Red. masses --      6.7624                 5.6502                 1.2580
 Frc consts  --      3.0484                 2.9123                 0.6794
 IR Inten    --      1.8486                 0.1673                 8.7419

                     43                     44                     45
                      A                      A                      A
 Frequencies --    958.1105               993.2857              1069.5214
 Red. masses --      1.2749                 6.6266                 4.7594
 Frc consts  --      0.6895                 3.8521                 3.2076
 IR Inten    --      3.0196               381.5438                 4.2553

                     46                     47                     48
                      A                      A                      A
 Frequencies --   1083.2571              1087.4627              1091.0739
 Red. masses --      2.6099                 2.4667                 2.8308
 Frc consts  --      1.8044                 1.7187                 1.9855
 IR Inten    --    884.4899                 0.0563              1767.1666

                     49                     50                     51
                      A                      A                      A
 Frequencies --   1140.5294              1156.6229              1156.8126
 Red. masses --      2.2504                 1.2874                 1.2861
 Frc consts  --      1.7247                 1.0147                 1.0140
 IR Inten    --    266.0581                10.8130                21.9259

                     52                     53                     54
                      A                      A                      A
 Frequencies --   1163.4929              1171.6928              1177.6380
 Red. masses --      1.2739                 2.5202                 1.6188
 Frc consts  --      1.0161                 2.0385                 1.3227
 IR Inten    --      3.0365                 1.6073                70.4362

                     55                     56                     57
                      A                      A                      A
 Frequencies --   1195.4692              1202.8784              1223.8947
 Red. masses --      1.3596                 2.5620                 2.1963
 Frc consts  --      1.1448                 2.1841                 1.9383
 IR Inten    --      2.4085               228.8326               713.9418

                     58                     59                     60
                      A                      A                      A
 Frequencies --   1236.8877              1249.0335              1320.5385
 Red. masses --      3.7254                 3.9232                 4.1650
 Frc consts  --      3.3580                 3.6061                 4.2792
 IR Inten    --   1488.7604                 0.1230                12.3852

                     61                     62                     63
                      A                      A                      A
 Frequencies --   1340.7218              1363.1748              1381.9505
 Red. masses --      6.6380                 4.9047                 3.9223
 Frc consts  --      7.0302                 5.3699                 4.4135
 IR Inten    --     92.0452                10.4069               190.2820

                     64                     65                     66
                      A                      A                      A
 Frequencies --   1417.9878              1432.7411              1452.1766
 Red. masses --      2.6547                 4.3403                 2.6145
 Frc consts  --      3.1449                 5.2494                 3.2485
 IR Inten    --     22.7326                 3.2463                10.4779

                     67                     68                     69
                      A                      A                      A
 Frequencies --   1456.7117              1460.1534              1476.1213
 Red. masses --      1.1953                 1.4821                 1.0707
 Frc consts  --      1.4944                 1.8618                 1.3746
 IR Inten    --   4159.4800                 2.5863               199.6544

                     70                     71                     72
                      A                      A                      A
 Frequencies --   1476.6840              1485.1836              1490.9783
 Red. masses --      1.0520                 3.4169                 1.1663
 Frc consts  --      1.3515                 4.4406                 1.5276
 IR Inten    --     98.5824                 2.8937              1050.0610

                     73                     74                     75
                      A                      A                      A
 Frequencies --   1494.6474              1514.2557              1536.0347
 Red. masses --      1.1140                 3.3825                 4.8053
 Frc consts  --      1.4662                 4.5697                 6.6800
 IR Inten    --     14.2638              2218.1943              1731.4979

                     76                     77                     78
                      A                      A                      A
 Frequencies --   1552.0359              1592.4247              1594.3973
 Red. masses --      5.6164                 5.6235                 5.0296
 Frc consts  --      7.9709                 8.4018                 7.5331
 IR Inten    --     18.7362                 2.2746                16.4171

                     79                     80                     81
                      A                      A                      A
 Frequencies --   2938.5341              2938.7051              2980.6066
 Red. masses --      1.0376                 1.0377                 1.1023
 Frc consts  --      5.2789                 5.2799                 5.7697
 IR Inten    --      4.9347                55.8611                24.5440

                     82                     83                     84
                      A                      A                      A
 Frequencies --   2980.7716              3073.9580              3073.9654
 Red. masses --      1.1023                 1.0943                 1.0943
 Frc consts  --      5.7706                 6.0923                 6.0925
 IR Inten    --     28.0042                29.2037                 4.9513

                     85                     86                     87
                      A                      A                      A
 Frequencies --   3113.3686              3113.6819              3179.2432
 Red. masses --      1.0863                 1.0866                 1.0895
 Frc consts  --      6.2037                 6.2068                 6.4882
 IR Inten    --    210.7923                 1.0497                 3.7538

                     88                     89                     90
                      A                      A                      A
 Frequencies --   3179.2699              3182.1519              3182.2738
 Red. masses --      1.0895                 1.0903                 1.0904
 Frc consts  --      6.4882                 6.5046                 6.5060
 IR Inten    --      2.7435               113.1400                 7.0495

 - Thermochemistry -
 -------------------
 Temperature   298.150 Kelvin.  Pressure   1.00000 Atm.
 Atom     1 has atomic number  6 and mass  12.00000

 Molecular mass:   268.07356 amu.
 Principal axes and moments of inertia in atomic units:
                           1         2         3
     Eigenvalues --  2600.712037615.85110**********
           X            0.99989   0.01414  -0.00337
           Y           -0.01399   0.99902   0.04204
           Z            0.00396  -0.04199   0.99911
 This molecule is an asymmetric top.
 Rotational symmetry number  1.
 Warning -- assumption of classical behavior for rotation
           may cause significant error
 Rotational temperatures (Kelvin)      0.03330     0.01137     0.00850
 Rotational constants (GHZ):           0.69394     0.23697     0.17710
 Zero-point vibrational energy     623459.8 (Joules/Mol)
                                  149.01047 (Kcal/Mol)
 Warning -- explicit consideration of  27 degrees of freedom as
           vibrations may cause significant error
 Vibrational temperatures:     30.47    69.78    73.90   120.72   130.47
          (Kelvin)            215.00   225.64   277.74   290.17   332.78
                              394.55   419.86   436.22   444.61   457.95
                              507.78   534.51   544.18   570.31   584.11
                              675.11   699.16   730.38   776.64   815.32
                              830.82   892.37   901.58   938.19   990.07
                             1006.90  1043.78  1079.20  1099.86  1108.27
                             1139.59  1155.34  1188.64  1207.49  1258.51
                             1345.73  1377.46  1378.51  1429.12  1538.80
                             1558.57  1564.62  1569.81  1640.97  1664.12
                             1664.40  1674.01  1685.80  1694.36  1720.01
                             1730.67  1760.91  1779.61  1797.08  1899.96
                             1929.00  1961.30  1988.32  2040.17  2061.39
                             2089.36  2095.88  2100.84  2123.81  2124.62
                             2136.85  2145.19  2150.46  2178.68  2210.01
                             2233.03  2291.14  2293.98  4227.90  4228.14
                             4288.43  4288.67  4422.74  4422.75  4479.44
                             4479.89  4574.22  4574.26  4578.41  4578.58

 Zero-point correction=                           0.237463 (Hartree/Particle)
 Thermal correction to Energy=                    0.254276
 Thermal correction to Enthalpy=                  0.255220
 Thermal correction to Gibbs Free Energy=         0.192243
 Sum of electronic and zero-point Energies=           -917.768912
 Sum of electronic and thermal Energies=              -917.752100
 Sum of electronic and thermal Enthalpies=            -917.751156
 Sum of electronic and thermal Free Energies=         -917.814133

                     E (Thermal)             CV                S
                      KCal/Mol        Cal/Mol-Kelvin    Cal/Mol-Kelvin
 Total                  159.560             65.620            132.546
 Electronic               0.000              0.000              0.000
 Translational            0.889              2.981             42.657
 Rotational               0.889              2.981             33.667
 Vibrational            157.783             59.659             56.222
 Vibration     1          0.593              1.985              6.521
 Vibration     2          0.595              1.978              4.878
 Vibration     3          0.596              1.977              4.764
 Vibration     4          0.601              1.960              3.797
 Vibration     5          0.602              1.956              3.645
 Vibration     6          0.618              1.903              2.679
 Vibration     7          0.620              1.895              2.588
 Vibration     8          0.635              1.850              2.198
 Vibration     9          0.639              1.838              2.118
 Vibration    10          0.653              1.793              1.869
 Vibration    11          0.677              1.721              1.569
 Vibration    12          0.687              1.689              1.463
 Vibration    13          0.695              1.668              1.399
 Vibration    14          0.698              1.657              1.368
 Vibration    15          0.705              1.639              1.319
 Vibration    16          0.729              1.569              1.153
 Vibration    17          0.743              1.531              1.074
 Vibration    18          0.749              1.517              1.046
 Vibration    19          0.763              1.478              0.976
 Vibration    20          0.771              1.457              0.941
 Vibration    21          0.826              1.318              0.740
 Vibration    22          0.842              1.281              0.694
 Vibration    23          0.863              1.233              0.639
 Vibration    24          0.895              1.162              0.566
 Vibration    25          0.923              1.103              0.511
 Vibration    26          0.934              1.080              0.490
 Vibration    27          0.980              0.989              0.416

                           ! Non-Optimized Parameters !
 Normal termination of Gaussian 16 at Thu Dec 21 12:49:27 2023.
