 Gaussian 16, Revision A.03,
 Gaussian 16:  ES64L-G16RevA.03 25-Dec-2016

 ----------------------------------------------------------------------
 #P UB3LYP/6-311++G(d,p) nosym opt freq SCRF=(PCM,Solvent=n,n-DiMethylF
 ormamide)
 ----------------------------------------------------------------------

 --------
 Oxidized
 --------
 Symbolic Z-matrix:
 Charge =  0 Multiplicity = 1

 SCF Done:  E(UB3LYP) =  -2019.70907357     A.U. after   17 cycles
 SCF Done:  E(UB3LYP) =  -2019.70954066     A.U. after   17 cycles
 SCF Done:  E(UB3LYP) =  -2019.70905847     A.U. after   17 cycles
 SCF Done:  E(UB3LYP) =  -2019.71025062     A.U. after   15 cycles
 SCF Done:  E(UB3LYP) =  -2019.71019243     A.U. after   15 cycles
 SCF Done:  E(UB3LYP) =  -2019.71033397     A.U. after   15 cycles
 SCF Done:  E(UB3LYP) =  -2019.71033533     A.U. after   14 cycles
 SCF Done:  E(UB3LYP) =  -2019.71037887     A.U. after   13 cycles
 SCF Done:  E(UB3LYP) =  -2019.71038052     A.U. after   14 cycles
 SCF Done:  E(UB3LYP) =  -2019.71038683     A.U. after   13 cycles
 SCF Done:  E(UB3LYP) =  -2019.71040393     A.U. after   14 cycles
 SCF Done:  E(UB3LYP) =  -2019.71040539     A.U. after   13 cycles
 SCF Done:  E(UB3LYP) =  -2019.71040690     A.U. after   13 cycles
 SCF Done:  E(UB3LYP) =  -2019.71040817     A.U. after   14 cycles
 SCF Done:  E(UB3LYP) =  -2019.71040861     A.U. after   13 cycles
 SCF Done:  E(UB3LYP) =  -2019.71040885     A.U. after   12 cycles
 SCF Done:  E(UB3LYP) =  -2019.71040903     A.U. after   12 cycles
 SCF Done:  E(UB3LYP) =  -2019.71040913     A.U. after   11 cycles
 SCF Done:  E(UB3LYP) =  -2019.71040917     A.U. after   10 cycles
 Optimization completed.
    -- Stationary point found.
 Normal termination of Gaussian 16 at Sun Feb 11 05:24:32 2024.

 ----------------------------------------------------------------------
 #P Geom=AllCheck Guess=TCheck SCRF=Check GenChk UB3LYP/6-311++G(d,p) F
 req
 ----------------------------------------------------------------------

 Structure from the checkpoint file:  "074.chk"
 --------
 Oxidized
 --------
 Charge =  0 Multiplicity = 1

                          Input orientation:
 ---------------------------------------------------------------------
 Center     Atomic      Atomic             Coordinates (Angstroms)
 Number     Number       Type             X           Y           Z
 ---------------------------------------------------------------------
      1          6           0        0.607462    1.279631   -0.936075
      2          6           0       -0.769938    0.846006   -0.584744
      3          6           0       -1.058388   -0.408108   -0.180397
      4          6           0        0.103304   -1.369775   -0.022260
      5          6           0        1.523870   -0.958363   -0.353217
      6          6           0        1.724161    0.322643   -0.723995
      7          8           0        0.814751    2.387043   -1.399056
      8          8           0       -0.105168   -2.488271    0.398485
      9         16           0        3.390467    0.987313   -1.137791
     10          6           0        3.560091    2.516357   -0.206845
     11          6           0        3.588591    3.728884   -0.890071
     12          6           0        3.735499    2.439492    1.174753
     13          6           0        3.930721    3.619262    1.888896
     14          6           0        3.800867    4.898406   -0.163935
     15          6           0        3.966609    4.843728    1.220443
     16          8           0        3.412464    1.283228   -2.577062
     17          8           0        4.383123    0.046253   -0.597916
     18          1           0        3.447390    3.751992   -1.962095
     19          1           0        3.728547    1.483979    1.684251
     20          1           0        3.833927    5.850406   -0.679926
     21          1           0        4.065158    3.579179    2.963053
     22          1           0        4.126252    5.757777    1.780382
     23         16           0       -2.065246    2.119748   -0.880106
     24          6           0       -1.550344    3.576994    0.038215
     25          6           0       -1.153694    4.714703   -0.658973
     26          6           0       -1.636197    3.552265    1.430138
     27          6           0       -1.300675    4.703016    2.139371
     28          6           0       -0.836445    5.862432    0.063781
     29          6           0       -0.905888    5.854791    1.457317
     30          8           0       -2.071151    2.421431   -2.318151
     31          8           0       -3.308095    1.638052   -0.259460
     32          1           0       -1.096739    4.697886   -1.738906
     33          1           0       -1.963967    2.661671    1.951938
     34          1           0       -1.358495    4.701588    3.221102
     35          1           0       -0.533575    6.759723   -0.462317
     36          1           0       -0.653598    6.749679    2.014117
     37          6           0       -2.404884   -0.983530    0.142867
     38          6           0        2.548345   -2.042213   -0.198574
     39          1           0       -2.866623   -0.439820    0.968038
     40          1           0       -2.299087   -2.030834    0.411803
     41          1           0       -3.080012   -0.893403   -0.708599
     42          1           0        2.049573   -2.997522   -0.058414
     43          1           0        3.179021   -1.844159    0.671539
     44          1           0        3.208358   -2.090308   -1.062485
 ---------------------------------------------------------------------

 SCF Done:  E(UB3LYP) =  -2019.71040917     A.U. after    2 cycles

 Alpha  occ. eigenvalues --  -89.07621 -89.07619 -19.16889 -19.15837 -19.13910
 Alpha  occ. eigenvalues --  -19.13892 -19.13713 -19.13697 -10.31687 -10.31427
 Alpha  occ. eigenvalues --  -10.25835 -10.25818 -10.25394 -10.25390 -10.22872
 Alpha  occ. eigenvalues --  -10.22871 -10.20817 -10.20810 -10.20552 -10.20548
 Alpha  occ. eigenvalues --  -10.19933 -10.19931 -10.19790 -10.19785 -10.19720
 Alpha  occ. eigenvalues --  -10.19716 -10.18448 -10.18397  -8.13972  -8.13970
 Alpha  occ. eigenvalues --   -6.10231  -6.10230  -6.10171  -6.10168  -6.10074
 Alpha  occ. eigenvalues --   -6.10072  -1.13376  -1.13265  -1.10318  -1.09595
 Alpha  occ. eigenvalues --   -1.02749  -1.02729  -0.89786  -0.89035  -0.88980
 Alpha  occ. eigenvalues --   -0.85272  -0.79801  -0.79785  -0.77641  -0.77619
 Alpha  occ. eigenvalues --   -0.76815  -0.75350  -0.72074  -0.68733  -0.68446
 Alpha  occ. eigenvalues --   -0.63739  -0.63683  -0.63420  -0.63417  -0.60134
 Alpha  occ. eigenvalues --   -0.59643  -0.57036  -0.56193  -0.55394  -0.53120
 Alpha  occ. eigenvalues --   -0.51309  -0.50163  -0.49853  -0.49763  -0.49069
 Alpha  occ. eigenvalues --   -0.48794  -0.48517  -0.48197  -0.46923  -0.46840
 Alpha  occ. eigenvalues --   -0.46553  -0.46524  -0.45265  -0.45018  -0.45009
 Alpha  occ. eigenvalues --   -0.44767  -0.44027  -0.43692  -0.41859  -0.41076
 Alpha  occ. eigenvalues --   -0.40330  -0.39831  -0.39775  -0.39119  -0.39087
 Alpha  occ. eigenvalues --   -0.37379  -0.37367  -0.36691  -0.36271  -0.35136
 Alpha  occ. eigenvalues --   -0.34991  -0.33667  -0.33172  -0.32660  -0.32591
 Alpha  occ. eigenvalues --   -0.32396  -0.31798  -0.31296  -0.29126  -0.28753
 Alpha  occ. eigenvalues --   -0.28280  -0.28121  -0.27829
 Alpha virt. eigenvalues --   -0.15702  -0.07479  -0.06226  -0.04902  -0.03837
 Alpha virt. eigenvalues --   -0.03291  -0.03211  -0.01261  -0.00497   0.00075
 Alpha virt. eigenvalues --    0.00591   0.00826   0.01313   0.01754   0.02308

  Beta  occ. eigenvalues --  -89.07621 -89.07619 -19.16889 -19.15837 -19.13910
  Beta  occ. eigenvalues --  -19.13892 -19.13713 -19.13697 -10.31687 -10.31427
  Beta  occ. eigenvalues --  -10.25835 -10.25818 -10.25394 -10.25390 -10.22872
  Beta  occ. eigenvalues --  -10.22871 -10.20817 -10.20810 -10.20552 -10.20548
  Beta  occ. eigenvalues --  -10.19933 -10.19931 -10.19790 -10.19785 -10.19720
  Beta  occ. eigenvalues --  -10.19716 -10.18448 -10.18397  -8.13972  -8.13970
  Beta  occ. eigenvalues --   -6.10231  -6.10230  -6.10171  -6.10168  -6.10074
  Beta  occ. eigenvalues --   -6.10072  -1.13376  -1.13265  -1.10318  -1.09595
  Beta  occ. eigenvalues --   -1.02749  -1.02729  -0.89786  -0.89035  -0.88980
  Beta  occ. eigenvalues --   -0.85272  -0.79801  -0.79785  -0.77641  -0.77619
  Beta  occ. eigenvalues --   -0.76815  -0.75350  -0.72074  -0.68733  -0.68446
  Beta  occ. eigenvalues --   -0.63739  -0.63683  -0.63420  -0.63417  -0.60134
  Beta  occ. eigenvalues --   -0.59643  -0.57036  -0.56193  -0.55394  -0.53120
  Beta  occ. eigenvalues --   -0.51309  -0.50163  -0.49853  -0.49763  -0.49069
  Beta  occ. eigenvalues --   -0.48794  -0.48517  -0.48197  -0.46923  -0.46840
  Beta  occ. eigenvalues --   -0.46553  -0.46524  -0.45265  -0.45018  -0.45009
  Beta  occ. eigenvalues --   -0.44767  -0.44027  -0.43692  -0.41859  -0.41076
  Beta  occ. eigenvalues --   -0.40330  -0.39831  -0.39775  -0.39119  -0.39087
  Beta  occ. eigenvalues --   -0.37379  -0.37367  -0.36691  -0.36271  -0.35136
  Beta  occ. eigenvalues --   -0.34991  -0.33667  -0.33172  -0.32660  -0.32591
  Beta  occ. eigenvalues --   -0.32396  -0.31798  -0.31296  -0.29126  -0.28753
  Beta  occ. eigenvalues --   -0.28280  -0.28121  -0.27829
  Beta virt. eigenvalues --   -0.15702  -0.07479  -0.06226  -0.04902  -0.03837
  Beta virt. eigenvalues --   -0.03291  -0.03211  -0.01261  -0.00497   0.00075
  Beta virt. eigenvalues --    0.00591   0.00826   0.01313   0.01754   0.02308

 Mulliken charges and spin densities:
               1          2
     1  C   -0.141057   0.000000
     2  C   -0.373861  -0.000000
     3  C    0.665640  -0.000000
     4  C   -1.418906   0.000000
     5  C    0.689634  -0.000000
     6  C   -0.305822  -0.000000
     7  O   -0.117475   0.000000
     8  O   -0.170336  -0.000000
     9  S    0.770655   0.000000
    10  C    0.152582  -0.000000
    11  C   -0.167578   0.000000
    12  C    0.014066  -0.000000
    13  C   -0.495165   0.000000
    14  C   -0.374531   0.000000
    15  C   -0.328913  -0.000000
    16  O   -0.175581   0.000000
    17  O   -0.103209   0.000000
    18  H    0.258366   0.000000
    19  H    0.260250  -0.000000
    20  H    0.227683   0.000000
    21  H    0.228862   0.000000
    22  H    0.206667  -0.000000
    23  S    0.799331   0.000000
    24  C    0.253397  -0.000000
    25  C   -0.161858   0.000000
    26  C   -0.064105   0.000000
    27  C   -0.499644  -0.000000
    28  C   -0.371085   0.000000
    29  C   -0.339430   0.000000
    30  O   -0.180692  -0.000000
    31  O   -0.092529  -0.000000
    32  H    0.257153   0.000000
    33  H    0.254651   0.000000
    34  H    0.230031  -0.000000
    35  H    0.228166   0.000000
    36  H    0.206583   0.000000
    37  C   -0.556674  -0.000000
    38  C   -0.539788  -0.000000
    39  H    0.222063  -0.000000
    40  H    0.194122  -0.000000
    41  H    0.222329   0.000000
    42  H    0.189645   0.000000
    43  H    0.230680  -0.000000
    44  H    0.215681   0.000000
 Sum of Mulliken charges =  -0.00000   0.00000

 Dipole moment (field-independent basis, Debye):
    X=              1.0659    Y=              3.5627    Z=              9.1608  Tot=              9.8868
 Quadrupole moment (field-independent basis, Debye-Ang):
   XX=           -208.8866   YY=           -136.0891   ZZ=           -182.1545
   XY=             18.1308   XZ=              9.7592   YZ=             24.9409

  Exact polarizability: 327.611  40.168 520.429  -2.220 -12.760 356.226
 Approx polarizability: 351.772  52.664 611.331  -7.551 -55.314 454.608

                      1                      2                      3
                      A                      A                      A
 Frequencies --      6.5090                11.1576                12.6321
 Red. masses --      3.3558                 7.6159                 4.9446
 Frc consts  --      0.0001                 0.0006                 0.0005
 IR Inten    --      8.5401                 1.2956                 1.1175

                      4                      5                      6
                      A                      A                      A
 Frequencies --     17.5710                33.8406                35.7207
 Red. masses --      2.9436                 4.8637                 3.9077
 Frc consts  --      0.0005                 0.0033                 0.0029
 IR Inten    --      1.1176                 0.5598                 0.1570

                      7                      8                      9
                      A                      A                      A
 Frequencies --     37.0020                55.7509                80.2020
 Red. masses --      4.1932                 4.9940                 6.5933
 Frc consts  --      0.0034                 0.0091                 0.0250
 IR Inten    --      1.8093                 1.4975                 1.0237

                     10                     11                     12
                      A                      A                      A
 Frequencies --    110.5417               118.4334               126.2605
 Red. masses --      1.3452                 1.2783                 5.1876
 Frc consts  --      0.0097                 0.0106                 0.0487
 IR Inten    --      2.7102                 3.0898                 3.8251

                     13                     14                     15
                      A                      A                      A
 Frequencies --    161.2179               172.6496               181.6463
 Red. masses --      6.1667                 7.2067                 7.0937
 Frc consts  --      0.0944                 0.1266                 0.1379
 IR Inten    --      1.2417                 6.2809                13.7118

                     16                     17                     18
                      A                      A                      A
 Frequencies --    195.9324               200.5925               219.2763
 Red. masses --      6.9635                 7.2495                 6.9449
 Frc consts  --      0.1575                 0.1719                 0.1967
 IR Inten    --      1.6868                 0.5241                 2.7281

                     19                     20                     21
                      A                      A                      A
 Frequencies --    226.1328               243.4208               266.0571
 Red. masses --      6.5812                10.5954                 7.8951
 Frc consts  --      0.1983                 0.3699                 0.3293
 IR Inten    --      0.2546                 2.8708                 0.9176

                     22                     23                     24
                      A                      A                      A
 Frequencies --    268.8368               304.5648               308.2191
 Red. masses --      9.9902                 7.7084                 8.6552
 Frc consts  --      0.4254                 0.4213                 0.4844
 IR Inten    --      1.8618                 9.6634                 0.0081

                     25                     26                     27
                      A                      A                      A
 Frequencies --    335.7604               353.2234               379.7166
 Red. masses --      6.0478                 3.4347                 5.2194
 Frc consts  --      0.4017                 0.2525                 0.4434
 IR Inten    --      0.4341                 0.1490                24.3990

                     28                     29                     30
                      A                      A                      A
 Frequencies --    380.8238               407.6909               409.0363
 Red. masses --      5.2677                 2.8645                 2.8859
 Frc consts  --      0.4501                 0.2805                 0.2845
 IR Inten    --     16.1182                 0.2761                 0.5536

                     31                     32                     33
                      A                      A                      A
 Frequencies --    418.0277               435.6545               440.2673
 Red. masses --      5.2648                 8.6641                 6.5049
 Frc consts  --      0.5421                 0.9689                 0.7429
 IR Inten    --      6.0598                10.1152                11.3795

                     34                     35                     36
                      A                      A                      A
 Frequencies --    458.6174               462.9760               480.4025
 Red. masses --      6.2261                 6.0184                 6.3991
 Frc consts  --      0.7716                 0.7601                 0.8701
 IR Inten    --     13.3181                38.7302                 5.0345

                     37                     38                     39
                      A                      A                      A
 Frequencies --    503.3788               532.6070               540.8468
 Red. masses --      7.3225                10.4183                 7.0938
 Frc consts  --      1.0932                 1.7413                 1.2226
 IR Inten    --     56.0619               146.2289               212.2925

                     40                     41                     42
                      A                      A                      A
 Frequencies --    563.7246               588.6217               590.0262
 Red. masses --      5.8757                 8.3025                 6.8781
 Frc consts  --      1.1001                 1.6949                 1.4108
 IR Inten    --     11.2249               314.9185                79.8315

                     43                     44                     45
                      A                      A                      A
 Frequencies --    624.6448               624.8179               666.8293
 Red. masses --      6.4629                 6.4638                 8.5578
 Frc consts  --      1.4857                 1.4868                 2.2420
 IR Inten    --      0.0582                 0.6714                51.8685

                     46                     47                     48
                      A                      A                      A
 Frequencies --    696.9256               698.6244               707.9048
 Red. masses --      2.0892                 2.0794                 5.5089
 Frc consts  --      0.5979                 0.5980                 1.6265
 IR Inten    --     48.9083                93.6264                11.3380

                     49                     50                     51
                      A                      A                      A
 Frequencies --    709.5020               727.1767               729.9832
 Red. masses --      6.7166                 5.8332                 6.0888
 Frc consts  --      1.9921                 1.8173                 1.9116
 IR Inten    --     32.9530                34.0297               140.1952

                     52                     53                     54
                      A                      A                      A
 Frequencies --    760.9159               762.4259               803.7642
 Red. masses --      1.6087                 1.6634                 7.3242
 Frc consts  --      0.5488                 0.5697                 2.7878
 IR Inten    --      3.9219                73.8942                23.3359

                     55                     56                     57
                      A                      A                      A
 Frequencies --    835.1558               849.3262               851.1440
 Red. masses --      4.0280                 1.2498                 1.2474
 Frc consts  --      1.6553                 0.5312                 0.5324
 IR Inten    --     76.8030                 0.0747                 0.0762

                     58                     59                     60
                      A                      A                      A
 Frequencies --    942.0614               943.9598               962.4115
 Red. masses --      1.3364                 1.3350                 6.2340
 Frc consts  --      0.6988                 0.7009                 3.4020
 IR Inten    --      0.7602                 0.6311                66.1092

                     61                     62                     63
                      A                      A                      A
 Frequencies --    980.5756               995.0778               996.5831
 Red. masses --      3.9198                 1.3862                 1.3857
 Frc consts  --      2.2206                 0.8087                 0.8108
 IR Inten    --      9.6933                 0.3600                 0.3389

                     64                     65                     66
                      A                      A                      A
 Frequencies --   1011.9623              1012.2066              1018.8699
 Red. masses --      6.1723                 6.0924                 1.3211
 Frc consts  --      3.7242                 3.6777                 0.8080
 IR Inten    --     13.4173                16.5374                 0.0300

                     67                     68                     69
                      A                      A                      A
 Frequencies --   1020.0853              1029.0419              1034.7320
 Red. masses --      1.3198                 1.5119                 4.1425
 Frc consts  --      0.8091                 0.9433                 2.6132
 IR Inten    --      0.0571                 2.4474                67.6924

                     70                     71                     72
                      A                      A                      A
 Frequencies --   1035.7775              1046.7982              1057.0055
 Red. masses --      3.7602                 1.6545                 3.1055
 Frc consts  --      2.3768                 1.0682                 2.0443
 IR Inten    --     35.6833                11.0979               224.6216

                     73                     74                     75
                      A                      A                      A
 Frequencies --   1060.4685              1065.8213              1088.1917
 Red. masses --      3.2760                 1.6641                 2.7170
 Frc consts  --      2.1706                 1.1138                 1.8956
 IR Inten    --     82.7410                 0.7439                 0.0256

                     76                     77                     78
                      A                      A                      A
 Frequencies --   1099.2364              1100.0245              1103.1361
 Red. masses --      1.5680                 2.0162                 4.6297
 Frc consts  --      1.1163                 1.4375                 3.3194
 IR Inten    --     16.9535                85.0809               239.7565

                     79                     80                     81
                      A                      A                      A
 Frequencies --   1105.0536              1181.1571              1181.3939
 Red. masses --      2.7608                 1.1116                 1.1110
 Frc consts  --      1.9864                 0.9137                 0.9136
 IR Inten    --    145.9043                 0.2336                 0.4772

                     82                     83                     84
                      A                      A                      A
 Frequencies --   1192.9141              1195.0402              1198.0723
 Red. masses --      1.3263                 1.9105                 1.4938
 Frc consts  --      1.1120                 1.6075                 1.2633
 IR Inten    --     49.7584               107.9661                41.8991

                     85                     86                     87
                      A                      A                      A
 Frequencies --   1230.8757              1240.1302              1240.7545
 Red. masses --     12.6174                14.6670                14.7905
 Frc consts  --     11.2629                13.2901                13.4154
 IR Inten    --    401.5581               266.0619               346.6315

                     88                     89                     90
                      A                      A                      A
 Frequencies --   1285.7864              1330.1197              1331.0006
 Red. masses --      6.5742                 2.7473                 3.4223
 Frc consts  --      6.4037                 2.8638                 3.5721
 IR Inten    --     81.6460                 0.1487                 0.6149

                     91                     92                     93
                      A                      A                      A
 Frequencies --   1342.6519              1345.9058              1395.9422
 Red. masses --      1.9239                 1.6714                 1.1638
 Frc consts  --      2.0434                 1.7838                 1.3362
 IR Inten    --      7.8535                 7.2521                28.8943

                     94                     95                     96
                      A                      A                      A
 Frequencies --   1398.1049              1463.0866              1465.1498
 Red. masses --      1.1619                 1.0817                 1.1008
 Frc consts  --      1.3381                 1.3643                 1.3923
 IR Inten    --     20.6100                70.9656                 9.4547

                     97                     98                     99
                      A                      A                      A
 Frequencies --   1473.9451              1474.5073              1475.0124
 Red. masses --      1.0655                 1.0900                 1.9823
 Frc consts  --      1.3638                 1.3963                 2.5411
 IR Inten    --     15.3091                25.8644                 8.4938

                    100                    101                    102
                      A                      A                      A
 Frequencies --   1475.1110              1503.9391              1505.6330
 Red. masses --      2.1051                 2.0226                 2.0021
 Frc consts  --      2.6988                 2.6954                 2.6740
 IR Inten    --     39.4197                 4.7960                 5.2361

                    103                    104                    105
                      A                      A                      A
 Frequencies --   1616.2333              1616.5473              1622.7556
 Red. masses --      5.4046                 5.3626                 5.9758
 Frc consts  --      8.3181                 8.2567                 9.2716
 IR Inten    --      2.9549                 5.1792                 4.4816

                    106                    107                    108
                      A                      A                      A
 Frequencies --   1622.8650              1624.0838              1658.1019
 Red. masses --      5.8313                 9.3562                 9.9703
 Frc consts  --      9.0485                14.5401                16.1504
 IR Inten    --      0.2584                70.2414               134.4817

                    109                    110                    111
                      A                      A                      A
 Frequencies --   1703.1011              1723.5288              3059.4143
 Red. masses --     13.2282                12.7521                 1.0429
 Frc consts  --     22.6064                22.3187                 5.7513
 IR Inten    --    436.6428               487.4228                 0.0582

                    112                    113                    114
                      A                      A                      A
 Frequencies --   3066.0880              3120.6110              3124.4482
 Red. masses --      1.0369                 1.0990                 1.0909
 Frc consts  --      5.7430                 6.3057                 6.2746
 IR Inten    --      0.0814                 2.0178                 5.4861

                    115                    116                    117
                      A                      A                      A
 Frequencies --   3164.3373              3165.0843              3177.7912
 Red. masses --      1.1016                 1.1029                 1.0869
 Frc consts  --      6.4992                 6.5099                 6.4669
 IR Inten    --     12.0609                13.1087                 0.0364

                    118                    119                    120
                      A                      A                      A
 Frequencies --   3177.8298              3187.3121              3187.8219
 Red. masses --      1.0869                 1.0893                 1.0895
 Frc consts  --      6.4670                 6.5202                 6.5232
 IR Inten    --      1.2967                 8.2877                10.8781

                    121                    122                    123
                      A                      A                      A
 Frequencies --   3194.4457              3195.1432              3201.9668
 Red. masses --      1.0933                 1.0935                 1.0970
 Frc consts  --      6.5735                 6.5771                 6.6268
 IR Inten    --      9.1115                11.2245                10.1760

                    124                    125                    126
                      A                      A                      A
 Frequencies --   3203.2755              3215.4109              3215.9504
 Red. masses --      1.0964                 1.0938                 1.0937
 Frc consts  --      6.6282                 6.6631                 6.6644
 IR Inten    --      8.5214                 4.3430                 5.1711

 - Thermochemistry -
 -------------------
 Temperature   298.150 Kelvin.  Pressure   1.00000 Atm.
 Atom     1 has atomic number  6 and mass  12.00000

 Molecular mass:   416.03883 amu.
 Principal axes and moments of inertia in atomic units:
                           1         2         3
     Eigenvalues --  9492.90446********************
           X            0.97134   0.23726   0.01444
           Y           -0.23124   0.95725  -0.17377
           Z           -0.05505   0.16545   0.98468
 This molecule is an asymmetric top.
 Rotational symmetry number  1.
 Warning -- assumption of classical behavior for rotation
           may cause significant error
 Rotational temperatures (Kelvin)      0.00912     0.00803     0.00515
 Rotational constants (GHZ):           0.19011     0.16734     0.10729
 Zero-point vibrational energy     838607.2 (Joules/Mol)
                                  200.43193 (Kcal/Mol)
 Warning -- explicit consideration of  42 degrees of freedom as
           vibrations may cause significant error
 Vibrational temperatures:      9.36    16.05    18.17    25.28    48.69
          (Kelvin)             51.39    53.24    80.21   115.39   159.04
                              170.40   181.66   231.96   248.40   261.35
                              281.90   288.61   315.49   325.35   350.23
                              382.80   386.80   438.20   443.46   483.08
                              508.21   546.33   547.92   586.58   588.51
                              601.45   626.81   633.45   659.85   666.12
                              691.19   724.25   766.30   778.16   811.07
                              846.90   848.92   898.72   898.97   959.42
                             1002.72  1005.16  1018.52  1020.82  1046.25
                             1050.28  1094.79  1096.96  1156.44  1201.60
                             1221.99  1224.61  1355.42  1358.15  1384.70
                             1410.83  1431.70  1433.86  1455.99  1456.34
                             1465.93  1467.68  1480.56  1488.75  1490.25
                             1506.11  1520.80  1525.78  1533.48  1565.67
                             1581.56  1582.69  1587.17  1589.93  1699.42
                             1699.76  1716.34  1719.40  1723.76  1770.96
                             1784.27  1785.17  1849.96  1913.75  1915.01
                             1931.78  1936.46  2008.45  2011.56  2105.06
                             2108.02  2120.68  2121.49  2122.21  2122.36
                             2163.83  2166.27  2325.40  2325.85  2334.78
                             2334.94  2336.69  2385.64  2450.38  2479.77
                             4401.81  4411.42  4489.86  4495.38  4552.78
                             4553.85  4572.13  4572.19  4585.83  4586.56
                             4596.09  4597.10  4606.92  4608.80  4626.26
                             4627.04

 Zero-point correction=                           0.319409 (Hartree/Particle)
 Thermal correction to Energy=                    0.345676
 Thermal correction to Enthalpy=                  0.346621
 Thermal correction to Gibbs Free Energy=         0.256632
 Sum of electronic and zero-point Energies=          -2019.391001
 Sum of electronic and thermal Energies=             -2019.364733
 Sum of electronic and thermal Enthalpies=           -2019.363789
 Sum of electronic and thermal Free Energies=        -2019.453777

                     E (Thermal)             CV                S
                      KCal/Mol        Cal/Mol-Kelvin    Cal/Mol-Kelvin
 Total                  216.915             97.785            189.397
 Electronic               0.000              0.000              0.000
 Translational            0.889              2.981             43.967
 Rotational               0.889              2.981             35.797
 Vibrational            215.138             91.823            109.632
 Vibration     1          0.593              1.987              8.864
 Vibration     2          0.593              1.987              7.793
 Vibration     3          0.593              1.987              7.547
 Vibration     4          0.593              1.986              6.891
 Vibration     5          0.594              1.983              5.591
 Vibration     6          0.594              1.982              5.483
 Vibration     7          0.594              1.982              5.413
 Vibration     8          0.596              1.975              4.602
 Vibration     9          0.600              1.963              3.886
 Vibration    10          0.606              1.941              3.259
 Vibration    11          0.609              1.934              3.126
 Vibration    12          0.611              1.927              3.002
 Vibration    13          0.622              1.890              2.535
 Vibration    14          0.626              1.876              2.406
 Vibration    15          0.630              1.865              2.311
 Vibration    16          0.636              1.846              2.171
 Vibration    17          0.638              1.839              2.128
 Vibration    18          0.647              1.812              1.965
 Vibration    19          0.650              1.801              1.909
 Vibration    20          0.659              1.774              1.778
 Vibration    21          0.672              1.735              1.622
 Vibration    22          0.673              1.730              1.604
 Vibration    23          0.695              1.665              1.392
 Vibration    24          0.698              1.658              1.372
 Vibration    25          0.717              1.604              1.232
 Vibration    26          0.729              1.569              1.152
 Vibration    27          0.750              1.513              1.040
 Vibration    28          0.751              1.511              1.036
 Vibration    29          0.772              1.454              0.935
 Vibration    30          0.773              1.451              0.930
 Vibration    31          0.781              1.431              0.899
 Vibration    32          0.796              1.392              0.840
 Vibration    33          0.800              1.382              0.826
 Vibration    34          0.817              1.342              0.770
 Vibration    35          0.821              1.332              0.757
 Vibration    36          0.837              1.294              0.709
 Vibration    37          0.859              1.243              0.650
 Vibration    38          0.888              1.178              0.581
 Vibration    39          0.896              1.160              0.563
 Vibration    40          0.920              1.110              0.516
 Vibration    41          0.946              1.056              0.470
 Vibration    42          0.947              1.053              0.467

                           ! Non-Optimized Parameters !
 Normal termination of Gaussian 16 at Mon Feb 12 01:21:23 2024.
