 Q-Chem 5.4, Q-Chem, Inc., Pleasanton, CA (2021)
 Q-Chem 5.4.0 for Intel X86 EM64T Linux

User input:
--------------------------------------------------------------
$molecule
-1 2
C                 -1.5659660000     -1.5467150000     -0.6388920000
C                 -1.1726870000     -0.1385550000     -0.1295840000
C                 -1.5563800000     -0.0031230000      1.3641990000
C                 -2.0008850000      0.8925350000     -0.9202580000
C                  0.3429290000      0.0757560000     -0.3021370000
C                  0.8487710000      1.0824070000     -1.0815740000
C                  2.2548030000      1.3525040000     -1.2967350000
O                  2.6473060000      2.2951380000     -2.0262360000
C                  3.1589890000      0.4482840000     -0.6030400000
C                  2.6855260000     -0.5710290000      0.1859350000
Cl                 3.7858490000     -1.6585820000      1.0201860000
C                  1.2625170000     -0.8318990000      0.3938160000
O                  0.8762460000     -1.7773350000      1.1254570000
Cl                 4.8780140000      0.7291410000     -0.8278730000
H                 -1.0285870000     -2.3177020000     -0.0881060000
H                 -2.6443710000     -1.7048850000     -0.5146010000
H                 -1.3300330000     -1.6476130000     -1.7033400000
H                 -1.0190160000     -0.7349020000      1.9660970000
H                 -2.6348290000     -0.1582100000      1.4919090000
H                 -1.3132030000      0.9992410000      1.7316670000
H                 -3.0665950000      0.6953790000     -0.7628960000
H                 -1.8063210000      0.8352570000     -1.9951340000
H                 -1.7992610000      1.9164590000     -0.5925230000
H                  0.1971830000      1.7684470000     -1.6079290000
$end

$rem
BASIS  =  6-311++G(d,p)
GUI  =  2
JOB_TYPE  =  SP
METHOD  =  B3LYP
SCF_CONVERGENCE  = 8
SOLVENT_METHOD = sm12
$end

$smx
solvent dimethylformamide
charges CM5
$end

--------------------------------------------------------------

             Standard Nuclear Orientation (Angstroms)
    I     Atom           X                Y                Z
 ----------------------------------------------------------------
    1      C      -1.5659660000    -1.5467150000    -0.6388920000
    2      C      -1.1726870000    -0.1385550000    -0.1295840000
    3      C      -1.5563800000    -0.0031230000     1.3641990000
    4      C      -2.0008850000     0.8925350000    -0.9202580000
    5      C       0.3429290000     0.0757560000    -0.3021370000
    6      C       0.8487710000     1.0824070000    -1.0815740000
    7      C       2.2548030000     1.3525040000    -1.2967350000
    8      O       2.6473060000     2.2951380000    -2.0262360000
    9      C       3.1589890000     0.4482840000    -0.6030400000
   10      C       2.6855260000    -0.5710290000     0.1859350000
   11      Cl      3.7858490000    -1.6585820000     1.0201860000
   12      C       1.2625170000    -0.8318990000     0.3938160000
   13      O       0.8762460000    -1.7773350000     1.1254570000
   14      Cl      4.8780140000     0.7291410000    -0.8278730000
   15      H      -1.0285870000    -2.3177020000    -0.0881060000
   16      H      -2.6443710000    -1.7048850000    -0.5146010000
   17      H      -1.3300330000    -1.6476130000    -1.7033400000
   18      H      -1.0190160000    -0.7349020000     1.9660970000
   19      H      -2.6348290000    -0.1582100000     1.4919090000
   20      H      -1.3132030000     0.9992410000     1.7316670000
   21      H      -3.0665950000     0.6953790000    -0.7628960000
   22      H      -1.8063210000     0.8352570000    -1.9951340000
   23      H      -1.7992610000     1.9164590000    -0.5925230000
   24      H       0.1971830000     1.7684470000    -1.6079290000
 ----------------------------------------------------------------

   18   -1458.1887532871      4.25e-09  Convergence criterion met
 Total energy in the final basis set =    -1458.2635802848

                    Orbital Energies (a.u.)
 --------------------------------------------------------------

 Alpha MOs
 -- Occupied --
********-101.5486 -19.0817 -19.0816 -10.2347 -10.2322 -10.2319 -10.2305
-10.1956 -10.1839 -10.1704 -10.1634 -10.1592 -10.1591  -9.4638  -9.4626
 -7.2282  -7.2273  -7.2192  -7.2180  -7.2179  -7.2167  -1.0112  -1.0071
 -0.8905  -0.8422  -0.8399  -0.7958  -0.7238  -0.6941  -0.6886  -0.6817
 -0.6078  -0.5825  -0.5376  -0.5027  -0.4788  -0.4600  -0.4451  -0.4434
 -0.4349  -0.4319  -0.4110  -0.4058  -0.4009  -0.3818  -0.3814  -0.3808
 -0.3691  -0.3523  -0.3479  -0.3380  -0.3321  -0.3264  -0.3180  -0.2961
 -0.2806  -0.2482  -0.2481  -0.2430  -0.1675

 Beta MOs
 -- Occupied --
********-101.5486 -19.0746 -19.0743 -10.2334 -10.2312 -10.2306 -10.2291
-10.1957 -10.1829 -10.1695 -10.1634 -10.1591 -10.1591  -9.4637  -9.4626
 -7.2282  -7.2273  -7.2189  -7.2180  -7.2177  -7.2167  -0.9992  -0.9946
 -0.8876  -0.8410  -0.8379  -0.7927  -0.7217  -0.6919  -0.6884  -0.6739
 -0.6045  -0.5789  -0.5356  -0.5007  -0.4763  -0.4581  -0.4433  -0.4418
 -0.4341  -0.4198  -0.4041  -0.4026  -0.3947  -0.3811  -0.3787  -0.3718
 -0.3583  -0.3466  -0.3454  -0.3331  -0.3317  -0.3184  -0.3173  -0.2958
 -0.2521  -0.2415  -0.2399  -0.2366

          Ground-State Mulliken Net Atomic Charges

     Atom                 Charge (a.u.)    Spin (a.u.)
  --------------------------------------------------------
      1 C                    -0.531677       0.011852
      2 C                     1.160040      -0.028570
      3 C                    -0.531782       0.011828
      4 C                     0.273409       0.002306
      5 C                     0.011385       0.112048
      6 C                    -0.738975       0.066444
      7 C                    -1.728874       0.063844
      8 O                    -0.338401       0.263170
      9 C                     0.655056       0.096109
     10 C                    -0.174212       0.052736
     11 Cl                    0.611781       0.005526
     12 C                    -1.625070       0.081896
     13 O                    -0.234156       0.263406
     14 Cl                    0.560464       0.007023
     15 H                     0.096389      -0.001784
     16 H                     0.258221       0.000464
     17 H                     0.096847       0.000397
     18 H                     0.096438      -0.001780
     19 H                     0.258270       0.000471
     20 H                     0.096635       0.000396
     21 H                     0.315292       0.000153
     22 H                     0.135573      -0.000327
     23 H                     0.135942      -0.000323
     24 H                     0.141407      -0.007286
  --------------------------------------------------------
  Sum of atomic charges =    -1.000000

                    Cartesian Multipole Moments
 -----------------------------------------------------------------
    Charge (ESU x 10^10)
                -4.8032
    Dipole Moment (Debye)
         X     -11.5309      Y      -0.7341      Z       1.7836
       Tot      11.6911
    Quadrupole Moments (Debye-Ang)
        XX    -141.0326     XY      -8.8248     YY    -122.6776
        XZ       9.7829     YZ      15.9509     ZZ    -115.0817

 Total job time:  515.50s(wall), 3893.09s(cpu)
        *  Thank you very much for using Q-Chem.  Have a nice day.  *
