 Gaussian 16, Revision A.03,
 Gaussian 16:  ES64L-G16RevA.03 25-Dec-2016

 ----------------------------------------------------------------------
 #P UB3LYP/6-311++G(d,p) nosym opt freq SCRF=(PCM,Solvent=n,n-DiMethylF
 ormamide)
 ----------------------------------------------------------------------

 -------
 Reduced
 -------
 Symbolic Z-matrix:
 Charge = -2 Multiplicity = 1

 SCF Done:  E(UB3LYP) =  -1279.41765668     A.U. after   19 cycles
 SCF Done:  E(UB3LYP) =  -1279.42561237     A.U. after   15 cycles
 SCF Done:  E(UB3LYP) =  -1279.42654599     A.U. after   16 cycles
 SCF Done:  E(UB3LYP) =  -1279.42662850     A.U. after   15 cycles
 SCF Done:  E(UB3LYP) =  -1279.42662937     A.U. after   13 cycles
 SCF Done:  E(UB3LYP) =  -1279.42665341     A.U. after   13 cycles
 SCF Done:  E(UB3LYP) =  -1279.42665501     A.U. after   11 cycles
 SCF Done:  E(UB3LYP) =  -1279.42665518     A.U. after   10 cycles
 SCF Done:  E(UB3LYP) =  -1279.42665541     A.U. after   10 cycles
 SCF Done:  E(UB3LYP) =  -1279.42665570     A.U. after   10 cycles
 SCF Done:  E(UB3LYP) =  -1279.42665845     A.U. after   11 cycles
 SCF Done:  E(UB3LYP) =  -1279.42666038     A.U. after   11 cycles
 SCF Done:  E(UB3LYP) =  -1279.42666136     A.U. after   11 cycles
 SCF Done:  E(UB3LYP) =  -1279.42666169     A.U. after   11 cycles
 SCF Done:  E(UB3LYP) =  -1279.42666197     A.U. after   10 cycles
 SCF Done:  E(UB3LYP) =  -1279.42666209     A.U. after   10 cycles
 SCF Done:  E(UB3LYP) =  -1279.42666216     A.U. after   10 cycles
 SCF Done:  E(UB3LYP) =  -1279.42666221     A.U. after   10 cycles
 SCF Done:  E(UB3LYP) =  -1279.42666222     A.U. after    9 cycles
 Optimization completed.
    -- Stationary point found.
 Normal termination of Gaussian 16 at Sat Feb 17 18:11:55 2024.

 ----------------------------------------------------------------------
 #P Geom=AllCheck Guess=TCheck SCRF=Check GenChk UB3LYP/6-311++G(d,p) F
 req
 ----------------------------------------------------------------------

 Structure from the checkpoint file:  "297-an.chk"
 -------
 Reduced
 -------
 Charge = -2 Multiplicity = 1

                          Input orientation:
 ---------------------------------------------------------------------
 Center     Atomic      Atomic             Coordinates (Angstroms)
 Number     Number       Type             X           Y           Z
 ---------------------------------------------------------------------
      1          6           0       -0.862287    2.704369    0.417735
      2          6           0       -1.534955    2.925955   -0.764687
      3          6           0       -1.011429    2.428581   -1.983248
      4          6           0        0.363671    1.980225    0.459714
      5          6           0        0.899154    1.474704   -0.783140
      6          6           0        0.177546    1.722764   -1.973333
      7          6           0        1.042849    1.755767    1.695010
      8          6           0        2.236898    1.026481    1.618516
      9          6           0        2.794653    0.517440    0.416831
     10          6           0        2.150418    0.716332   -0.843528
     11          8           0        0.639164    2.171068    2.891165
     12          8           0        2.602186    0.270469   -1.964837
     13          8           0        2.844127    0.832031    2.839579
     14          1           0       -1.256948    3.081075    1.354825
     15          1           0       -2.468076    3.481685   -0.763526
     16          1           0       -1.540449    2.601163   -2.915012
     17          1           0        0.592068    1.333624   -2.896362
     18          1           0        2.199544    1.304057    3.423330
     19         16           0        4.361794   -0.326500    0.476223
     20          6           0        3.966336   -2.065575    0.693353
     21          6           0        2.661386   -2.556480    0.759873
     22          6           0        5.032123   -2.971571    0.803725
     23          6           0        2.430986   -3.922542    0.935397
     24          6           0        4.788600   -4.330356    0.977249
     25          6           0        3.482524   -4.836741    1.046842
     26          6           0        3.229750   -6.315051    1.226557
     27          1           0        1.828988   -1.867449    0.675580
     28          1           0        6.055373   -2.612035    0.756271
     29          1           0        1.406631   -4.279632    0.986636
     30          1           0        5.631504   -5.010048    1.062396
     31          1           0        3.784751   -6.714404    2.080773
     32          1           0        3.544218   -6.883588    0.344879
     33          1           0        2.169166   -6.517356    1.390209
 ---------------------------------------------------------------------

 SCF Done:  E(UB3LYP) =  -1279.42666222     A.U. after    2 cycles

 Alpha  occ. eigenvalues --  -88.83271 -19.11463 -19.02609 -19.02562 -10.19630
 Alpha  occ. eigenvalues --  -10.18933 -10.18715 -10.17622 -10.17116 -10.16968
 Alpha  occ. eigenvalues --  -10.16897 -10.16641 -10.16458 -10.16189 -10.15580
 Alpha  occ. eigenvalues --  -10.15410 -10.15019 -10.14851 -10.14844 -10.14716
 Alpha  occ. eigenvalues --  -10.14283  -7.91834  -5.88236  -5.87824  -5.87261
 Alpha  occ. eigenvalues --   -1.02788  -0.94283  -0.92000  -0.86011  -0.82992
 Alpha  occ. eigenvalues --   -0.79664  -0.77014  -0.74350  -0.73404  -0.72660
 Alpha  occ. eigenvalues --   -0.69499  -0.66166  -0.63824  -0.60684  -0.59111
 Alpha  occ. eigenvalues --   -0.58109  -0.56292  -0.54057  -0.50676  -0.49358
 Alpha  occ. eigenvalues --   -0.47387  -0.46448  -0.45095  -0.44567  -0.42841
 Alpha  occ. eigenvalues --   -0.42543  -0.41771  -0.41707  -0.40457  -0.40057
 Alpha  occ. eigenvalues --   -0.38853  -0.38296  -0.36996  -0.36788  -0.36237
 Alpha  occ. eigenvalues --   -0.35410  -0.35318  -0.34791  -0.33732  -0.33247
 Alpha  occ. eigenvalues --   -0.32138  -0.31179  -0.30020  -0.29654  -0.27416
 Alpha  occ. eigenvalues --   -0.25416  -0.23257  -0.22800  -0.21594  -0.20688
 Alpha  occ. eigenvalues --   -0.20459  -0.19595  -0.11977
 Alpha virt. eigenvalues --   -0.01380  -0.01268  -0.00736  -0.00235   0.00320
 Alpha virt. eigenvalues --    0.00708   0.01227   0.01624   0.01950   0.02712
 Alpha virt. eigenvalues --    0.03305   0.03563   0.04171   0.04339   0.04658

  Beta  occ. eigenvalues --  -88.83271 -19.11463 -19.02609 -19.02562 -10.19630
  Beta  occ. eigenvalues --  -10.18933 -10.18715 -10.17622 -10.17116 -10.16968
  Beta  occ. eigenvalues --  -10.16897 -10.16641 -10.16458 -10.16189 -10.15580
  Beta  occ. eigenvalues --  -10.15410 -10.15019 -10.14851 -10.14844 -10.14716
  Beta  occ. eigenvalues --  -10.14283  -7.91834  -5.88236  -5.87824  -5.87261
  Beta  occ. eigenvalues --   -1.02788  -0.94283  -0.92000  -0.86011  -0.82992
  Beta  occ. eigenvalues --   -0.79664  -0.77014  -0.74350  -0.73404  -0.72660
  Beta  occ. eigenvalues --   -0.69499  -0.66166  -0.63824  -0.60684  -0.59111
  Beta  occ. eigenvalues --   -0.58109  -0.56292  -0.54057  -0.50676  -0.49358
  Beta  occ. eigenvalues --   -0.47387  -0.46448  -0.45095  -0.44567  -0.42841
  Beta  occ. eigenvalues --   -0.42543  -0.41771  -0.41707  -0.40457  -0.40057
  Beta  occ. eigenvalues --   -0.38853  -0.38296  -0.36996  -0.36788  -0.36237
  Beta  occ. eigenvalues --   -0.35410  -0.35318  -0.34791  -0.33732  -0.33247
  Beta  occ. eigenvalues --   -0.32138  -0.31179  -0.30020  -0.29654  -0.27416
  Beta  occ. eigenvalues --   -0.25416  -0.23257  -0.22800  -0.21594  -0.20688
  Beta  occ. eigenvalues --   -0.20459  -0.19595  -0.11977
  Beta virt. eigenvalues --   -0.01380  -0.01268  -0.00736  -0.00235   0.00320
  Beta virt. eigenvalues --    0.00708   0.01227   0.01624   0.01950   0.02712
  Beta virt. eigenvalues --    0.03305   0.03563   0.04171   0.04339   0.04658

 Mulliken charges and spin densities:
               1          2
     1  C   -0.185821   0.000000
     2  C   -0.485532   0.000000
     3  C   -0.485253   0.000000
     4  C    0.405999  -0.000000
     5  C   -0.160628   0.000000
     6  C   -0.083598  -0.000000
     7  C   -0.882251  -0.000000
     8  C   -1.132696  -0.000000
     9  C    2.722484   0.000000
    10  C   -0.687103   0.000000
    11  O   -0.744296   0.000000
    12  O   -0.608106  -0.000000
    13  O   -0.277731   0.000000
    14  H    0.163868   0.000000
    15  H    0.158779  -0.000000
    16  H    0.160397   0.000000
    17  H    0.160416  -0.000000
    18  H    0.272154   0.000000
    19  S    0.216849  -0.000000
    20  C   -0.078852  -0.000000
    21  C   -0.476952   0.000000
    22  C   -0.038480  -0.000000
    23  C   -0.493551  -0.000000
    24  C   -0.562048  -0.000000
    25  C    0.406009   0.000000
    26  C   -0.520408   0.000000
    27  H    0.211044   0.000000
    28  H    0.179527  -0.000000
    29  H    0.187775   0.000000
    30  H    0.184258   0.000000
    31  H    0.155260   0.000000
    32  H    0.168454   0.000000
    33  H    0.150035   0.000000
 Sum of Mulliken charges =  -2.00000  -0.00000

 Dipole moment (field-independent basis, Debye):
    X=            -18.5279    Y=            -10.8184    Z=             -4.6412  Tot=             21.9513
 Quadrupole moment (field-independent basis, Debye-Ang):
   XX=           -194.1822   YY=           -155.2094   ZZ=           -187.1700
   XY=             -7.6561   XZ=              1.2069   YZ=            -18.4861

  Exact polarizability: 422.194-105.869 391.383  42.973 -20.815 368.690
 Approx polarizability: 477.194-101.100 403.747  45.695 -12.621 430.313

                      1                      2                      3
                      A                      A                      A
 Frequencies --     13.7769                24.6728                31.7626
 Red. masses --      1.0264                 6.5974                 5.7053
 Frc consts  --      0.0001                 0.0024                 0.0034
 IR Inten    --      0.2210                 3.2556                 3.2027

                      4                      5                      6
                      A                      A                      A
 Frequencies --     37.0272                92.2455               107.3016
 Red. masses --      3.8533                 8.4938                 4.4439
 Frc consts  --      0.0031                 0.0426                 0.0301
 IR Inten    --      0.0184                21.0399                 0.1546

                      7                      8                      9
                      A                      A                      A
 Frequencies --    113.7653               158.1333               184.8629
 Red. masses --      5.1963                 5.6539                 7.2412
 Frc consts  --      0.0396                 0.0833                 0.1458
 IR Inten    --      0.2290                 0.0727                 4.0687

                     10                     11                     12
                      A                      A                      A
 Frequencies --    203.5295               216.1762               267.9222
 Red. masses --      5.7984                 9.8823                 6.5539
 Frc consts  --      0.1415                 0.2721                 0.2772
 IR Inten    --      0.4270                13.4118                 4.5975

                     13                     14                     15
                      A                      A                      A
 Frequencies --    300.7341               301.5639               322.7698
 Red. masses --      4.8092                 5.7300                 6.1280
 Frc consts  --      0.2563                 0.3070                 0.3761
 IR Inten    --      0.8153                 6.5124                14.6679

                     16                     17                     18
                      A                      A                      A
 Frequencies --    345.6076               366.6171               374.3742
 Red. masses --      3.8626                10.3799                 5.9932
 Frc consts  --      0.2718                 0.8220                 0.4949
 IR Inten    --     14.2211                 5.5716                 0.3519

                     19                     20                     21
                      A                      A                      A
 Frequencies --    391.5084               417.0406               434.7892
 Red. masses --      9.4941                 2.9696                 5.5136
 Frc consts  --      0.8574                 0.3043                 0.6141
 IR Inten    --      9.1266                 0.0186                21.9542

                     22                     23                     24
                      A                      A                      A
 Frequencies --    435.5286               476.4713               492.9766
 Red. masses --      7.9175                 4.1919                 2.6321
 Frc consts  --      0.8849                 0.5607                 0.3769
 IR Inten    --      5.7405                10.1051                32.8890

                     25                     26                     27
                      A                      A                      A
 Frequencies --    507.3578               543.3444               580.4111
 Red. masses --     10.5060                 4.6542                 8.5317
 Frc consts  --      1.5934                 0.8095                 1.6934
 IR Inten    --      1.7910                 5.7718                40.1420

                     28                     29                     30
                      A                      A                      A
 Frequencies --    619.1793               650.1341               658.6593
 Red. masses --      5.6259                 6.9954                 6.8323
 Frc consts  --      1.2708                 1.7421                 1.7464
 IR Inten    --     10.5428                 3.4517                15.3710

                     31                     32                     33
                      A                      A                      A
 Frequencies --    687.4688               700.1005               705.9149
 Red. masses --      5.2002                 2.7260                 7.1959
 Frc consts  --      1.4480                 0.7872                 2.1127
 IR Inten    --      6.7007                88.0647                 3.3451

                     34                     35                     36
                      A                      A                      A
 Frequencies --    713.3837               740.4844               762.9138
 Red. masses --      3.6766                 1.2358                 2.0620
 Frc consts  --      1.1024                 0.3993                 0.7071
 IR Inten    --      1.6645               172.7027                17.1383

                     37                     38                     39
                      A                      A                      A
 Frequencies --    782.0566               804.0865               816.5013
 Red. masses --      3.2407                 4.9330                 1.4242
 Frc consts  --      1.1678                 1.8792                 0.5594
 IR Inten    --      8.4788                 6.6191                64.5184

                     40                     41                     42
                      A                      A                      A
 Frequencies --    823.1703               845.4159               853.3863
 Red. masses --      8.2246                 1.2521                 1.5297
 Frc consts  --      3.2836                 0.5273                 0.6564
 IR Inten    --    118.9062                 1.9817                 0.5123

                     43                     44                     45
                      A                      A                      A
 Frequencies --    881.0052               955.6644               969.6376
 Red. masses --      7.2812                 1.2624                 1.3634
 Frc consts  --      3.3297                 0.6793                 0.7553
 IR Inten    --    109.0125                 0.1581                 3.7840

                     46                     47                     48
                      A                      A                      A
 Frequencies --    977.9085               981.8421              1000.9568
 Red. masses --      1.2552                 1.3522                 5.0480
 Frc consts  --      0.7072                 0.7680                 2.9799
 IR Inten    --      0.1934                 0.1196               488.4463

                     49                     50                     51
                      A                      A                      A
 Frequencies --   1001.7758              1029.1182              1029.9201
 Red. masses --      1.6053                 3.0961                 2.0938
 Frc consts  --      0.9492                 1.9320                 1.3085
 IR Inten    --     61.0031                26.9730                36.7402

                     52                     53                     54
                      A                      A                      A
 Frequencies --   1059.3838              1078.5082              1091.0668
 Red. masses --      1.5169                 4.1181                 3.0021
 Frc consts  --      1.0030                 2.8222                 2.1056
 IR Inten    --      8.2134                58.1343                90.5136

                     55                     56                     57
                      A                      A                      A
 Frequencies --   1129.3672              1131.2534              1149.5613
 Red. masses --      1.5605                 1.7333                 2.5161
 Frc consts  --      1.1727                 1.3069                 1.9590
 IR Inten    --     29.3968                22.5285                96.3747

                     58                     59                     60
                      A                      A                      A
 Frequencies --   1165.6221              1197.6796              1222.1447
 Red. masses --      1.7586                 1.1555                 2.9452
 Frc consts  --      1.4078                 0.9765                 2.5919
 IR Inten    --     77.8133                 4.9649               357.7451

                     61                     62                     63
                      A                      A                      A
 Frequencies --   1226.3569              1241.9507              1306.1353
 Red. masses --      2.8867                 2.2074                 5.2562
 Frc consts  --      2.5579                 2.0060                 5.2832
 IR Inten    --      6.2463                40.7920                 7.2604

                     64                     65                     66
                      A                      A                      A
 Frequencies --   1320.4974              1329.1304              1332.2238
 Red. masses --      2.2119                 1.4445                 5.2757
 Frc consts  --      2.2724                 1.5035                 5.5168
 IR Inten    --    211.9727                 6.4291               189.5632

                     67                     68                     69
                      A                      A                      A
 Frequencies --   1392.7596              1408.6531              1420.2023
 Red. masses --      7.0464                 1.2490                 2.6579
 Frc consts  --      8.0532                 1.4602                 3.1586
 IR Inten    --   1682.7836                 1.6215                 8.0196

                     70                     71                     72
                      A                      A                      A
 Frequencies --   1422.9729              1428.5509              1459.6698
 Red. masses --      5.3621                 2.8347                 2.4483
 Frc consts  --      6.3971                 3.4083                 3.0735
 IR Inten    --     63.5513                97.1199               198.5310

                     73                     74                     75
                      A                      A                      A
 Frequencies --   1476.1133              1484.9619              1512.8835
 Red. masses --      1.0445                 1.1055                 4.3160
 Frc consts  --      1.3409                 1.4362                 5.8203
 IR Inten    --     10.4619                23.2909                86.1888

                     76                     77                     78
                      A                      A                      A
 Frequencies --   1515.3107              1528.0515              1587.5732
 Red. masses --      2.2884                 3.5552                 5.6503
 Frc consts  --      3.0959                 4.8909                 8.3905
 IR Inten    --    134.3850               607.8204               144.0703

                     79                     80                     81
                      A                      A                      A
 Frequencies --   1593.1721              1617.7032              1631.8739
 Red. masses --      5.6732                 5.7989                 5.6419
 Frc consts  --      8.4841                 8.9412                 8.8522
 IR Inten    --      4.4348                37.2576                35.2770

                     82                     83                     84
                      A                      A                      A
 Frequencies --   3017.5624              3064.4960              3096.7212
 Red. masses --      1.0382                 1.0993                 1.1005
 Frc consts  --      5.5697                 6.0826                 6.2182
 IR Inten    --     75.6342                32.0253                32.2264

                     85                     86                     87
                      A                      A                      A
 Frequencies --   3140.6337              3146.0826              3151.0120
 Red. masses --      1.0850                 1.0867                 1.0886
 Frc consts  --      6.3052                 6.3373                 6.3684
 IR Inten    --     18.8488                17.6647                32.5501

                     88                     89                     90
                      A                      A                      A
 Frequencies --   3157.2444              3163.1913              3172.2865
 Red. masses --      1.0890                 1.0940                 1.0921
 Frc consts  --      6.3956                 6.4492                 6.4752
 IR Inten    --     30.1097                48.2086                42.9249

                     91                     92                     93
                      A                      A                      A
 Frequencies --   3178.3457              3178.9052              3353.6248
 Red. masses --      1.0918                 1.0933                 1.0637
 Frc consts  --      6.4981                 6.5097                 7.0487
 IR Inten    --      9.2444                55.7536               261.9734

 - Thermochemistry -
 -------------------
 Temperature   298.150 Kelvin.  Pressure   1.00000 Atm.
 Atom     1 has atomic number  6 and mass  12.00000

 Molecular mass:   296.05072 amu.
 Principal axes and moments of inertia in atomic units:
                           1         2         3
     Eigenvalues --  3296.60694********************
           X           -0.52516   0.29088   0.79975
           Y            0.83744   0.34378   0.42487
           Z           -0.15136   0.89286  -0.42413
 This molecule is an asymmetric top.
 Rotational symmetry number  1.
 Warning -- assumption of classical behavior for rotation
           may cause significant error
 Rotational temperatures (Kelvin)      0.02627     0.00758     0.00718
 Rotational constants (GHZ):           0.54745     0.15803     0.14954
 Zero-point vibrational energy     634106.9 (Joules/Mol)
                                  151.55519 (Kcal/Mol)
 Warning -- explicit consideration of  28 degrees of freedom as
           vibrations may cause significant error
 Vibrational temperatures:     19.82    35.50    45.70    53.27   132.72
          (Kelvin)            154.38   163.68   227.52   265.98   292.83
                              311.03   385.48   432.69   433.88   464.39
                              497.25   527.48   538.64   563.29   600.03
                              625.56   626.63   685.54   709.28   729.97
                              781.75   835.08   890.86   935.40   947.66
                              989.11  1007.29  1015.65  1026.40  1065.39
                             1097.66  1125.21  1156.90  1174.76  1184.36
                             1216.36  1227.83  1267.57  1374.99  1395.09
                             1406.99  1412.65  1440.15  1441.33  1480.67
                             1481.83  1524.22  1551.73  1569.80  1624.91
                             1627.62  1653.96  1677.07  1723.19  1758.39
                             1764.45  1786.89  1879.24  1899.90  1912.32
                             1916.77  2003.87  2026.74  2043.35  2047.34
                             2055.37  2100.14  2123.80  2136.53  2176.70
                             2180.19  2198.53  2284.16  2292.22  2327.51
                             2347.90  4341.60  4409.13  4455.49  4518.67
                             4526.51  4533.60  4542.57  4551.13  4564.21
                             4572.93  4573.74  4825.12

 Zero-point correction=                           0.241519 (Hartree/Particle)
 Thermal correction to Energy=                    0.259524
 Thermal correction to Enthalpy=                  0.260469
 Thermal correction to Gibbs Free Energy=         0.192647
 Sum of electronic and zero-point Energies=          -1279.185144
 Sum of electronic and thermal Energies=             -1279.167138
 Sum of electronic and thermal Enthalpies=           -1279.166194
 Sum of electronic and thermal Free Energies=        -1279.234015

                     E (Thermal)             CV                S
                      KCal/Mol        Cal/Mol-Kelvin    Cal/Mol-Kelvin
 Total                  162.854             69.515            142.742
 Electronic               0.000              0.000              0.000
 Translational            0.889              2.981             42.953
 Rotational               0.889              2.981             34.473
 Vibrational            161.077             63.554             65.316
 Vibration     1          0.593              1.986              7.374
 Vibration     2          0.593              1.985              6.217
 Vibration     3          0.594              1.983              5.716
 Vibration     4          0.594              1.982              5.412
 Vibration     5          0.602              1.955              3.612
 Vibration     6          0.606              1.943              3.317
 Vibration     7          0.607              1.938              3.204
 Vibration     8          0.621              1.894              2.572
 Vibration     9          0.631              1.860              2.279
 Vibration    10          0.639              1.835              2.101
 Vibration    11          0.645              1.816              1.991
 Vibration    12          0.673              1.732              1.610
 Vibration    13          0.693              1.672              1.413
 Vibration    14          0.694              1.671              1.408
 Vibration    15          0.708              1.630              1.296
 Vibration    16          0.724              1.584              1.186
 Vibration    17          0.740              1.541              1.094
 Vibration    18          0.745              1.525              1.062
 Vibration    19          0.759              1.488              0.994
 Vibration    20          0.780              1.433              0.902
 Vibration    21          0.795              1.394              0.843
 Vibration    22          0.796              1.393              0.841
 Vibration    23          0.833              1.302              0.720
 Vibration    24          0.849              1.266              0.676
 Vibration    25          0.863              1.234              0.640
 Vibration    26          0.898              1.154              0.558
 Vibration    27          0.937              1.074              0.485
 Vibration    28          0.979              0.991              0.418

 Optimization completed.
    -- Stationary point found.
 Normal termination of Gaussian 16 at Sat Feb 17 20:37:38 2024.
