 Q-Chem 5.4, Q-Chem, Inc., Pleasanton, CA (2021)
 Q-Chem 5.4.0 for Intel X86 EM64T Linux

User input:
--------------------------------------------------------------
$molecule
0 1
C                 -2.8954240000     -1.9247480000     -0.1389350000
C                 -2.4074730000     -0.4995730000     -0.0504700000
C                 -3.3675080000      0.5144310000      0.0506580000
C                 -3.0209390000      1.8590730000      0.1370600000
C                 -1.6836820000      2.2279590000      0.1241260000
C                 -0.6959060000      1.2481710000      0.0247730000
C                  0.7255780000      1.7156620000      0.0165470000
O                  0.9983500000      2.9032400000      0.0932700000
C                  1.7926970000      0.6870310000     -0.0892060000
C                  3.1336720000      1.0852340000     -0.1006850000
C                  4.1408590000      0.1338410000     -0.1988200000
C                  3.8151470000     -1.2231820000     -0.2861920000
C                  2.4849790000     -1.6247800000     -0.2752700000
C                  1.4637970000     -0.6736090000     -0.1768270000
C                  0.0425700000     -1.1432120000     -0.1681560000
O                 -0.1957500000     -2.3393800000     -0.2459220000
C                 -1.0411590000     -0.1214080000     -0.0633470000
H                 -3.9868270000     -1.9428070000     -0.1094240000
H                 -2.5091610000     -2.5347990000      0.6796310000
H                 -2.5581110000     -2.4103390000     -1.0564090000
H                 -4.4153130000      0.2342420000      0.0612760000
H                 -3.7953110000      2.6140140000      0.2140950000
H                 -1.3780780000      3.2642440000      0.1895100000
H                  3.3592000000      2.1421560000     -0.0316520000
H                  5.1796400000      0.4438900000     -0.2075790000
H                  4.6021020000     -1.9649730000     -0.3627170000
H                  2.2120490000     -2.6703780000     -0.3419590000
$end

$rem
BASIS  =  6-311++G(d,p)
GUI  =  2
JOB_TYPE  =  SP
METHOD  =  B3LYP
SCF_CONVERGENCE  = 8
SOLVENT_METHOD = sm12
$end

$smx
solvent dimethylformamide
charges CM5
$end

--------------------------------------------------------------

             Standard Nuclear Orientation (Angstroms)
    I     Atom           X                Y                Z
 ----------------------------------------------------------------
    1      C      -2.8954240000    -1.9247480000    -0.1389350000
    2      C      -2.4074730000    -0.4995730000    -0.0504700000
    3      C      -3.3675080000     0.5144310000     0.0506580000
    4      C      -3.0209390000     1.8590730000     0.1370600000
    5      C      -1.6836820000     2.2279590000     0.1241260000
    6      C      -0.6959060000     1.2481710000     0.0247730000
    7      C       0.7255780000     1.7156620000     0.0165470000
    8      O       0.9983500000     2.9032400000     0.0932700000
    9      C       1.7926970000     0.6870310000    -0.0892060000
   10      C       3.1336720000     1.0852340000    -0.1006850000
   11      C       4.1408590000     0.1338410000    -0.1988200000
   12      C       3.8151470000    -1.2231820000    -0.2861920000
   13      C       2.4849790000    -1.6247800000    -0.2752700000
   14      C       1.4637970000    -0.6736090000    -0.1768270000
   15      C       0.0425700000    -1.1432120000    -0.1681560000
   16      O      -0.1957500000    -2.3393800000    -0.2459220000
   17      C      -1.0411590000    -0.1214080000    -0.0633470000
   18      H      -3.9868270000    -1.9428070000    -0.1094240000
   19      H      -2.5091610000    -2.5347990000     0.6796310000
   20      H      -2.5581110000    -2.4103390000    -1.0564090000
   21      H      -4.4153130000     0.2342420000     0.0612760000
   22      H      -3.7953110000     2.6140140000     0.2140950000
   23      H      -1.3780780000     3.2642440000     0.1895100000
   24      H       3.3592000000     2.1421560000    -0.0316520000
   25      H       5.1796400000     0.4438900000    -0.2075790000
   26      H       4.6021020000    -1.9649730000    -0.3627170000
   27      H       2.2120490000    -2.6703780000    -0.3419590000
 ----------------------------------------------------------------

   15    -728.2761213579      2.35e-09  Convergence criterion met
 Total energy in the final basis set =     -728.2961008683

                    Orbital Energies (a.u.)
 --------------------------------------------------------------

 Alpha MOs
 -- Occupied --
-19.1270 -19.1258 -10.2803 -10.2794 -10.2114 -10.2099 -10.2079 -10.2072
-10.2062 -10.1971 -10.1966 -10.1961 -10.1959 -10.1954 -10.1931 -10.1930
-10.1672  -1.0627  -1.0610  -0.8924  -0.8818  -0.8121  -0.7942  -0.7765
 -0.7684  -0.7097  -0.6816  -0.6598  -0.6422  -0.6062  -0.5754  -0.5594
 -0.5506  -0.5017  -0.4900  -0.4856  -0.4827  -0.4572  -0.4538  -0.4496
 -0.4440  -0.4387  -0.4270  -0.4256  -0.4104  -0.3963  -0.3847  -0.3820
 -0.3727  -0.3709  -0.3641  -0.3623  -0.2878  -0.2828  -0.2769  -0.2754
 -0.2694  -0.2679

          Ground-State Mulliken Net Atomic Charges

     Atom                 Charge (a.u.)
  ----------------------------------------
      1 C                    -0.107194
      2 C                     0.379111
      3 C                     0.659972
      4 C                     0.493442
      5 C                     0.042436
      6 C                    -0.239305
      7 C                    -1.619314
      8 O                    -0.257791
      9 C                    -0.511988
     10 C                     0.031227
     11 C                     0.421051
     12 C                     0.330310
     13 C                     0.216358
     14 C                    -0.420038
     15 C                    -1.624829
     16 O                    -0.213447
     17 C                     0.092184
     18 H                     0.215401
     19 H                     0.147102
     20 H                     0.147214
     21 H                     0.258337
     22 H                     0.346041
     23 H                     0.174955
     24 H                     0.188543
     25 H                     0.324471
     26 H                     0.326362
     27 H                     0.199389
  ----------------------------------------
  Sum of atomic charges =     0.000000

                    Cartesian Multipole Moments
 -----------------------------------------------------------------
    Charge (ESU x 10^10)
                 0.0000
    Dipole Moment (Debye)
         X      -0.4046      Y      -0.6287      Z      -0.0360
       Tot       0.7485
    Quadrupole Moments (Debye-Ang)
        XX     -69.6204     XY      -7.8780     YY    -106.5794
        XZ      -1.4555     YZ      -0.1035     ZZ    -101.0120

 Total job time:  566.51s(wall), 4433.12s(cpu)
        *  Thank you very much for using Q-Chem.  Have a nice day.  *
