 Gaussian 16, Revision A.03,
 Gaussian 16:  ES64L-G16RevA.03 25-Dec-2016

 ----------------------------------------------------------------
 #P UB3LYP/6-311++G(d,p) SCRF=(PCM,Solvent=n,n-DiMethylFormamide)
 ----------------------------------------------------------------

 -------
 Reduced
 -------
 Symbolic Z-matrix:
 Charge = -2 Multiplicity = 1

                         Standard orientation:
 ---------------------------------------------------------------------
 Center     Atomic      Atomic             Coordinates (Angstroms)
 Number     Number       Type             X           Y           Z
 ---------------------------------------------------------------------
      1          6           0       -2.664360    1.421810   -0.033636
      2          6           0       -2.281701    2.749157   -0.022059
      3          6           0       -0.900481    3.083561    0.017267
      4          6           0       -1.729818    0.357479   -0.008292
      5          6           0       -0.321861    0.708315    0.048419
      6          6           0        0.045902    2.075822    0.051819
      7          6           0       -2.216882   -1.015952   -0.033654
      8          6           0       -1.180402   -2.090975   -0.000983
      9          6           0        0.200868   -1.669248    0.062874
     10          6           0        0.618468   -0.350199    0.090132
     11          8           0       -3.452889   -1.284943   -0.082156
     12          8           0       -1.481512   -3.319773   -0.018306
     13          8           0        1.965703    0.040760    0.133820
     14          6           0        2.947318   -0.955772    0.027596
     15          6           0        4.321815   -0.366391   -0.078787
     16          6           0        4.621853    0.929282   -0.125499
     17          1           0       -3.711968    1.138859   -0.066772
     18          1           0       -3.032575    3.536637   -0.042682
     19          1           0       -0.587023    4.124982    0.023073
     20          1           0        1.101311    2.324319    0.084213
     21          1           0        0.914391   -2.485157    0.106264
     22          1           0        2.759963   -1.595621   -0.848725
     23          1           0        2.921350   -1.630101    0.903423
     24          1           0        5.123222   -1.106281   -0.112449
     25          1           0        3.843010    1.681317   -0.088278
     26          1           0        5.653594    1.261355   -0.196102
 ---------------------------------------------------------------------

 SCF Done:  E(UB3LYP) =  -727.475826633     A.U. after   19 cycles

 The electronic state is 1-A.
 Alpha  occ. eigenvalues --  -19.12774 -19.01735 -19.01269 -10.21851 -10.18650
 Alpha  occ. eigenvalues --  -10.17606 -10.16593 -10.16013 -10.15931 -10.14654
 Alpha  occ. eigenvalues --  -10.14286 -10.14200 -10.13896 -10.13787 -10.12822
 Alpha  occ. eigenvalues --  -10.12285  -1.04062  -0.95051  -0.92325  -0.82599
 Alpha  occ. eigenvalues --   -0.79046  -0.75874  -0.72190  -0.69138  -0.68656
 Alpha  occ. eigenvalues --   -0.63199  -0.58643  -0.56163  -0.55877  -0.52679
 Alpha  occ. eigenvalues --   -0.50090  -0.47388  -0.46690  -0.46235  -0.45237
 Alpha  occ. eigenvalues --   -0.42176  -0.40963  -0.40068  -0.39403  -0.38347
 Alpha  occ. eigenvalues --   -0.37294  -0.36273  -0.35480  -0.34587  -0.33440
 Alpha  occ. eigenvalues --   -0.33165  -0.32398  -0.31013  -0.30348  -0.28256
 Alpha  occ. eigenvalues --   -0.26327  -0.24286  -0.22495  -0.20811  -0.18610
 Alpha  occ. eigenvalues --   -0.17790  -0.10274
 Alpha virt. eigenvalues --   -0.00706  -0.00074   0.00369   0.00684   0.01377
 Alpha virt. eigenvalues --    0.02387   0.02628   0.02748   0.03610   0.03893
 Alpha virt. eigenvalues --    0.04613   0.05262   0.05821   0.06332   0.06589

  Beta  occ. eigenvalues --  -19.12774 -19.01735 -19.01269 -10.21851 -10.18650
  Beta  occ. eigenvalues --  -10.17606 -10.16593 -10.16013 -10.15931 -10.14654
  Beta  occ. eigenvalues --  -10.14286 -10.14200 -10.13896 -10.13787 -10.12822
  Beta  occ. eigenvalues --  -10.12285  -1.04062  -0.95051  -0.92325  -0.82599
  Beta  occ. eigenvalues --   -0.79046  -0.75874  -0.72190  -0.69138  -0.68656
  Beta  occ. eigenvalues --   -0.63199  -0.58643  -0.56163  -0.55877  -0.52679
  Beta  occ. eigenvalues --   -0.50090  -0.47388  -0.46690  -0.46235  -0.45237
  Beta  occ. eigenvalues --   -0.42176  -0.40963  -0.40068  -0.39403  -0.38347
  Beta  occ. eigenvalues --   -0.37294  -0.36273  -0.35480  -0.34587  -0.33440
  Beta  occ. eigenvalues --   -0.33165  -0.32398  -0.31013  -0.30348  -0.28256
  Beta  occ. eigenvalues --   -0.26327  -0.24286  -0.22495  -0.20811  -0.18610
  Beta  occ. eigenvalues --   -0.17790  -0.10274
  Beta virt. eigenvalues --   -0.00706  -0.00074   0.00369   0.00684   0.01377
  Beta virt. eigenvalues --    0.02387   0.02628   0.02748   0.03610   0.03893
  Beta virt. eigenvalues --    0.04613   0.05262   0.05821   0.06332   0.06589

 Mulliken charges and spin densities:
               1          2
     1  C    0.036463  -0.000000
     2  C   -0.527872   0.000000
     3  C   -0.407034   0.000000
     4  C    0.454237  -0.000000
     5  C    0.140086   0.000000
     6  C   -0.207999   0.000000
     7  C   -0.242556  -0.000000
     8  C   -0.270897   0.000000
     9  C    0.410169   0.000000
    10  C   -0.521498  -0.000000
    11  O   -0.694260   0.000000
    12  O   -0.674999   0.000000
    13  O   -0.183843   0.000000
    14  C    0.060406  -0.000000
    15  C   -0.273590   0.000000
    16  C   -0.631916  -0.000000
    17  H    0.142730   0.000000
    18  H    0.149344  -0.000000
    19  H    0.162020   0.000000
    20  H    0.103914  -0.000000
    21  H    0.170877  -0.000000
    22  H    0.154499  -0.000000
    23  H    0.150177   0.000000
    24  H    0.212047   0.000000
    25  H    0.127769  -0.000000
    26  H    0.161723  -0.000000
 Sum of Mulliken charges =  -2.00000  -0.00000

 Dipole moment (field-independent basis, Debye):
    X=             18.9142    Y=             11.5327    Z=              0.1329  Tot=             22.1533
 Quadrupole moment (field-independent basis, Debye-Ang):
   XX=           -154.1688   YY=           -152.6114   ZZ=           -106.6895
   XY=            -34.1322   XZ=             -1.5032   YZ=             -0.7959

 Normal termination of Gaussian 16 at Sat Jan 13 19:19:42 2024.
