 Q-Chem 5.4, Q-Chem, Inc., Pleasanton, CA (2021)
 Q-Chem 5.4.0 for Intel X86 EM64T Linux

User input:
--------------------------------------------------------------
$molecule
-2 1
C                 -0.5517180000      1.2122290000     -0.3737850000
C                 -1.4320750000      0.1506710000     -0.8330040000
C                 -1.2149010000     -1.1982220000     -0.6576990000
C                 -0.0339470000     -1.7035390000      0.0324930000
C                  0.8323790000     -0.6954400000      0.4857340000
C                  0.6427460000      0.7284230000      0.3233020000
O                 -0.8596910000      2.4259140000     -0.5955140000
O                  0.1477480000     -2.9865750000      0.1850350000
C                  1.6345560000      1.6400410000      0.8516380000
C                  2.8657810000      1.0242770000      1.5729870000
O                  1.6252830000      2.8867560000      0.7997670000
H                 -2.3274350000      0.4941710000     -1.3547160000
H                  3.4416370000      0.3658750000      0.9117310000
H                  2.5735850000      0.4256650000      2.4440110000
H                  3.4966180000      1.8554620000      1.8980320000
C                 -2.1952550000     -2.2198050000     -1.1753080000
H                  1.7165690000     -1.0561320000      1.0017700000
H                 -3.0463340000     -1.7396900000     -1.6748380000
H                 -2.5645680000     -2.8538540000     -0.3582500000
H                 -1.7056790000     -2.9095090000     -1.8758260000
$end
$rem
MAX_SCF_CYCLES=200
BASIS  =  6-311++G(d,p)
GUI  =  2
JOB_TYPE  =  SP
METHOD  =  B3LYP
SOLVENT_METHOD = COSMO
$end
$solvent
dielectric 37.219
opticaldielectric 1.43
$end

--------------------------------------------------------------

             Standard Nuclear Orientation (Angstroms)
    I     Atom           X                Y                Z
 ----------------------------------------------------------------
    1      C       0.3228672675    -1.3605648869     0.0001786708
    2      C      -1.1295692896    -1.4175207572     0.0002123447
    3      C      -1.9711505853    -0.3270394023    -0.0000157213
    4      C      -1.4600072114     1.0386454168    -0.0002248523
    5      C      -0.0579583548     1.1190863240    -0.0002056380
    6      C       0.8602031325     0.0025245758    -0.0000726817
    7      O       0.9954713437    -2.4397525814     0.0004510359
    8      O      -2.2792185025     2.0542025794    -0.0003731727
    9      C       2.2847242306     0.2567154750    -0.0001772468
   10      C       2.7508805085     1.7393218167     0.0010245206
   11      O       3.2068694986    -0.5839520534    -0.0012220842
   12      H      -1.5465975179    -2.4264472333     0.0003278843
   13      H       2.3883560962     2.2825318742     0.8818546449
   14      H       2.3903057767     2.2831615497    -0.8802369871
   15      H       3.8437804956     1.7325066816     0.0021421301
   16      C      -3.4689802037    -0.4977768982     0.0000843400
   17      H       0.3378702390     2.1297809059    -0.0003275503
   18      H      -3.7502728406    -1.5585535375    -0.0017790429
   19      H      -3.9173786176    -0.0019123800    -0.8711511297
   20      H      -3.9170993151    -0.0054013983     0.8735014024
 ----------------------------------------------------------------

   11    -573.5708672052      9.67e-06  Convergence criterion met
 Total energy in the final basis set =     -573.5708672052
    6    -573.8710754350      4.65e-06  Convergence criterion met
 Total energy in the final basis set =     -573.8710754350

                    Orbital Energies (a.u.)
 --------------------------------------------------------------

 Alpha MOs
 -- Occupied --
-19.0714 -19.0383 -19.0228 -10.2249 -10.1953 -10.1744 -10.1513 -10.1450
-10.1446 -10.1367 -10.1307 -10.1240  -0.9963  -0.9576  -0.9324  -0.7935
 -0.7493  -0.7022  -0.6675  -0.6515  -0.5709  -0.5490  -0.4874  -0.4507
 -0.4425  -0.4146  -0.4137  -0.4001  -0.3987  -0.3917  -0.3702  -0.3686
 -0.3584  -0.3513  -0.3380  -0.3293  -0.3195  -0.3181  -0.2397  -0.2375
 -0.2211  -0.2051  -0.1944  -0.1340

          Ground-State Mulliken Net Atomic Charges

     Atom                 Charge (a.u.)
  ----------------------------------------
      1 C                    -0.418707
      2 C                    -0.734977
      3 C                     1.050191
      4 C                    -0.691149
      5 C                    -1.132660
      6 C                     1.668307
      7 O                    -0.641538
      8 O                    -0.767178
      9 C                    -0.169893
     10 C                    -0.517351
     11 O                    -0.495988
     12 H                     0.131753
     13 H                     0.167026
     14 H                     0.166917
     15 H                     0.173999
     16 C                    -0.380808
     17 H                     0.120836
     18 H                     0.146513
     19 H                     0.162209
     20 H                     0.162500
  ----------------------------------------
  Sum of atomic charges =    -2.000000

                    Cartesian Multipole Moments
 -----------------------------------------------------------------
    Charge (ESU x 10^10)
                -9.6064
    Dipole Moment (Debye)
         X      -1.5617      Y       2.2912      Z       0.0034
       Tot       2.7728
    Quadrupole Moments (Debye-Ang)
        XX    -125.3093     XY      35.5221     YY    -117.6341
        XZ       0.0050     YZ       0.0061     ZZ     -78.1746

 Total job time:  25.40s(wall), 181.29s(cpu)
        *  Thank you very much for using Q-Chem.  Have a nice day.  *
