 Q-Chem 5.4, Q-Chem, Inc., Pleasanton, CA (2021)
 Q-Chem 5.4.0 for Intel X86 EM64T Linux

User input:
--------------------------------------------------------------
$molecule
-1 2
C                 -0.8835400000      3.8285090000     -0.0169550000
C                 -1.9762280000      3.0683200000      0.3579490000
C                 -1.8433790000      1.6748130000      0.5286520000
C                  0.3770540000      3.2323390000     -0.2326890000
C                  0.5096580000      1.8266460000     -0.0563150000
C                 -0.6154590000      1.0701900000      0.3212070000
C                  1.5117990000      4.0502860000     -0.6370930000
C                  2.7886810000      3.3754700000     -0.8540850000
C                  2.9169230000      2.0103610000     -0.6110690000
C                  1.7980060000      1.1697090000     -0.2603300000
O                  1.4294720000      5.3001570000     -0.8140870000
O                  1.9483100000     -0.0856500000     -0.1583190000
N                  3.7939080000      4.1736570000     -1.3530100000
H                 -0.9621440000      4.9003780000     -0.1578410000
H                 -2.9389230000      3.5443880000      0.5203280000
H                 -2.7022230000      1.0788080000      0.8224700000
H                 -0.4830360000      0.0013690000      0.4446380000
H                  3.5375450000      5.1529580000     -1.2881120000
H                  4.7359370000      3.9239050000     -1.0628270000
N                  4.0868180000      1.2295050000     -0.8139040000
H                  3.8043900000      0.2483140000     -0.8182460000
C                  5.4025350000      1.4884740000     -0.6457140000
C                  6.3169500000      0.2827160000     -0.8775960000
C                  7.4083570000      0.1736420000      0.1912670000
O                  5.8926180000      2.5868650000     -0.3600370000
H                  6.7811200000      0.4231990000     -1.8612780000
H                  5.7342730000     -0.6416480000     -0.9322340000
H                  7.9603840000      1.1123820000      0.2620800000
H                  8.1099900000     -0.6310850000     -0.0484550000
H                  6.9751340000     -0.0353560000      1.1736850000
$end

$rem
BASIS  =  6-311++G(d,p)
GUI  =  2
JOB_TYPE  =  SP
METHOD  =  B3LYP
SCF_CONVERGENCE  = 8
SOLVENT_METHOD = sm12
$end

$smx
solvent dimethylformamide
charges CM5
$end

--------------------------------------------------------------

             Standard Nuclear Orientation (Angstroms)
    I     Atom           X                Y                Z
 ----------------------------------------------------------------
    1      C      -0.8835400000     3.8285090000    -0.0169550000
    2      C      -1.9762280000     3.0683200000     0.3579490000
    3      C      -1.8433790000     1.6748130000     0.5286520000
    4      C       0.3770540000     3.2323390000    -0.2326890000
    5      C       0.5096580000     1.8266460000    -0.0563150000
    6      C      -0.6154590000     1.0701900000     0.3212070000
    7      C       1.5117990000     4.0502860000    -0.6370930000
    8      C       2.7886810000     3.3754700000    -0.8540850000
    9      C       2.9169230000     2.0103610000    -0.6110690000
   10      C       1.7980060000     1.1697090000    -0.2603300000
   11      O       1.4294720000     5.3001570000    -0.8140870000
   12      O       1.9483100000    -0.0856500000    -0.1583190000
   13      N       3.7939080000     4.1736570000    -1.3530100000
   14      H      -0.9621440000     4.9003780000    -0.1578410000
   15      H      -2.9389230000     3.5443880000     0.5203280000
   16      H      -2.7022230000     1.0788080000     0.8224700000
   17      H      -0.4830360000     0.0013690000     0.4446380000
   18      H       3.5375450000     5.1529580000    -1.2881120000
   19      H       4.7359370000     3.9239050000    -1.0628270000
   20      N       4.0868180000     1.2295050000    -0.8139040000
   21      H       3.8043900000     0.2483140000    -0.8182460000
   22      C       5.4025350000     1.4884740000    -0.6457140000
   23      C       6.3169500000     0.2827160000    -0.8775960000
   24      C       7.4083570000     0.1736420000     0.1912670000
   25      O       5.8926180000     2.5868650000    -0.3600370000
   26      H       6.7811200000     0.4231990000    -1.8612780000
   27      H       5.7342730000    -0.6416480000    -0.9322340000
   28      H       7.9603840000     1.1123820000     0.2620800000
   29      H       8.1099900000    -0.6310850000    -0.0484550000
   30      H       6.9751340000    -0.0353560000     1.1736850000
 ----------------------------------------------------------------

   17    -838.1302470963      9.99e-09  Convergence criterion met
 Total energy in the final basis set =     -838.2167934733

                    Orbital Energies (a.u.)
 --------------------------------------------------------------

 Alpha MOs
 -- Occupied --
-19.0974 -19.0814 -19.0804 -14.3505 -14.3111 -10.2797 -10.2288 -10.2245
-10.2146 -10.2045 -10.1814 -10.1806 -10.1805 -10.1802 -10.1798 -10.1786
-10.1780 -10.1616  -1.0453  -1.0090  -1.0057  -0.9378  -0.9084  -0.8642
 -0.7999  -0.7781  -0.7581  -0.7377  -0.6876  -0.6563  -0.6243  -0.6199
 -0.5874  -0.5702  -0.5414  -0.5186  -0.5100  -0.4958  -0.4792  -0.4637
 -0.4579  -0.4467  -0.4377  -0.4327  -0.4267  -0.4253  -0.4124  -0.4104
 -0.3936  -0.3848  -0.3741  -0.3672  -0.3658  -0.3590  -0.3473  -0.3453
 -0.3278  -0.3014  -0.2711  -0.2690  -0.2642  -0.2559  -0.2465  -0.2110
 -0.1508

 Beta MOs
 -- Occupied --
-19.0973 -19.0754 -19.0746 -14.3505 -14.3103 -10.2797 -10.2272 -10.2223
-10.2133 -10.2045 -10.1811 -10.1806 -10.1798 -10.1795 -10.1790 -10.1785
-10.1778 -10.1616  -1.0451  -1.0006  -0.9946  -0.9364  -0.9058  -0.8620
 -0.7965  -0.7772  -0.7560  -0.7363  -0.6816  -0.6528  -0.6224  -0.6189
 -0.5856  -0.5682  -0.5396  -0.5177  -0.5084  -0.4952  -0.4760  -0.4631
 -0.4572  -0.4444  -0.4329  -0.4320  -0.4247  -0.4234  -0.4057  -0.4042
 -0.3905  -0.3737  -0.3674  -0.3662  -0.3593  -0.3567  -0.3452  -0.3439
 -0.3132  -0.2969  -0.2700  -0.2564  -0.2514  -0.2506  -0.2407  -0.2030

          Ground-State Mulliken Net Atomic Charges

     Atom                 Charge (a.u.)    Spin (a.u.)
  --------------------------------------------------------
      1 C                    -0.009292       0.056037
      2 C                     1.047499       0.021026
      3 C                     0.849533       0.063568
      4 C                    -0.653291       0.026013
      5 C                    -0.633741       0.061470
      6 C                     0.167874       0.022883
      7 C                    -1.654420       0.131105
      8 C                    -0.246252       0.056285
      9 C                     0.331613       0.004392
     10 C                    -1.618018       0.084015
     11 O                    -0.346184       0.255843
     12 O                    -0.284339       0.187458
     13 N                    -0.370975       0.045213
     14 H                     0.153045      -0.003431
     15 H                     0.349990      -0.001714
     16 H                     0.350374      -0.004537
     17 H                     0.172627      -0.000501
     18 H                     0.289448      -0.003013
     19 H                     0.282104      -0.000007
     20 N                     0.038507      -0.003435
     21 H                     0.357393      -0.001943
     22 C                    -0.621508       0.001858
     23 C                     0.713203      -0.001686
     24 C                    -0.237067       0.000200
     25 O                    -0.408111       0.002121
     26 H                     0.206194       0.000497
     27 H                     0.250414       0.000351
     28 H                     0.143146      -0.000122
     29 H                     0.273822      -0.000195
     30 H                     0.106414       0.000250
  --------------------------------------------------------
  Sum of atomic charges =    -1.000000

                    Cartesian Multipole Moments
 -----------------------------------------------------------------
    Charge (ESU x 10^10)
                -4.8032
    Dipole Moment (Debye)
         X      -9.0955      Y     -14.8540      Z       2.0661
       Tot      17.5396
    Quadrupole Moments (Debye-Ang)
        XX    -139.1717     XY     -34.0022     YY    -176.1303
        XZ       1.7701     YZ      11.1550     ZZ    -115.3346

 Total job time:  849.14s(wall), 5959.08s(cpu)
        *  Thank you very much for using Q-Chem.  Have a nice day.  *
