 Gaussian 16, Revision A.03,
 Gaussian 16:  ES64L-G16RevA.03 25-Dec-2016

 ----------------------------------------------------------------------
 #P UB3LYP/6-311++G(d,p) nosym opt freq SCRF=(PCM,Solvent=n,n-DiMethylF
 ormamide)
 ----------------------------------------------------------------------

 -------
 Radical
 -------
 Symbolic Z-matrix:
 Charge = -1 Multiplicity = 2

 SCF Done:  E(UB3LYP) =  -839.165220311     A.U. after   18 cycles
 SCF Done:  E(UB3LYP) =  -839.165547135     A.U. after   14 cycles
 SCF Done:  E(UB3LYP) =  -839.165700456     A.U. after   15 cycles
 SCF Done:  E(UB3LYP) =  -839.165735099     A.U. after   13 cycles
 SCF Done:  E(UB3LYP) =  -839.165759041     A.U. after   12 cycles
 SCF Done:  E(UB3LYP) =  -839.165765424     A.U. after   12 cycles
 SCF Done:  E(UB3LYP) =  -839.165768855     A.U. after   11 cycles
 SCF Done:  E(UB3LYP) =  -839.165771155     A.U. after   11 cycles
 SCF Done:  E(UB3LYP) =  -839.165772733     A.U. after   11 cycles
 SCF Done:  E(UB3LYP) =  -839.165773465     A.U. after   11 cycles
 SCF Done:  E(UB3LYP) =  -839.165774543     A.U. after   10 cycles
 SCF Done:  E(UB3LYP) =  -839.165776538     A.U. after   11 cycles
 SCF Done:  E(UB3LYP) =  -839.165778760     A.U. after   11 cycles
 SCF Done:  E(UB3LYP) =  -839.165781148     A.U. after   13 cycles
 SCF Done:  E(UB3LYP) =  -839.165782537     A.U. after   12 cycles
 SCF Done:  E(UB3LYP) =  -839.165783080     A.U. after   12 cycles
 SCF Done:  E(UB3LYP) =  -839.165783260     A.U. after   11 cycles
 SCF Done:  E(UB3LYP) =  -839.165783290     A.U. after    8 cycles
 Optimization completed.
    -- Stationary point found.
 Normal termination of Gaussian 16 at Sat Feb 10 18:49:45 2024.

 ----------------------------------------------------------------------
 #P Geom=AllCheck Guess=TCheck SCRF=Check GenChk UB3LYP/6-311++G(d,p) F
 req
 ----------------------------------------------------------------------

 Structure from the checkpoint file:  "156-rad.chk"
 -------
 Radical
 -------
 Charge = -1 Multiplicity = 2

                          Input orientation:
 ---------------------------------------------------------------------
 Center     Atomic      Atomic             Coordinates (Angstroms)
 Number     Number       Type             X           Y           Z
 ---------------------------------------------------------------------
      1          6           0       -1.847580    1.910417   -5.149629
      2          6           0       -1.760692    0.594518   -5.557659
      3          6           0       -1.336050   -0.396733   -4.646567
      4          6           0       -1.516652    2.292405   -3.828318
      5          6           0       -1.090617    1.296283   -2.912547
      6          6           0       -1.009561   -0.045743   -3.351666
      7          6           0       -1.614848    3.692401   -3.434803
      8          6           0       -0.746478    1.628744   -1.534624
      9          6           0       -1.244545    4.041761   -2.073165
     10          6           0       -0.843677    3.014873   -1.125327
     11          6           0       -1.298054    5.407785   -1.644762
     12          6           0       -1.005608    5.715950   -0.315475
     13          6           0       -0.644278    4.738533    0.606485
     14          6           0       -0.545183    3.388421    0.236674
     15          8           0       -2.024123    4.551141   -4.288977
     16          8           0       -0.376291    0.689116   -0.746201
     17          7           0       -1.577272    6.448982   -2.529246
     18          7           0       -0.182170    2.443527    1.161282
     19          6           0        0.203080    2.744940    2.520195
     20          1           0       -2.170725    2.683925   -5.835015
     21          1           0       -2.017212    0.321119   -6.575649
     22          1           0       -1.267443   -1.431651   -4.964493
     23          1           0       -0.684245   -0.794410   -2.640214
     24          1           0       -1.053073    6.753517    0.001811
     25          1           0       -0.431121    5.033347    1.625678
     26          1           0       -2.002864    6.130993   -3.397012
     27          1           0       -1.973935    7.277279   -2.108687
     28          1           0       -0.098682    1.502471    0.781621
     29          1           0       -0.612766    3.206541    3.091320
     30          1           0        1.067860    3.420668    2.571856
     31          1           0        0.472954    1.812449    3.016592
 ---------------------------------------------------------------------

 SCF Done:  E(UB3LYP) =  -839.165783290     A.U. after    1 cycles

 Alpha  occ. eigenvalues --  -19.06954 -19.06919 -14.30639 -14.29768 -10.22036
 Alpha  occ. eigenvalues --  -10.22010 -10.20684 -10.20336 -10.19185 -10.17013
 Alpha  occ. eigenvalues --  -10.16966 -10.16939 -10.16878 -10.16861 -10.16803
 Alpha  occ. eigenvalues --  -10.16697 -10.16695 -10.16147 -10.15992  -0.99444
 Alpha  occ. eigenvalues --   -0.99151  -0.92396  -0.90285  -0.85444  -0.82212
 Alpha  occ. eigenvalues --   -0.77845  -0.74706  -0.73745  -0.72786  -0.67706
 Alpha  occ. eigenvalues --   -0.66050  -0.62991  -0.61795  -0.57803  -0.56060
 Alpha  occ. eigenvalues --   -0.53931  -0.52051  -0.50756  -0.48873  -0.47201
 Alpha  occ. eigenvalues --   -0.46252  -0.45746  -0.44749  -0.43800  -0.43015
 Alpha  occ. eigenvalues --   -0.42048  -0.41584  -0.40850  -0.40675  -0.39199
 Alpha  occ. eigenvalues --   -0.38284  -0.37842  -0.37250  -0.36929  -0.36502
 Alpha  occ. eigenvalues --   -0.34402  -0.33961  -0.33292  -0.32287  -0.26684
 Alpha  occ. eigenvalues --   -0.25465  -0.25319  -0.24311  -0.24079  -0.23274
 Alpha  occ. eigenvalues --   -0.18470  -0.13081
 Alpha virt. eigenvalues --   -0.04267  -0.01895  -0.00401   0.00285   0.00675
 Alpha virt. eigenvalues --    0.01437   0.01892   0.02035   0.03108   0.03602
 Alpha virt. eigenvalues --    0.03859   0.04288   0.05172   0.05464   0.05516

  Beta  occ. eigenvalues --  -19.06523 -19.06457 -14.30552 -14.29687 -10.21856
  Beta  occ. eigenvalues --  -10.21844 -10.20642 -10.20270 -10.19190 -10.16970
  Beta  occ. eigenvalues --  -10.16950 -10.16922 -10.16898 -10.16786 -10.16739
  Beta  occ. eigenvalues --  -10.16696 -10.16684 -10.16022 -10.15853  -0.98689
  Beta  occ. eigenvalues --   -0.98358  -0.92195  -0.90082  -0.85247  -0.82030
  Beta  occ. eigenvalues --   -0.77457  -0.74512  -0.73581  -0.72603  -0.67480
  Beta  occ. eigenvalues --   -0.65452  -0.62803  -0.61600  -0.57688  -0.55890
  Beta  occ. eigenvalues --   -0.53722  -0.51929  -0.50662  -0.48734  -0.46927
  Beta  occ. eigenvalues --   -0.46157  -0.45634  -0.44614  -0.43563  -0.42906
  Beta  occ. eigenvalues --   -0.42013  -0.40739  -0.40587  -0.40378  -0.39007
  Beta  occ. eigenvalues --   -0.38157  -0.37340  -0.36662  -0.36388  -0.35773
  Beta  occ. eigenvalues --   -0.34259  -0.33188  -0.32845  -0.31463  -0.25477
  Beta  occ. eigenvalues --   -0.24706  -0.24174  -0.23947  -0.23683  -0.22879
  Beta  occ. eigenvalues --   -0.17211
  Beta virt. eigenvalues --   -0.07942  -0.03345  -0.00908  -0.00386   0.00289
  Beta virt. eigenvalues --    0.00692   0.01904   0.01986   0.02070   0.03136
  Beta virt. eigenvalues --    0.03668   0.03872   0.04297   0.05223   0.05494

 Mulliken charges and spin densities:
               1          2
     1  C    0.057770   0.024345
     2  C   -0.594871   0.028471
     3  C   -0.564855   0.038541
     4  C    0.093888   0.028002
     5  C    0.154558   0.033040
     6  C   -0.016149   0.016573
     7  C   -0.379582   0.095636
     8  C   -0.153415   0.091604
     9  C    0.663847  -0.007516
    10  C    0.212043  -0.013042
    11  C    0.004849   0.057026
    12  C   -0.427878   0.095427
    13  C   -0.191711   0.106057
    14  C   -0.247758   0.033488
    15  O   -0.479784   0.167314
    16  O   -0.493017   0.157022
    17  N   -0.431236   0.035067
    18  N   -0.306028   0.039575
    19  C   -0.355404  -0.003567
    20  H    0.170128  -0.000952
    21  H    0.175312  -0.002574
    22  H    0.177716  -0.003114
    23  H    0.163385  -0.000514
    24  H    0.172286  -0.007459
    25  H    0.176548  -0.007709
    26  H    0.304128  -0.002833
    27  H    0.256518  -0.001389
    28  H    0.397408  -0.003714
    29  H    0.149819   0.003286
    30  H    0.152582   0.004054
    31  H    0.158904  -0.000146
 Sum of Mulliken charges =  -1.00000   1.00000

 Dipole moment (field-independent basis, Debye):
    X=              5.2451    Y=            -12.7915    Z=             13.7269  Tot=             19.4823
 Quadrupole moment (field-independent basis, Debye-Ang):
   XX=           -126.5486   YY=           -159.3609   ZZ=           -156.1490
   XY=             14.2441   XZ=            -16.2585   YZ=             51.9079

  Exact polarizability: 183.992 -20.318 473.650  83.854  80.736 499.958
 Approx polarizability: 208.072 -31.870 519.948  87.664  54.825 522.603

                      1                      2                      3
                      A                      A                      A
 Frequencies --     22.9710                49.4379                59.0539
 Red. masses --      3.2797                 7.4839                 5.2505
 Frc consts  --      0.0010                 0.0108                 0.0108
 IR Inten    --     19.2518                 6.3169                 0.0098

                      4                      5                      6
                      A                      A                      A
 Frequencies --    105.2847               128.8340               177.3415
 Red. masses --      3.7359                 4.8368                 7.0155
 Frc consts  --      0.0244                 0.0473                 0.1300
 IR Inten    --      1.6667                 0.5389                 1.2826

                      7                      8                      9
                      A                      A                      A
 Frequencies --    181.4203               214.6812               252.9272
 Red. masses --      3.7385                 1.1378                 3.9016
 Frc consts  --      0.0725                 0.0309                 0.1471
 IR Inten    --      5.7015                 0.2138                 9.9304

                     10                     11                     12
                      A                      A                      A
 Frequencies --    256.4959               325.2727               339.0520
 Red. masses --      5.0858                 5.0109                 4.7148
 Frc consts  --      0.1971                 0.3124                 0.3193
 IR Inten    --      3.6288                 6.7400                32.5739

                     13                     14                     15
                      A                      A                      A
 Frequencies --    350.5385               386.8109               410.2750
 Red. masses --      3.5330                 7.1283                 4.2201
 Frc consts  --      0.2558                 0.6284                 0.4185
 IR Inten    --     42.7033                24.5022                15.9904

                     16                     17                     18
                      A                      A                      A
 Frequencies --    414.7440               419.4123               436.7868
 Red. masses --      2.1347                 5.9595                 3.9148
 Frc consts  --      0.2163                 0.6176                 0.4400
 IR Inten    --    179.3144                12.5184                10.3593

                     19                     20                     21
                      A                      A                      A
 Frequencies --    442.3492               459.9763               496.9818
 Red. masses --      3.8312                 4.4583                 5.7782
 Frc consts  --      0.4417                 0.5558                 0.8409
 IR Inten    --    151.0480                29.8785                 5.2995

                     22                     23                     24
                      A                      A                      A
 Frequencies --    503.6586               551.7846               592.1686
 Red. masses --      4.5312                 5.6733                 2.6417
 Frc consts  --      0.6772                 1.0177                 0.5458
 IR Inten    --      3.8893                26.9611               115.2936

                     25                     26                     27
                      A                      A                      A
 Frequencies --    611.7760               623.0237               648.3882
 Red. masses --      1.4429                 2.5764                 4.0645
 Frc consts  --      0.3182                 0.5892                 1.0068
 IR Inten    --     57.3206                86.3280                 8.8361

                     28                     29                     30
                      A                      A                      A
 Frequencies --    664.0096               678.2499               718.3789
 Red. masses --      6.0741                 1.3953                 5.3776
 Frc consts  --      1.5779                 0.3782                 1.6351
 IR Inten    --     29.1536               255.3507                10.1945

                     31                     32                     33
                      A                      A                      A
 Frequencies --    726.2293               739.5618               764.4517
 Red. masses --      2.1310                 5.7118                 4.3199
 Frc consts  --      0.6622                 1.8406                 1.4874
 IR Inten    --    113.9665                 7.7973                21.0424

                     34                     35                     36
                      A                      A                      A
 Frequencies --    790.7003               798.6617               805.6714
 Red. masses --      1.8117                 5.6718                 1.9508
 Frc consts  --      0.6674                 2.1316                 0.7461
 IR Inten    --     74.1264                 0.2293                43.6759

                     37                     38                     39
                      A                      A                      A
 Frequencies --    858.5609               882.4941               897.0974
 Red. masses --      6.4007                 1.4781                 5.7460
 Frc consts  --      2.7799                 0.6782                 2.7246
 IR Inten    --     41.9667                 0.0409                73.7892

                     40                     41                     42
                      A                      A                      A
 Frequencies --    901.3714               949.9853               987.4663
 Red. masses --      1.4020                 5.4726                 1.3648
 Frc consts  --      0.6711                 2.9099                 0.7841
 IR Inten    --      4.0633                51.2891                 2.6550

                     43                     44                     45
                      A                      A                      A
 Frequencies --    998.7446              1029.6303              1051.6244
 Red. masses --      1.2811                 2.8999                 2.1774
 Frc consts  --      0.7529                 1.8113                 1.4188
 IR Inten    --      0.1015                90.6974                 1.8968

                     46                     47                     48
                      A                      A                      A
 Frequencies --   1099.0059              1110.4584              1143.4560
 Red. masses --      2.0525                 2.2549                 1.3015
 Frc consts  --      1.4606                 1.6383                 1.0026
 IR Inten    --     38.5633                92.5602                15.3990

                     49                     50                     51
                      A                      A                      A
 Frequencies --   1146.6415              1151.8514              1173.8565
 Red. masses --      1.4512                 1.4399                 2.3701
 Frc consts  --      1.1242                 1.1256                 1.9242
 IR Inten    --     46.5519                90.5103                17.4060

                     52                     53                     54
                      A                      A                      A
 Frequencies --   1194.8116              1197.8635              1231.9242
 Red. masses --      1.3551                 1.8546                 3.5692
 Frc consts  --      1.1398                 1.5679                 3.1914
 IR Inten    --    173.4977                36.2296                26.3918

                     55                     56                     57
                      A                      A                      A
 Frequencies --   1247.2543              1269.5382              1291.1964
 Red. masses --      2.2111                 2.8655                 3.1941
 Frc consts  --      2.0266                 2.7211                 3.1375
 IR Inten    --    151.0119                90.1702               108.5199

                     58                     59                     60
                      A                      A                      A
 Frequencies --   1324.6981              1354.4750              1365.9306
 Red. masses --      3.4315                 6.9607                 5.0215
 Frc consts  --      3.5479                 7.5240                 5.5201
 IR Inten    --    414.5772               127.5769                66.2607

                     61                     62                     63
                      A                      A                      A
 Frequencies --   1393.7873              1408.0972              1447.2012
 Red. masses --      3.1183                 3.8650                 3.0320
 Frc consts  --      3.5691                 4.5151                 3.7414
 IR Inten    --    769.5997               509.4933               144.4838

                     64                     65                     66
                      A                      A                      A
 Frequencies --   1457.2212              1473.7737              1474.6546
 Red. masses --      1.6745                 2.0650                 1.1052
 Frc consts  --      2.0950                 2.6426                 1.4160
 IR Inten    --    565.5381               170.8551                26.9946

                     67                     68                     69
                      A                      A                      A
 Frequencies --   1487.0146              1502.9728              1510.3180
 Red. masses --      2.7123                 3.5053                 1.0898
 Frc consts  --      3.5337                 4.6653                 1.4646
 IR Inten    --     54.4388               962.7298                 5.4558

                     70                     71                     72
                      A                      A                      A
 Frequencies --   1543.8208              1570.2198              1589.5707
 Red. masses --      2.4669                 2.6123                 1.8057
 Frc consts  --      3.4641                 3.7948                 2.6882
 IR Inten    --    289.8504               347.4302                81.5815

                     73                     74                     75
                      A                      A                      A
 Frequencies --   1593.0597              1623.1154              1627.1897
 Red. masses --      2.5018                 5.6855                 7.0141
 Frc consts  --      3.7408                 8.8250                10.9420
 IR Inten    --    439.6109                 1.7155               133.2907

                     76                     77                     78
                      A                      A                      A
 Frequencies --   2972.4953              3006.0862              3109.4754
 Red. masses --      1.0418                 1.1008                 1.0944
 Frc consts  --      5.4232                 5.8609                 6.2342
 IR Inten    --    311.6978                93.5969                37.0504

                     79                     80                     81
                      A                      A                      A
 Frequencies --   3148.9863              3157.1330              3172.0252
 Red. masses --      1.0885                 1.0861                 1.0913
 Frc consts  --      6.3597                 6.3784                 6.4692
 IR Inten    --     60.6714                16.2199                33.5693

                     82                     83                     84
                      A                      A                      A
 Frequencies --   3193.6902              3196.0847              3196.5242
 Red. masses --      1.0914                 1.0907                 1.0930
 Frc consts  --      6.5585                 6.5644                 6.5801
 IR Inten    --     14.1708                49.9957                28.2041

                     85                     86                     87
                      A                      A                      A
 Frequencies --   3402.8603              3426.1392              3621.6686
 Red. masses --      1.0812                 1.0578                 1.0904
 Frc consts  --      7.3762                 7.3160                 8.4268
 IR Inten    --    185.5789                88.2648                67.9325

 - Thermochemistry -
 -------------------
 Temperature   298.150 Kelvin.  Pressure   1.00000 Atm.
 Atom     1 has atomic number  6 and mass  12.00000

 Molecular mass:   252.08988 amu.
 Principal axes and moments of inertia in atomic units:
                           1         2         3
     Eigenvalues --  3047.891745445.717628478.26595
           X            0.17089  -0.24413   0.95457
           Y            0.48734   0.86295   0.13346
           Z            0.85633  -0.44240  -0.26644
 This molecule is an asymmetric top.
 Rotational symmetry number  1.
 Warning -- assumption of classical behavior for rotation
           may cause significant error
 Rotational temperatures (Kelvin)      0.02842     0.01590     0.01022
 Rotational constants (GHZ):           0.59213     0.33141     0.21287
 Zero-point vibrational energy     623927.2 (Joules/Mol)
                                  149.12218 (Kcal/Mol)
 Warning -- explicit consideration of  25 degrees of freedom as
           vibrations may cause significant error
 Vibrational temperatures:     33.05    71.13    84.97   151.48   185.36
          (Kelvin)            255.15   261.02   308.88   363.91   369.04
                              467.99   487.82   504.35   556.53   590.29
                              596.72   603.44   628.44   636.44   661.80
                              715.05   724.65   793.89   852.00   880.21
                              896.39   932.89   955.36   975.85  1033.59
                             1044.88  1064.06  1099.88  1137.64  1149.10
                             1159.18  1235.28  1269.71  1290.72  1296.87
                             1366.82  1420.74  1436.97  1481.41  1513.05
                             1581.22  1597.70  1645.18  1649.76  1657.26
                             1688.92  1719.07  1723.46  1772.46  1794.52
                             1826.58  1857.74  1905.95  1948.79  1965.27
                             2005.35  2025.94  2082.20  2096.62  2120.43
                             2121.70  2139.48  2162.44  2173.01  2221.21
                             2259.20  2287.04  2292.06  2335.30  2341.16
                             4276.76  4325.09  4473.84  4530.69  4542.41
                             4563.84  4595.01  4598.45  4599.09  4895.96
                             4929.45  5210.77

 Zero-point correction=                           0.237641 (Hartree/Particle)
 Thermal correction to Energy=                    0.253091
 Thermal correction to Enthalpy=                  0.254035
 Thermal correction to Gibbs Free Energy=         0.193785
 Sum of electronic and zero-point Energies=           -838.928142
 Sum of electronic and thermal Energies=              -838.912693
 Sum of electronic and thermal Enthalpies=            -838.911749
 Sum of electronic and thermal Free Energies=         -838.971999

                     E (Thermal)             CV                S
                      KCal/Mol        Cal/Mol-Kelvin    Cal/Mol-Kelvin
 Total                  158.817             61.960            126.807
 Electronic               0.000              0.000              1.377
 Translational            0.889              2.981             42.474
 Rotational               0.889              2.981             33.309
 Vibrational            157.039             55.998             49.647
 Vibration     1          0.593              1.985              6.359
 Vibration     2          0.595              1.978              4.840
 Vibration     3          0.596              1.974              4.489
 Vibration     4          0.605              1.945              3.354
 Vibration     5          0.611              1.924              2.963
 Vibration     6          0.628              1.870              2.356
 Vibration     7          0.630              1.865              2.314
 Vibration     8          0.645              1.819              2.004
 Vibration     9          0.664              1.758              1.710
 Vibration    10          0.666              1.752              1.686
 Vibration    11          0.709              1.625              1.283
 Vibration    12          0.719              1.597              1.217
 Vibration    13          0.727              1.574              1.164
 Vibration    14          0.755              1.498              1.012
 Vibration    15          0.774              1.448              0.926
 Vibration    16          0.778              1.438              0.910
 Vibration    17          0.782              1.428              0.894
 Vibration    18          0.797              1.390              0.837
 Vibration    19          0.802              1.378              0.819
 Vibration    20          0.818              1.339              0.766
 Vibration    21          0.853              1.257              0.666
 Vibration    22          0.859              1.242              0.649
 Vibration    23          0.907              1.136              0.540
 Vibration    24          0.950              1.048              0.463
 Vibration    25          0.971              1.007              0.430

 Optimization completed.
    -- Stationary point found.
 Normal termination of Gaussian 16 at Sat Feb 10 20:43:29 2024.
