 Gaussian 16, Revision A.03,
 Gaussian 16:  ES64L-G16RevA.03 25-Dec-2016

 --------------------------------------
 #P UB3LYP/6-311++G(d,p) nosym opt freq
 --------------------------------------

 -------
 Radical
 -------
 Symbolic Z-matrix:
 Charge = -1 Multiplicity = 2

 SCF Done:  E(UB3LYP) =  -993.960392397     A.U. after   23 cycles
 Optimization completed.
    -- Stationary point found.
 Normal termination of Gaussian 16 at Sat Jan  6 05:42:10 2024.

 ----------------------------------------------------------------------
 #P Geom=AllCheck Guess=TCheck SCRF=Check GenChk UB3LYP/6-311++G(d,p) F
 req
 ----------------------------------------------------------------------

 Structure from the checkpoint file:  "060-rad.chk"
 -------
 Radical
 -------
 Charge = -1 Multiplicity = 2

                          Input orientation:
 ---------------------------------------------------------------------
 Center     Atomic      Atomic             Coordinates (Angstroms)
 Number     Number       Type             X           Y           Z
 ---------------------------------------------------------------------
      1          6           0       -0.261056    1.056633    0.155706
      2          6           0       -1.417342    0.274246   -0.219947
      3          6           0       -1.330953   -1.048146   -0.544081
      4          6           0       -0.084862   -1.789859   -0.541766
      5          6           0        1.078129   -0.986569   -0.181035
      6          6           0        1.017666    0.347992    0.141363
      7          8           0       -0.340997    2.277663    0.466105
      8          8           0       -0.028228   -3.011335   -0.821983
      9          6           0        2.238355    1.155607    0.504596
     10          6           0        2.314415    1.624767    1.942676
     11          8           0        3.108641    1.415606   -0.300884
     12          1           0        2.351452    0.752857    2.604926
     13          1           0        1.408638    2.189572    2.174615
     14          1           0        3.203278    2.240925    2.087927
     15          1           0       -2.212585   -1.619309   -0.819421
     16         17           0        2.620870   -1.851429   -0.117688
     17          1           0       -2.368991    0.797401   -0.228709
 ---------------------------------------------------------------------

 SCF Done:  E(UB3LYP) =  -993.960392397     A.U. after    1 cycles

 Alpha  occ. eigenvalues -- -101.42185 -18.99793 -18.95480 -18.95387 -10.14943
 Alpha  occ. eigenvalues --  -10.10651 -10.10568 -10.10391 -10.06031 -10.05694
 Alpha  occ. eigenvalues --  -10.04980 -10.04775  -9.33639  -7.10072  -7.09172
 Alpha  occ. eigenvalues --   -7.09076  -0.93061  -0.88023  -0.87723  -0.74670
 Alpha  occ. eigenvalues --   -0.69205  -0.64818  -0.61012  -0.56352  -0.50327
 Alpha  occ. eigenvalues --   -0.45387  -0.41646  -0.36989  -0.35564  -0.34117
 Alpha  occ. eigenvalues --   -0.32894  -0.32005  -0.31047  -0.29289  -0.28640
 Alpha  occ. eigenvalues --   -0.28063  -0.26368  -0.25576  -0.25215  -0.24069
 Alpha  occ. eigenvalues --   -0.21794  -0.18418  -0.15900  -0.14378  -0.13215
 Alpha  occ. eigenvalues --   -0.12082  -0.11391  -0.04196
 Alpha virt. eigenvalues --    0.08230   0.09197   0.09883   0.11256   0.11990
 Alpha virt. eigenvalues --    0.12154   0.12744   0.14090   0.14740   0.15353
 Alpha virt. eigenvalues --    0.17043   0.17162   0.17743   0.17874   0.18613

  Beta  occ. eigenvalues -- -101.42181 -18.99780 -18.94764 -18.94621 -10.14949
  Beta  occ. eigenvalues --  -10.10480 -10.10465 -10.10309 -10.05928 -10.05692
  Beta  occ. eigenvalues --  -10.04878 -10.04670  -9.33635  -7.10077  -7.09150
  Beta  occ. eigenvalues --   -7.09073  -0.93027  -0.86770  -0.86446  -0.74343
  Beta  occ. eigenvalues --   -0.68770  -0.64659  -0.60856  -0.55384  -0.49983
  Beta  occ. eigenvalues --   -0.44992  -0.41430  -0.36806  -0.35355  -0.33821
  Beta  occ. eigenvalues --   -0.32706  -0.31910  -0.30885  -0.28703  -0.27649
  Beta  occ. eigenvalues --   -0.27278  -0.25786  -0.25249  -0.24294  -0.22632
  Beta  occ. eigenvalues --   -0.20647  -0.18371  -0.14221  -0.12933  -0.12079
  Beta  occ. eigenvalues --   -0.11393  -0.10770
  Beta virt. eigenvalues --    0.03078   0.08710   0.09204   0.09929   0.11823
  Beta virt. eigenvalues --    0.12161   0.12525   0.12790   0.14170   0.15250
  Beta virt. eigenvalues --    0.16356   0.17090   0.17775   0.17811   0.18094

 Mulliken charges and spin densities:
               1          2
     1  C   -1.143033   0.044648
     2  C    0.213568   0.094455
     3  C    0.081785   0.085515
     4  C   -0.927565   0.086904
     5  C    0.490719   0.080678
     6  C    0.953264   0.072682
     7  O   -0.379832   0.258246
     8  O   -0.340882   0.276910
     9  C   -0.357452   0.002328
    10  C   -0.512731   0.002784
    11  O   -0.249222   0.001920
    12  H    0.121815   0.000396
    13  H    0.204462  -0.001604
    14  H    0.133411   0.000540
    15  H    0.159443  -0.006903
    16  Cl   0.394845   0.008088
    17  H    0.157404  -0.007584
 Sum of Mulliken charges =  -1.00000   1.00000

 Dipole moment (field-independent basis, Debye):
    X=             -4.1809    Y=              1.5175    Z=              2.2978  Tot=              5.0062
 Quadrupole moment (field-independent basis, Debye-Ang):
   XX=            -95.5151   YY=           -115.2059   ZZ=            -80.5231
   XY=              0.1166   XZ=              5.2960   YZ=             -5.4340

  Exact polarizability: 146.439  -1.788 168.634   8.512  25.457  89.783
 Approx polarizability: 208.664 -14.541 296.877   0.412  42.738 135.382

                      1                      2                      3
                      A                      A                      A
 Frequencies --     48.1375                73.8320               113.9680
 Red. masses --      4.6154                 8.9393                 7.1898
 Frc consts  --      0.0063                 0.0287                 0.0550
 IR Inten    --      4.0133                 0.6839                 9.9464

                      4                      5                      6
                      A                      A                      A
 Frequencies --    134.6453               152.5315               179.7115
 Red. masses --      1.0502                 7.9710                 6.5736
 Frc consts  --      0.0112                 0.1093                 0.1251
 IR Inten    --      0.2294                 0.1523                 6.3286

                      7                      8                      9
                      A                      A                      A
 Frequencies --    233.9297               309.0099               317.3962
 Red. masses --     10.6769                 5.7957                 7.8608
 Frc consts  --      0.3442                 0.3261                 0.4666
 IR Inten    --      0.9625                 2.0261                 1.5984

                     10                     11                     12
                      A                      A                      A
 Frequencies --    339.3001               368.1075               445.6754
 Red. masses --     17.6889                 4.9476                 6.8664
 Frc consts  --      1.1998                 0.3950                 0.8036
 IR Inten    --      0.4946                 0.7083                 7.3373

                     13                     14                     15
                      A                      A                      A
 Frequencies --    484.4349               526.8063               561.8749
 Red. masses --      7.1723                 5.1769                 4.3731
 Frc consts  --      0.9917                 0.8465                 0.8134
 IR Inten    --      2.4298                 8.8897                 8.2179

                     16                     17                     18
                      A                      A                      A
 Frequencies --    592.0776               615.7686               642.9382
 Red. masses --      3.8325                 3.4267                 3.0072
 Frc consts  --      0.7916                 0.7655                 0.7324
 IR Inten    --     15.6255                 0.7457                 3.5763

                     19                     20                     21
                      A                      A                      A
 Frequencies --    727.0049               761.5623               825.5531
 Red. masses --      7.0525                 7.7155                 1.9736
 Frc consts  --      2.1962                 2.6365                 0.7925
 IR Inten    --     11.8919                 0.4126                37.6703

                     22                     23                     24
                      A                      A                      A
 Frequencies --    865.3848               917.7065               948.7843
 Red. masses --      5.8891                 7.5593                 1.2677
 Frc consts  --      2.5985                 3.7510                 0.6724
 IR Inten    --     67.8510                41.3147                 0.1817

                     25                     26                     27
                      A                      A                      A
 Frequencies --    987.6690              1019.2754              1089.6693
 Red. masses --      2.1045                 2.1255                 2.8291
 Frc consts  --      1.2096                 1.3010                 1.9792
 IR Inten    --     12.2691                43.9619                34.8593

                     28                     29                     30
                      A                      A                      A
 Frequencies --   1098.7050              1194.8410              1217.5013
 Red. masses --      1.9347                 2.0376                 3.5771
 Frc consts  --      1.3760                 1.7139                 3.1240
 IR Inten    --      5.6780                63.2449                32.9789

                     31                     32                     33
                      A                      A                      A
 Frequencies --   1315.9469              1362.3373              1405.0749
 Red. masses --      2.5533                 1.3348                 3.4706
 Frc consts  --      2.6052                 1.4596                 4.0370
 IR Inten    --     36.2224                68.2143                73.6827

                     34                     35                     36
                      A                      A                      A
 Frequencies --   1460.5103              1478.0743              1482.6813
 Red. masses --      1.0721                 1.1113                 6.3930
 Frc consts  --      1.3474                 1.4304                 8.2804
 IR Inten    --     15.3104                25.6126                63.3331

                     37                     38                     39
                      A                      A                      A
 Frequencies --   1507.1382              1540.2096              1631.6985
 Red. masses --      8.7446                 7.7429                 7.6880
 Frc consts  --     11.7030                10.8221                12.0599
 IR Inten    --     15.4888               425.6876                17.9321

                     40                     41                     42
                      A                      A                      A
 Frequencies --   1756.9726              3020.2310              3091.3760
 Red. masses --     10.9982                 1.0356                 1.0962
 Frc consts  --     20.0033                 5.5656                 6.1723
 IR Inten    --    244.4290                15.6986                17.2099

                     43                     44                     45
                      A                      A                      A
 Frequencies --   3122.1601              3143.1547              3164.4224
 Red. masses --      1.1047                 1.0853                 1.0951
 Frc consts  --      6.3445                 6.3174                 6.4607
 IR Inten    --     17.7467                14.2941                33.4677

 - Thermochemistry -
 -------------------
 Temperature   298.150 Kelvin.  Pressure   1.00000 Atm.
 Atom     1 has atomic number  6 and mass  12.00000

 Molecular mass:   183.99272 amu.
 Principal axes and moments of inertia in atomic units:
                           1         2         3
     Eigenvalues --  1711.356752167.966603588.99525
           X            0.32715   0.93537  -0.13436
           Y            0.89470  -0.35236  -0.27451
           Z            0.30411   0.03040   0.95215
 This molecule is an asymmetric top.
 Rotational symmetry number  1.
 Warning -- assumption of classical behavior for rotation
           may cause significant error
 Rotational temperatures (Kelvin)      0.05061     0.03995     0.02413
 Rotational constants (GHZ):           1.05457     0.83246     0.50285
 Zero-point vibrational energy     288753.3 (Joules/Mol)
                                   69.01371 (Kcal/Mol)
 Warning -- explicit consideration of  17 degrees of freedom as
           vibrations may cause significant error
 Vibrational temperatures:     69.26   106.23   163.97   193.72   219.46
          (Kelvin)            258.56   336.57   444.60   456.66   488.18
                              529.62   641.23   696.99   757.96   808.41
                              851.87   885.95   925.04  1046.00  1095.72
                             1187.79  1245.10  1320.37  1365.09  1421.04
                             1466.51  1567.79  1580.79  1719.11  1751.71
                             1893.35  1960.10  2021.59  2101.35  2126.62
                             2133.25  2168.44  2216.02  2347.65  2527.89
                             4345.44  4447.80  4492.09  4522.30  4552.90

 Zero-point correction=                           0.109980 (Hartree/Particle)
 Thermal correction to Energy=                    0.121059
 Thermal correction to Enthalpy=                  0.122003
 Thermal correction to Gibbs Free Energy=         0.071524
 Sum of electronic and zero-point Energies=           -993.850412
 Sum of electronic and thermal Energies=              -993.839334
 Sum of electronic and thermal Enthalpies=            -993.838390
 Sum of electronic and thermal Free Energies=         -993.888868

                     E (Thermal)             CV                S
                      KCal/Mol        Cal/Mol-Kelvin    Cal/Mol-Kelvin
 Total                   75.965             39.812            106.241
 Electronic               0.000              0.000              1.377
 Translational            0.889              2.981             41.535
 Rotational               0.889              2.981             30.966
 Vibrational             74.188             33.850             32.363
 Vibration     1          0.595              1.978              4.892
 Vibration     2          0.599              1.966              4.048
 Vibration     3          0.607              1.938              3.200
 Vibration     4          0.613              1.919              2.879
 Vibration     5          0.619              1.900              2.640
 Vibration     6          0.629              1.867              2.331
 Vibration     7          0.654              1.789              1.849
 Vibration     8          0.698              1.657              1.368
 Vibration     9          0.704              1.640              1.323
 Vibration    10          0.719              1.597              1.215
 Vibration    11          0.741              1.538              1.088
 Vibration    12          0.805              1.370              0.809
 Vibration    13          0.841              1.285              0.698
 Vibration    14          0.882              1.191              0.594
 Vibration    15          0.918              1.114              0.520
 Vibration    16          0.950              1.049              0.463
 Vibration    17          0.975              0.999              0.423

 Optimization completed.
    -- Stationary point found.
 Normal termination of Gaussian 16 at Sat Jan  6 05:49:37 2024.
