 Q-Chem 5.4, Q-Chem, Inc., Pleasanton, CA (2021)
 Q-Chem 5.4.0 for Intel X86 EM64T Linux

User input:
--------------------------------------------------------------
$molecule
-1 2
C                 -0.2610560000      1.0566330000      0.1557060000
C                 -1.4173420000      0.2742460000     -0.2199470000
C                 -1.3309530000     -1.0481460000     -0.5440810000
C                 -0.0848620000     -1.7898590000     -0.5417660000
C                  1.0781290000     -0.9865690000     -0.1810350000
C                  1.0176660000      0.3479920000      0.1413630000
O                 -0.3409970000      2.2776630000      0.4661050000
O                 -0.0282280000     -3.0113350000     -0.8219830000
C                  2.2383550000      1.1556070000      0.5045960000
C                  2.3144150000      1.6247670000      1.9426760000
O                  3.1086410000      1.4156060000     -0.3008840000
H                  2.3514520000      0.7528570000      2.6049260000
H                  1.4086380000      2.1895720000      2.1746150000
H                  3.2032780000      2.2409250000      2.0879270000
H                 -2.2125850000     -1.6193090000     -0.8194210000
Cl                 2.6208700000     -1.8514290000     -0.1176880000
H                 -2.3689910000      0.7974010000     -0.2287090000
$end
$rem
MAX_SCF_CYCLES=200
BASIS  =  6-311++G(d,p)
GUI  =  2
JOB_TYPE  =  SP
METHOD  =  B3LYP
SOLVENT_METHOD = PCM
$end
$pcm
theory = CPCM
$end
$solvent
dielectric 37.219
opticaldielectric 1.43
$end

--------------------------------------------------------------

             Standard Nuclear Orientation (Angstroms)
    I     Atom           X                Y                Z
 ----------------------------------------------------------------
    1      C      -0.2610560000     1.0566330000     0.1557060000
    2      C      -1.4173420000     0.2742460000    -0.2199470000
    3      C      -1.3309530000    -1.0481460000    -0.5440810000
    4      C      -0.0848620000    -1.7898590000    -0.5417660000
    5      C       1.0781290000    -0.9865690000    -0.1810350000
    6      C       1.0176660000     0.3479920000     0.1413630000
    7      O      -0.3409970000     2.2776630000     0.4661050000
    8      O      -0.0282280000    -3.0113350000    -0.8219830000
    9      C       2.2383550000     1.1556070000     0.5045960000
   10      C       2.3144150000     1.6247670000     1.9426760000
   11      O       3.1086410000     1.4156060000    -0.3008840000
   12      H       2.3514520000     0.7528570000     2.6049260000
   13      H       1.4086380000     2.1895720000     2.1746150000
   14      H       3.2032780000     2.2409250000     2.0879270000
   15      H      -2.2125850000    -1.6193090000    -0.8194210000
   16      Cl      2.6208700000    -1.8514290000    -0.1176880000
   17      H      -2.3689910000     0.7974010000    -0.2287090000
 ----------------------------------------------------------------

    9    -994.0418691870      5.10e-06  Convergence criterion met
 Total energy in the final basis set =     -994.0418691870

                    Orbital Energies (a.u.)
 --------------------------------------------------------------

 Alpha MOs
 -- Occupied --
******** -19.1280 -19.0929 -19.0922 -10.2770 -10.2402 -10.2400 -10.2384
-10.1922 -10.1768 -10.1748 -10.1655  -9.4687  -7.2330  -7.2241  -7.2231
 -1.0616  -1.0194  -1.0149  -0.8794  -0.8229  -0.7717  -0.7305  -0.6956
 -0.6308  -0.5844  -0.5441  -0.5010  -0.4845  -0.4693  -0.4540  -0.4431
 -0.4343  -0.4256  -0.4234  -0.4033  -0.3977  -0.3851  -0.3810  -0.3683
 -0.3514  -0.3176  -0.2928  -0.2751  -0.2626  -0.2603  -0.2505  -0.1776

 Beta MOs
 -- Occupied --
******** -19.1278 -19.0860 -19.0853 -10.2770 -10.2388 -10.2387 -10.2368
-10.1911 -10.1760 -10.1737 -10.1655  -9.4687  -7.2330  -7.2238  -7.2231
 -1.0612  -1.0074  -1.0029  -0.8763  -0.8185  -0.7696  -0.7293  -0.6856
 -0.6273  -0.5802  -0.5418  -0.4989  -0.4819  -0.4666  -0.4511  -0.4414
 -0.4330  -0.4173  -0.4111  -0.3995  -0.3890  -0.3789  -0.3728  -0.3597
 -0.3413  -0.3171  -0.2732  -0.2627  -0.2545  -0.2537  -0.2454

          Ground-State Mulliken Net Atomic Charges

     Atom                 Charge (a.u.)    Spin (a.u.)
  --------------------------------------------------------
      1 C                    -0.950807       0.064829
      2 C                     0.114676       0.092591
      3 C                    -0.022033       0.066143
      4 C                    -0.641513       0.125756
      5 C                     0.260503       0.072284
      6 C                     0.922907       0.080132
      7 O                    -0.458969       0.246734
      8 O                    -0.450812       0.248597
      9 C                    -0.263838       0.002774
     10 C                    -0.564287       0.002498
     11 O                    -0.325374       0.001898
     12 H                     0.170719       0.000446
     13 H                     0.205892      -0.001232
     14 H                     0.171223       0.000597
     15 H                     0.218070      -0.005449
     16 Cl                    0.396417       0.008544
     17 H                     0.217226      -0.007140
  --------------------------------------------------------
  Sum of atomic charges =    -1.000000

                    Cartesian Multipole Moments
 -----------------------------------------------------------------
    Charge (ESU x 10^10)
                -4.8032
    Dipole Moment (Debye)
         X      -4.5885      Y       1.8995      Z       3.3905
       Tot       6.0132
    Quadrupole Moments (Debye-Ang)
        XX     -92.5518     XY       0.6494     YY    -118.2766
        XZ       8.3638     YZ      -5.2056     ZZ     -78.5224

 Total job time:  24.79s(wall), 153.06s(cpu)
        *  Thank you very much for using Q-Chem.  Have a nice day.  *
