 Gaussian 16, Revision A.03,
 Gaussian 16:  ES64L-G16RevA.03 25-Dec-2016

 ----------------------------------------------------------------
 #P UB3LYP/6-311++G(d,p) SCRF=(PCM,Solvent=n,n-DiMethylFormamide)
 ----------------------------------------------------------------

 ------------------
 Quinone PCM in DMF
 ------------------
 Symbolic Z-matrix:
 Charge =  0 Multiplicity = 1

                         Standard orientation:
 ---------------------------------------------------------------------
 Center     Atomic      Atomic             Coordinates (Angstroms)
 Number     Number       Type             X           Y           Z
 ---------------------------------------------------------------------
      1          6           0       -5.758856   -4.062360    1.452664
      2          8           0       -4.842639   -3.044416    1.063360
      3          6           0       -5.307237   -1.903567    0.517560
      4          6           0       -6.673832   -1.676847    0.311160
      5          6           0       -7.116775   -0.486866   -0.255903
      6          6           0       -6.213320    0.497215   -0.627925
      7          6           0       -4.848456    0.291744   -0.430976
      8          6           0       -3.933667    1.407885   -0.858525
      9          8           0       -4.416882    2.409048   -1.360154
     10          6           0       -2.478150    1.227619   -0.646173
     11          6           0       -1.561257    2.233024   -0.978114
     12          8           0       -2.020445    3.400924   -1.496744
     13          6           0       -0.169594    2.038502   -0.778898
     14          6           0        0.775894    3.183470   -1.079410
     15          6           0        2.153294    3.085521   -0.381151
     16          8           0        3.031553    4.070795   -0.934264
     17          6           0        2.712899    1.677999   -0.581825
     18          6           0        1.788114    0.530197   -0.148591
     19          8           0        2.117902   -0.606906   -0.971709
     20          6           0        2.834240   -1.624971   -0.344703
     21          6           0        2.938507   -2.805046   -1.297044
     22          6           0        3.821423   -3.921004   -0.699265
     23          7           0        3.220253   -4.676179    0.411886
     24          6           0        5.172019   -3.330724   -0.253116
     25          8           0        5.892380   -3.038826   -1.451605
     26          6           0        4.958984   -2.092406    0.638400
     27          6           0        6.246060   -1.390371    1.047400
     28          8           0        4.135385   -1.121734   -0.013785
     29          6           0        0.307617    0.823425   -0.311910
     30          6           0       -0.609942   -0.181227    0.076866
     31          8           0       -0.104604   -1.293220    0.627495
     32          6           0       -1.997104    0.010587   -0.089817
     33          6           0       -2.910453   -1.072050    0.331122
     34          8           0       -2.442527   -2.106199    0.837274
     35          6           0       -4.365171   -0.901949    0.141429
     36          6           0        2.011841    3.452597    1.104364
     37          8           0        1.544501    2.670070    1.905835
     38          6           0        2.447927    4.830462    1.568080
     39          8           0        2.148118    5.032887    2.924958
     40          1           0       -5.142581   -4.861939    1.858956
     41          1           0       -6.325993   -4.439726    0.595647
     42          1           0       -6.448191   -3.706341    2.225006
     43          1           0       -7.396481   -2.429238    0.592979
     44          1           0       -8.179848   -0.334055   -0.405229
     45          1           0       -6.535607    1.429825   -1.070396
     46          1           0       -1.281861    3.973584   -1.725280
     47          1           0        0.326417    4.144518   -0.801782
     48          1           0        0.980034    3.236286   -2.157585
     49          1           0        3.334627    3.769418   -1.797548
     50          1           0        3.680715    1.568260   -0.090493
     51          1           0        2.883859    1.550933   -1.657426
     52          1           0        1.968202    0.277101    0.898068
     53          1           0        2.330267   -1.901747    0.594310
     54          1           0        1.936818   -3.185642   -1.513222
     55          1           0        3.381065   -2.443739   -2.228630
     56          1           0        4.049717   -4.646051   -1.483945
     57          1           0        2.746620   -4.072120    1.075524
     58          1           0        2.523255   -5.323723    0.061058
     59          1           0        5.696931   -4.093191    0.335776
     60          1           0        6.713929   -2.591004   -1.229284
     61          1           0        4.449937   -2.444103    1.551103
     62          1           0        6.924666   -2.087004    1.547236
     63          1           0        6.025816   -0.572471    1.735931
     64          1           0        6.752257   -0.958543    0.179072
     65          1           0       -0.892700   -1.867870    0.846137
     66          1           0        3.525018    4.925078    1.380094
     67          1           0        1.962028    5.592001    0.945065
     68          1           0        1.777347    4.200218    3.256163
 ---------------------------------------------------------------------

 SCF Done:  E(UB3LYP) =  -1929.10792995     A.U. after   15 cycles

 The electronic state is 1-A.
 Alpha  occ. eigenvalues --  -19.17461 -19.17294 -19.15507 -19.15120 -19.15059
 Alpha  occ. eigenvalues --  -19.14382 -19.13732 -19.13330 -19.13304 -19.13290
 Alpha  occ. eigenvalues --  -19.12153 -14.30236 -10.28994 -10.28804 -10.27955
 Alpha  occ. eigenvalues --  -10.27425 -10.26871 -10.26810 -10.26717 -10.26345
 Alpha  occ. eigenvalues --  -10.24764 -10.23758 -10.23156 -10.22909 -10.22551
 Alpha  occ. eigenvalues --  -10.22001 -10.21083 -10.20978 -10.20974 -10.20940
 Alpha  occ. eigenvalues --  -10.20930 -10.20910 -10.20861 -10.20047 -10.19514
 Alpha  occ. eigenvalues --  -10.18846 -10.18841 -10.16976 -10.16855  -1.09555
 Alpha  occ. eigenvalues --   -1.09383  -1.09233  -1.08929  -1.08231  -1.05856
 Alpha  occ. eigenvalues --   -1.05710  -1.05435  -1.03941  -1.03830  -1.01985
 Alpha  occ. eigenvalues --   -0.89776  -0.89557  -0.88394  -0.84854  -0.80601
 Alpha  occ. eigenvalues --   -0.80064  -0.78496  -0.77889  -0.77691  -0.76923
 Alpha  occ. eigenvalues --   -0.75521  -0.74394  -0.71930  -0.70846  -0.69211
 Alpha  occ. eigenvalues --   -0.68406  -0.66833  -0.65226  -0.63926  -0.62725
 Alpha  occ. eigenvalues --   -0.62348  -0.62158  -0.59614  -0.59276  -0.57370
 Alpha  occ. eigenvalues --   -0.56784  -0.56140  -0.55548  -0.54729  -0.53769
 Alpha  occ. eigenvalues --   -0.53077  -0.52251  -0.51619  -0.51449  -0.50786
 Alpha  occ. eigenvalues --   -0.50471  -0.49773  -0.49689  -0.49431  -0.48966
 Alpha  occ. eigenvalues --   -0.48827  -0.48662  -0.48422  -0.47566  -0.46947
 Alpha  occ. eigenvalues --   -0.46808  -0.46161  -0.45427  -0.45060  -0.44883
 Alpha  occ. eigenvalues --   -0.44252  -0.43863  -0.43057  -0.42992  -0.42825
 Alpha  occ. eigenvalues --   -0.41902  -0.41686  -0.41120  -0.40738  -0.40516
 Alpha  occ. eigenvalues --   -0.40279  -0.39978  -0.39675  -0.39609  -0.39412
 Alpha  occ. eigenvalues --   -0.39075  -0.38791  -0.38539  -0.38509  -0.38183
 Alpha  occ. eigenvalues --   -0.37978  -0.37284  -0.36941  -0.36345  -0.35361
 Alpha  occ. eigenvalues --   -0.34850  -0.34283  -0.34198  -0.33095  -0.32706
 Alpha  occ. eigenvalues --   -0.31354  -0.29923  -0.29611  -0.29237  -0.28901
 Alpha  occ. eigenvalues --   -0.28522  -0.28223  -0.27246  -0.26650  -0.26390
 Alpha  occ. eigenvalues --   -0.25666  -0.25009  -0.23170
 Alpha virt. eigenvalues --   -0.11703  -0.06308  -0.05345  -0.04088  -0.01418
 Alpha virt. eigenvalues --   -0.01137  -0.00752  -0.00617  -0.00206  -0.00057
 Alpha virt. eigenvalues --    0.00524   0.00974   0.01085   0.01264   0.01923

  Beta  occ. eigenvalues --  -19.17461 -19.17294 -19.15507 -19.15120 -19.15059
  Beta  occ. eigenvalues --  -19.14382 -19.13732 -19.13330 -19.13304 -19.13290
  Beta  occ. eigenvalues --  -19.12153 -14.30236 -10.28994 -10.28804 -10.27955
  Beta  occ. eigenvalues --  -10.27425 -10.26871 -10.26810 -10.26717 -10.26345
  Beta  occ. eigenvalues --  -10.24764 -10.23758 -10.23156 -10.22909 -10.22551
  Beta  occ. eigenvalues --  -10.22001 -10.21083 -10.20978 -10.20974 -10.20940
  Beta  occ. eigenvalues --  -10.20930 -10.20910 -10.20861 -10.20047 -10.19514
  Beta  occ. eigenvalues --  -10.18846 -10.18841 -10.16976 -10.16855  -1.09555
  Beta  occ. eigenvalues --   -1.09383  -1.09233  -1.08929  -1.08231  -1.05856
  Beta  occ. eigenvalues --   -1.05710  -1.05435  -1.03941  -1.03830  -1.01985
  Beta  occ. eigenvalues --   -0.89776  -0.89557  -0.88394  -0.84854  -0.80601
  Beta  occ. eigenvalues --   -0.80064  -0.78496  -0.77889  -0.77691  -0.76923
  Beta  occ. eigenvalues --   -0.75521  -0.74394  -0.71930  -0.70846  -0.69211
  Beta  occ. eigenvalues --   -0.68406  -0.66833  -0.65226  -0.63926  -0.62725
  Beta  occ. eigenvalues --   -0.62348  -0.62158  -0.59614  -0.59276  -0.57370
  Beta  occ. eigenvalues --   -0.56784  -0.56140  -0.55548  -0.54729  -0.53769
  Beta  occ. eigenvalues --   -0.53077  -0.52251  -0.51619  -0.51449  -0.50786
  Beta  occ. eigenvalues --   -0.50471  -0.49773  -0.49689  -0.49431  -0.48966
  Beta  occ. eigenvalues --   -0.48827  -0.48662  -0.48422  -0.47566  -0.46947
  Beta  occ. eigenvalues --   -0.46808  -0.46161  -0.45427  -0.45060  -0.44883
  Beta  occ. eigenvalues --   -0.44252  -0.43863  -0.43057  -0.42992  -0.42825
  Beta  occ. eigenvalues --   -0.41902  -0.41686  -0.41120  -0.40738  -0.40516
  Beta  occ. eigenvalues --   -0.40279  -0.39978  -0.39675  -0.39609  -0.39412
  Beta  occ. eigenvalues --   -0.39075  -0.38791  -0.38539  -0.38509  -0.38183
  Beta  occ. eigenvalues --   -0.37978  -0.37284  -0.36941  -0.36345  -0.35361
  Beta  occ. eigenvalues --   -0.34850  -0.34283  -0.34198  -0.33095  -0.32706
  Beta  occ. eigenvalues --   -0.31354  -0.29923  -0.29611  -0.29237  -0.28901
  Beta  occ. eigenvalues --   -0.28522  -0.28223  -0.27246  -0.26650  -0.26390
  Beta  occ. eigenvalues --   -0.25666  -0.25009  -0.23170
  Beta virt. eigenvalues --   -0.11703  -0.06308  -0.05345  -0.04088  -0.01418
  Beta virt. eigenvalues --   -0.01137  -0.00752  -0.00617  -0.00206  -0.00057
  Beta virt. eigenvalues --    0.00524   0.00974   0.01085   0.01264   0.01923

 Mulliken charges and spin densities:
               1          2
     1  C   -0.266712  -0.000000
     2  O   -0.153027  -0.000000
     3  C    0.141399  -0.000000
     4  C   -0.078013   0.000000
     5  C   -0.424428   0.000000
     6  C    0.054948  -0.000000
     7  C    0.108057   0.000000
     8  C   -0.559917  -0.000000
     9  O   -0.286380  -0.000000
    10  C   -0.115189   0.000000
    11  C   -0.276473   0.000000
    12  O   -0.217137   0.000000
    13  C    0.288372  -0.000000
    14  C   -0.656008  -0.000000
    15  C    0.444182   0.000000
    16  O   -0.204638  -0.000000
    17  C   -0.316199  -0.000000
    18  C   -0.650727   0.000000
    19  O    0.159960  -0.000000
    20  C   -0.250790  -0.000000
    21  C   -0.453679  -0.000000
    22  C    0.107672   0.000000
    23  N   -0.431715   0.000000
    24  C   -0.295782  -0.000000
    25  O   -0.257463   0.000000
    26  C   -0.294808   0.000000
    27  C   -0.640493   0.000000
    28  O    0.039211  -0.000000
    29  C    0.267873  -0.000000
    30  C   -0.352877   0.000000
    31  O   -0.374049   0.000000
    32  C    0.828408  -0.000000
    33  C   -0.514517  -0.000000
    34  O   -0.324828  -0.000000
    35  C    0.210023  -0.000000
    36  C   -0.212878  -0.000000
    37  O   -0.258550   0.000000
    38  C   -0.364501  -0.000000
    39  O   -0.317169  -0.000000
    40  H    0.204867  -0.000000
    41  H    0.168542   0.000000
    42  H    0.169603   0.000000
    43  H    0.202014   0.000000
    44  H    0.221831  -0.000000
    45  H    0.177234  -0.000000
    46  H    0.337317  -0.000000
    47  H    0.156867   0.000000
    48  H    0.287203  -0.000000
    49  H    0.317841   0.000000
    50  H    0.303072   0.000000
    51  H    0.234025  -0.000000
    52  H    0.300610   0.000000
    53  H    0.215749  -0.000000
    54  H    0.202168   0.000000
    55  H    0.170806   0.000000
    56  H    0.258023  -0.000000
    57  H    0.240302   0.000000
    58  H    0.277757  -0.000000
    59  H    0.238202  -0.000000
    60  H    0.276304  -0.000000
    61  H    0.166660   0.000000
    62  H    0.171155  -0.000000
    63  H    0.171934   0.000000
    64  H    0.163588  -0.000000
    65  H    0.511570   0.000000
    66  H    0.231520   0.000000
    67  H    0.230585   0.000000
    68  H    0.291494  -0.000000
 Sum of Mulliken charges =  -0.00000   0.00000

 Dipole moment (field-independent basis, Debye):
    X=             -0.8732    Y=             -2.7477    Z=             -1.2270  Tot=              3.1334
 Quadrupole moment (field-independent basis, Debye-Ang):
   XX=           -181.3376   YY=           -230.8957   ZZ=           -237.6543
   XY=             37.8837   XZ=            -12.1153   YZ=            -23.4240

 Normal termination of Gaussian 16 at Tue Jan 16 05:52:44 2024.
