 Q-Chem 5.4, Q-Chem, Inc., Pleasanton, CA (2021)
 Q-Chem 5.4.0 for Intel X86 EM64T Linux

User input:
--------------------------------------------------------------
$molecule
0 1
C                  5.6741640000     -4.0408310000     -2.3568650000
O                  4.8645790000     -3.0814480000     -1.6850200000
C                  5.4182860000     -2.2742820000     -0.7591800000
C                  6.7761920000     -2.3443560000     -0.4233730000
C                  7.3128510000     -1.4952130000      0.5382750000
C                  6.5131360000     -0.5635510000      1.1828750000
C                  5.1587820000     -0.4771300000      0.8633160000
C                  4.3596540000      0.5606250000      1.6048460000
O                  4.9178660000      1.2496920000      2.4421280000
C                  2.9206200000      0.6896930000      1.2752360000
C                  2.1143100000      1.6566210000      1.8889390000
O                  2.6688340000      2.4988330000      2.7983370000
C                  0.7351560000      1.7581410000      1.5697560000
C                 -0.0781780000      2.8697760000      2.2005980000
C                 -1.3822360000      3.2250750000      1.4472140000
O                 -2.1745220000      4.0936330000      2.2632570000
C                 -2.1368540000      1.9360740000      1.1253880000
C                 -1.3314260000      0.8692130000      0.3681160000
O                 -1.8845840000     -0.4112370000      0.7338360000
C                 -2.6628490000     -1.0380750000     -0.2378180000
C                 -3.0116100000     -2.4365400000      0.2449470000
C                 -3.9698080000     -3.1382900000     -0.7407740000
N                 -3.3668300000     -3.5639950000     -2.0141730000
C                 -5.1824530000     -2.2310110000     -1.0199230000
O                 -5.9717380000     -2.2467540000      0.1705730000
C                 -4.7247030000     -0.8155200000     -1.4205050000
C                 -5.8637530000      0.1734640000     -1.6234170000
O                 -3.8492040000     -0.2578000000     -0.4364760000
C                  0.1517010000      0.8576540000      0.6917330000
C                  0.9642870000     -0.0897510000      0.0250130000
O                  0.3745990000     -0.8621450000     -0.8973560000
C                  2.3418080000     -0.1822580000      0.3125410000
C                  3.1432270000     -1.1908300000     -0.4113430000
O                  2.5962540000     -1.9114440000     -1.2634840000
C                  4.5823520000     -1.3216830000     -0.1065170000
C                 -1.0506610000      4.0391720000      0.1867330000
O                 -0.6133740000      3.5056900000     -0.8119100000
C                 -1.2568450000      5.5427940000      0.2048020000
O                 -0.8029070000      6.1363310000     -0.9841610000
H                  5.0015960000     -4.5534980000     -3.0417150000
H                  6.1014980000     -4.7652470000     -1.6560540000
H                  6.4756540000     -3.5595730000     -2.9264700000
H                  7.4188480000     -3.0624940000     -0.9122560000
H                  8.3671940000     -1.5678890000      0.7808690000
H                  6.9093880000      0.1064470000      1.9335400000
H                  1.9922690000      3.0700280000      3.1747290000
H                  0.5172170000      3.7862570000      2.2916300000
H                 -0.3774710000      2.5915760000      3.2203790000
H                 -2.5966010000      3.5729330000      2.9551120000
H                 -3.0583860000      2.1479020000      0.5813060000
H                 -2.4265360000      1.4862790000      2.0824980000
H                 -1.4403620000      1.0103100000     -0.7090140000
H                 -2.1103210000     -1.0610690000     -1.1899330000
H                 -2.0936580000     -3.0180450000      0.3640450000
H                 -3.4918280000     -2.3419920000      1.2220370000
H                 -4.3655270000     -4.0384660000     -0.2647230000
H                 -2.7565040000     -2.8547490000     -2.4067310000
H                 -2.7973060000     -4.3913010000     -1.8748630000
H                 -5.7423100000     -2.6625450000     -1.8589830000
H                 -6.7026030000     -1.6286520000      0.0772940000
H                 -4.1794620000     -0.9177430000     -2.3734530000
H                 -6.5753610000     -0.2026290000     -2.3635580000
H                 -5.4732470000      1.1292320000     -1.9777580000
H                 -6.3914570000      0.3645480000     -0.6844180000
H                  1.0988010000     -1.4461730000     -1.2628220000
H                 -2.3256250000      5.7354470000      0.3629480000
H                 -0.7389190000      5.9681600000      1.0737110000
H                 -0.5131030000      5.4146150000     -1.5635100000
$end
$rem
MAX_SCF_CYCLES=200
BASIS  =  6-311++G(d,p)
GUI  =  2
JOB_TYPE  =  SP
METHOD  =  B3LYP
THRESH = 14
SCF_ALGORITHM = RCA_DIIS
SOLVENT_METHOD = PCM
$end
$pcm
theory = CPCM
$end
$solvent
dielectric 37.219
opticaldielectric 1.43
$end

--------------------------------------------------------------

             Standard Nuclear Orientation (Angstroms)
    I     Atom           X                Y                Z
 ----------------------------------------------------------------
    1      C       5.6741640000    -4.0408310000    -2.3568650000
    2      O       4.8645790000    -3.0814480000    -1.6850200000
    3      C       5.4182860000    -2.2742820000    -0.7591800000
    4      C       6.7761920000    -2.3443560000    -0.4233730000
    5      C       7.3128510000    -1.4952130000     0.5382750000
    6      C       6.5131360000    -0.5635510000     1.1828750000
    7      C       5.1587820000    -0.4771300000     0.8633160000
    8      C       4.3596540000     0.5606250000     1.6048460000
    9      O       4.9178660000     1.2496920000     2.4421280000
   10      C       2.9206200000     0.6896930000     1.2752360000
   11      C       2.1143100000     1.6566210000     1.8889390000
   12      O       2.6688340000     2.4988330000     2.7983370000
   13      C       0.7351560000     1.7581410000     1.5697560000
   14      C      -0.0781780000     2.8697760000     2.2005980000
   15      C      -1.3822360000     3.2250750000     1.4472140000
   16      O      -2.1745220000     4.0936330000     2.2632570000
   17      C      -2.1368540000     1.9360740000     1.1253880000
   18      C      -1.3314260000     0.8692130000     0.3681160000
   19      O      -1.8845840000    -0.4112370000     0.7338360000
   20      C      -2.6628490000    -1.0380750000    -0.2378180000
   21      C      -3.0116100000    -2.4365400000     0.2449470000
   22      C      -3.9698080000    -3.1382900000    -0.7407740000
   23      N      -3.3668300000    -3.5639950000    -2.0141730000
   24      C      -5.1824530000    -2.2310110000    -1.0199230000
   25      O      -5.9717380000    -2.2467540000     0.1705730000
   26      C      -4.7247030000    -0.8155200000    -1.4205050000
   27      C      -5.8637530000     0.1734640000    -1.6234170000
   28      O      -3.8492040000    -0.2578000000    -0.4364760000
   29      C       0.1517010000     0.8576540000     0.6917330000
   30      C       0.9642870000    -0.0897510000     0.0250130000
   31      O       0.3745990000    -0.8621450000    -0.8973560000
   32      C       2.3418080000    -0.1822580000     0.3125410000
   33      C       3.1432270000    -1.1908300000    -0.4113430000
   34      O       2.5962540000    -1.9114440000    -1.2634840000
   35      C       4.5823520000    -1.3216830000    -0.1065170000
   36      C      -1.0506610000     4.0391720000     0.1867330000
   37      O      -0.6133740000     3.5056900000    -0.8119100000
   38      C      -1.2568450000     5.5427940000     0.2048020000
   39      O      -0.8029070000     6.1363310000    -0.9841610000
   40      H       5.0015960000    -4.5534980000    -3.0417150000
   41      H       6.1014980000    -4.7652470000    -1.6560540000
   42      H       6.4756540000    -3.5595730000    -2.9264700000
   43      H       7.4188480000    -3.0624940000    -0.9122560000
   44      H       8.3671940000    -1.5678890000     0.7808690000
   45      H       6.9093880000     0.1064470000     1.9335400000
   46      H       1.9922690000     3.0700280000     3.1747290000
   47      H       0.5172170000     3.7862570000     2.2916300000
   48      H      -0.3774710000     2.5915760000     3.2203790000
   49      H      -2.5966010000     3.5729330000     2.9551120000
   50      H      -3.0583860000     2.1479020000     0.5813060000
   51      H      -2.4265360000     1.4862790000     2.0824980000
   52      H      -1.4403620000     1.0103100000    -0.7090140000
   53      H      -2.1103210000    -1.0610690000    -1.1899330000
   54      H      -2.0936580000    -3.0180450000     0.3640450000
   55      H      -3.4918280000    -2.3419920000     1.2220370000
   56      H      -4.3655270000    -4.0384660000    -0.2647230000
   57      H      -2.7565040000    -2.8547490000    -2.4067310000
   58      H      -2.7973060000    -4.3913010000    -1.8748630000
   59      H      -5.7423100000    -2.6625450000    -1.8589830000
   60      H      -6.7026030000    -1.6286520000     0.0772940000
   61      H      -4.1794620000    -0.9177430000    -2.3734530000
   62      H      -6.5753610000    -0.2026290000    -2.3635580000
   63      H      -5.4732470000     1.1292320000    -1.9777580000
   64      H      -6.3914570000     0.3645480000    -0.6844180000
   65      H       1.0988010000    -1.4461730000    -1.2628220000
   66      H      -2.3256250000     5.7354470000     0.3629480000
   67      H      -0.7389190000     5.9681600000     1.0737110000
   68      H      -0.5131030000     5.4146150000    -1.5635100000
 ----------------------------------------------------------------

   16   -1929.1265644764      9.22E-06 Convergence criterion met
 Total energy in the final basis set = -1929.12656448

                    Orbital Energies (a.u.)
 --------------------------------------------------------------

 Alpha MOs
 -- Occupied --
-19.1710 -19.1704 -19.1536 -19.1476 -19.1443 -19.1413 -19.1347 -19.1322
-19.1302 -19.1291 -19.1207 -14.2972 -10.2864 -10.2859 -10.2784 -10.2701
-10.2654 -10.2648 -10.2631 -10.2616 -10.2436 -10.2328 -10.2265 -10.2234
-10.2210 -10.2170 -10.2087 -10.2074 -10.2072 -10.2071 -10.2067 -10.2044
-10.2022 -10.1971 -10.1917 -10.1858 -10.1826 -10.1658 -10.1630  -1.0934
 -1.0903  -1.0888  -1.0871  -1.0797  -1.0579  -1.0531  -1.0508  -1.0358
 -1.0353  -1.0167  -0.8933  -0.8923  -0.8812  -0.8448  -0.8027  -0.7962
 -0.7821  -0.7744  -0.7736  -0.7656  -0.7512  -0.7397  -0.7154  -0.7038
 -0.6892  -0.6802  -0.6652  -0.6484  -0.6348  -0.6230  -0.6202  -0.6179
 -0.5924  -0.5898  -0.5699  -0.5636  -0.5581  -0.5519  -0.5427  -0.5338
 -0.5265  -0.5201  -0.5130  -0.5115  -0.5041  -0.5004  -0.4936  -0.4930
 -0.4901  -0.4857  -0.4835  -0.4831  -0.4803  -0.4725  -0.4666  -0.4650
 -0.4589  -0.4507  -0.4482  -0.4458  -0.4386  -0.4351  -0.4272  -0.4261
 -0.4258  -0.4151  -0.4127  -0.4067  -0.4038  -0.4007  -0.3992  -0.3962
 -0.3934  -0.3922  -0.3908  -0.3872  -0.3849  -0.3824  -0.3816  -0.3779
 -0.3761  -0.3696  -0.3650  -0.3593  -0.3507  -0.3450  -0.3400  -0.3386
 -0.3288  -0.3230  -0.3088  -0.2964  -0.2933  -0.2895  -0.2856  -0.2824
 -0.2812  -0.2695  -0.2653  -0.2607  -0.2535  -0.2479  -0.2297

          Ground-State Mulliken Net Atomic Charges

     Atom                 Charge (a.u.)
  ----------------------------------------
      1 C                    -0.291726
      2 O                    -0.164378
      3 C                     0.152611
      4 C                    -0.087519
      5 C                    -0.423763
      6 C                     0.059763
      7 C                     0.083077
      8 C                    -0.535803
      9 O                    -0.301293
     10 C                    -0.133675
     11 C                    -0.256311
     12 O                    -0.240746
     13 C                     0.269605
     14 C                    -0.717836
     15 C                     0.548699
     16 O                    -0.234519
     17 C                    -0.353151
     18 C                    -0.586673
     19 O                     0.142457
     20 C                    -0.241703
     21 C                    -0.528260
     22 C                     0.138529
     23 N                    -0.489032
     24 C                    -0.293924
     25 O                    -0.285346
     26 C                    -0.289575
     27 C                    -0.670585
     28 O                     0.012268
     29 C                     0.249372
     30 C                    -0.338882
     31 O                    -0.391270
     32 C                     0.821023
     33 C                    -0.502489
     34 O                    -0.341318
     35 C                     0.186807
     36 C                    -0.215877
     37 O                    -0.271786
     38 C                    -0.381886
     39 O                    -0.336377
     40 H                     0.211575
     41 H                     0.177520
     42 H                     0.178489
     43 H                     0.223703
     44 H                     0.237641
     45 H                     0.187099
     46 H                     0.357767
     47 H                     0.185902
     48 H                     0.302720
     49 H                     0.333169
     50 H                     0.309449
     51 H                     0.249794
     52 H                     0.310554
     53 H                     0.234042
     54 H                     0.207379
     55 H                     0.176081
     56 H                     0.264731
     57 H                     0.256489
     58 H                     0.289149
     59 H                     0.242741
     60 H                     0.292831
     61 H                     0.181740
     62 H                     0.176359
     63 H                     0.175159
     64 H                     0.174501
     65 H                     0.522756
     66 H                     0.239057
     67 H                     0.239904
     68 H                     0.303192
  ----------------------------------------
  Sum of atomic charges =     0.000000

                    Cartesian Multipole Moments
 -----------------------------------------------------------------
    Charge (ESU x 10^10)
                -0.0000
    Dipole Moment (Debye)
         X       0.4242      Y      -3.0475      Z       0.3758
       Tot       3.0997
    Quadrupole Moments (Debye-Ang)
        XX    -188.5752     XY     -43.8661     YY    -236.0848
        XZ     -19.6671     YZ      22.8558     ZZ    -223.1330

 Total job time:  1556.24s(wall), 9514.34s(cpu)
        *  Thank you very much for using Q-Chem.  Have a nice day.  *
