 Q-Chem 5.4, Q-Chem, Inc., Pleasanton, CA (2021)
 Q-Chem 5.4.0 for Intel X86 EM64T Linux

User input:
--------------------------------------------------------------
$molecule
-2 1
O                  0.1263790000      0.3167840000      2.7029640000
C                  0.0673960000      0.1207190000      1.4519070000
C                 -1.1932830000      0.0534820000      0.7293370000
C                 -2.4460020000      0.2397810000      1.3735440000
C                 -3.6426520000      0.1528670000      0.6682000000
C                 -3.6443440000     -0.0737380000     -0.7108400000
C                 -2.4144260000     -0.2023950000     -1.3847870000
C                 -1.2264640000     -0.1521350000     -0.6698570000
O                 -0.0665150000     -0.3403690000     -1.3920440000
C                  1.1574360000     -0.1725590000     -0.7788930000
C                  2.2742540000     -0.2423500000     -1.5991500000
C                  3.5624990000     -0.1352450000     -1.0402790000
C                  3.6905080000      0.0899830000      0.3330340000
C                  2.5648160000      0.1965360000      1.1445210000
C                  1.2556250000      0.0323240000      0.6173370000
H                 -2.4266630000      0.4334200000      2.4397970000
H                 -4.5899780000      0.2645300000      1.1927080000
H                 -4.5782950000     -0.1493940000     -1.2615630000
H                 -2.3728450000     -0.3710770000     -2.4564600000
H                  2.1322610000     -0.4093480000     -2.6624590000
H                  4.4408590000     -0.2262500000     -1.6739150000
H                  4.6834760000      0.1849870000      0.7689050000
H                  2.6459580000      0.3894480000      2.2079920000
$end
$rem
MAX_SCF_CYCLES=200
BASIS  =  6-311++G(d,p)
GUI  =  2
JOB_TYPE  =  SP
METHOD  =  B3LYP
SOLVENT_METHOD = COSMO
$end
$solvent
dielectric 37.219
opticaldielectric 1.43
$end

--------------------------------------------------------------

             Standard Nuclear Orientation (Angstroms)
    I     Atom           X                Y                Z
 ----------------------------------------------------------------
    1      O       0.0001049247     2.6284160200     0.0638008335
    2      C      -0.0000143263     1.3607550205     0.0737844212
    3      C      -1.2257648805     0.5784111096     0.0361899527
    4      C      -2.5081394975     1.1841397082    -0.0511202736
    5      C      -3.6705483676     0.4188983974    -0.0668294876
    6      C      -3.6073335473    -0.9770442198    -0.0455666922
    7      C      -2.3468705360    -1.6047499946    -0.0196065972
    8      C      -1.1932643984    -0.8358240565     0.0337831672
    9      O       0.0000174572    -1.5231926569     0.1116972519
   10      C       1.1932152672    -0.8358948407     0.0337800300
   11      C       2.3468772201    -1.6047685203    -0.0198123023
   12      C       3.6072973612    -0.9770344593    -0.0457829062
   13      C       3.6705364449     0.4189110565    -0.0667468567
   14      C       2.5080960018     1.1841069819    -0.0507911775
   15      C       1.2257942184     0.5783216474     0.0363632272
   16      H      -2.5391626246     2.2670057329    -0.0858226846
   17      H      -4.6417557537     0.9095710009    -0.0984590173
   18      H      -4.5144832607    -1.5756615943    -0.0501229850
   19      H      -2.2549592129    -2.6864777208    -0.0104933736
   20      H       2.2550164218    -2.6865064697    -0.0108136276
   21      H       4.5144192049    -1.5756998876    -0.0505206079
   22      H       4.6417180110     0.9096286476    -0.0983276898
   23      H       2.5389423981     2.2669864044    -0.0852917274
 ----------------------------------------------------------------

   17    -650.7502559326      8.32e-06  Convergence criterion met
 Total energy in the final basis set =     -650.7502559326
    6    -651.0050967158      6.68e-06  Convergence criterion met
 Total energy in the final basis set =     -651.0050967158

                    Orbital Energies (a.u.)
 --------------------------------------------------------------

 Alpha MOs
 -- Occupied --
-19.1447 -19.0164 -10.2046 -10.2046 -10.1539 -10.1421 -10.1421 -10.1372
-10.1372 -10.1370 -10.1370 -10.1304 -10.1304 -10.1240 -10.1240  -1.0643
 -0.9398  -0.8267  -0.8128  -0.7353  -0.7350  -0.7084  -0.6960  -0.6156
 -0.6075  -0.5625  -0.5561  -0.5178  -0.5131  -0.4645  -0.4525  -0.4349
 -0.4277  -0.4243  -0.4004  -0.4002  -0.3818  -0.3680  -0.3601  -0.3476
 -0.3415  -0.3401  -0.3231  -0.3170  -0.3022  -0.2967  -0.2354  -0.2211
 -0.2200  -0.1983  -0.1980  -0.0708

          Ground-State Mulliken Net Atomic Charges

     Atom                 Charge (a.u.)
  ----------------------------------------
      1 O                    -0.764977
      2 C                    -0.168670
      3 C                     0.889543
      4 C                    -0.045212
      5 C                    -0.316527
      6 C                    -0.461289
      7 C                    -0.451684
      8 C                    -0.693496
      9 O                    -0.184181
     10 C                    -0.693393
     11 C                    -0.452252
     12 C                    -0.460510
     13 C                    -0.316334
     14 C                    -0.046782
     15 C                     0.891467
     16 H                     0.151156
     17 H                     0.158274
     18 H                     0.159361
     19 H                     0.168280
     20 H                     0.168243
     21 H                     0.159410
     22 H                     0.158309
     23 H                     0.151264
  ----------------------------------------
  Sum of atomic charges =    -2.000000

                    Cartesian Multipole Moments
 -----------------------------------------------------------------
    Charge (ESU x 10^10)
                -9.6064
    Dipole Moment (Debye)
         X       0.0021      Y      -8.6012      Z      -0.1329
       Tot       8.6022
    Quadrupole Moments (Debye-Ang)
        XX    -133.3344     XY      -0.0053     YY    -128.3903
        XZ      -0.0029     YZ      -0.6341     ZZ    -103.0856

 Total job time:  57.41s(wall), 443.98s(cpu)
        *  Thank you very much for using Q-Chem.  Have a nice day.  *
