 Gaussian 16, Revision A.03,
 Gaussian 16:  ES64L-G16RevA.03 25-Dec-2016

 ----------------------------------------------------------------
 #P UB3LYP/6-311++G(d,p) SCRF=(PCM,Solvent=n,n-DiMethylFormamide)
 ----------------------------------------------------------------

 ------------------
 Radical PCM in DMF
 ------------------
 Symbolic Z-matrix:
 Charge = -1 Multiplicity = 2

                         Standard orientation:
 ---------------------------------------------------------------------
 Center     Atomic      Atomic             Coordinates (Angstroms)
 Number     Number       Type             X           Y           Z
 ---------------------------------------------------------------------
      1         17           0        2.745771    0.978870   -0.000017
      2          6           0        1.207951    0.100733   -0.000001
      3          6           0        1.224272   -1.264209   -0.000001
      4          6           0       -0.001525   -2.037117   -0.000001
      5          8           0       -0.001056   -3.297597    0.000005
      6          6           0       -1.225982   -1.263500    0.000010
      7          6           0       -1.207840    0.101596    0.000007
      8         17           0       -2.744592    0.980769   -0.000021
      9          6           0        0.000042    0.920395    0.000046
     10          8           0        0.001039    2.167763    0.000032
     11          1           0        2.159198   -1.811262   -0.000017
     12          1           0       -2.160600   -1.811308    0.000012
 ---------------------------------------------------------------------

 SCF Done:  E(UB3LYP) =  -1300.97482223     A.U. after   20 cycles

 The electronic state is 2-A.
 Alpha  occ. eigenvalues -- -101.55389-101.55387 -19.09562 -19.09100 -10.24817
 Alpha  occ. eigenvalues --  -10.23770 -10.23645 -10.23642 -10.18092 -10.18091
 Alpha  occ. eigenvalues --   -9.46832  -9.46830  -7.23268  -7.23266  -7.22348
 Alpha  occ. eigenvalues --   -7.22348  -7.22280  -7.22279  -1.02600  -1.01279
 Alpha  occ. eigenvalues --   -0.88280  -0.86958  -0.80745  -0.73605  -0.69876
 Alpha  occ. eigenvalues --   -0.60274  -0.58242  -0.50538  -0.48711  -0.45770
 Alpha  occ. eigenvalues --   -0.43777  -0.43493  -0.42424  -0.40312  -0.39340
 Alpha  occ. eigenvalues --   -0.38656  -0.36484  -0.34222  -0.32195  -0.31496
 Alpha  occ. eigenvalues --   -0.28643  -0.26396  -0.25737  -0.25436  -0.17802
 Alpha virt. eigenvalues --   -0.02635  -0.00645   0.00541   0.01523   0.01783
 Alpha virt. eigenvalues --    0.02446   0.02974   0.04966   0.04985   0.05792
 Alpha virt. eigenvalues --    0.06918   0.07838   0.08440   0.08919   0.09050

  Beta  occ. eigenvalues -- -101.55387-101.55385 -19.08872 -19.08372 -10.24675
  Beta  occ. eigenvalues --  -10.23671 -10.23543 -10.23542 -10.17963 -10.17962
  Beta  occ. eigenvalues --   -9.46830  -9.46828  -7.23272  -7.23271  -7.22335
  Beta  occ. eigenvalues --   -7.22334  -7.22280  -7.22279  -1.01424  -1.00010
  Beta  occ. eigenvalues --   -0.87922  -0.86865  -0.80360  -0.73350  -0.68819
  Beta  occ. eigenvalues --   -0.59860  -0.57817  -0.50316  -0.48280  -0.45475
  Beta  occ. eigenvalues --   -0.43415  -0.42137  -0.41744  -0.39823  -0.38450
  Beta  occ. eigenvalues --   -0.36562  -0.36208  -0.32880  -0.32150  -0.31453
  Beta  occ. eigenvalues --   -0.25862  -0.25746  -0.25041  -0.24771
  Beta virt. eigenvalues --   -0.10567  -0.01168  -0.00532   0.00592   0.01796
  Beta virt. eigenvalues --    0.02485   0.03044   0.03808   0.05041   0.05263
  Beta virt. eigenvalues --    0.05855   0.06961   0.07925   0.08604   0.08924

 Mulliken charges and spin densities:
               1          2
     1  Cl   0.213610   0.002943
     2  C    1.078013   0.079081
     3  C   -0.456015   0.090446
     4  C   -0.680764   0.111781
     5  O   -0.476473   0.254459
     6  C   -0.452614   0.090784
     7  C    1.077430   0.079959
     8  Cl   0.213724   0.003023
     9  C   -1.551349   0.052028
    10  O   -0.372738   0.250634
    11  H    0.203540  -0.007550
    12  H    0.203637  -0.007589
 Sum of Mulliken charges =  -1.00000   1.00000

 Dipole moment (field-independent basis, Debye):
    X=             -0.0017    Y=              0.5178    Z=             -0.0000  Tot=              0.5178
 Quadrupole moment (field-independent basis, Debye-Ang):
   XX=            -80.4900   YY=           -113.1448   ZZ=            -73.9126
   XY=             -0.0085   XZ=             -0.0000   YZ=             -0.0001

 Normal termination of Gaussian 16 at Sun Jan 21 07:07:13 2024.
