 Gaussian 16, Revision A.03,
 Gaussian 16:  ES64L-G16RevA.03 25-Dec-2016

 ----------------------------------------------------------------------
 #P UB3LYP/6-311++G(d,p) nosym opt freq SCRF=(PCM,Solvent=n,n-DiMethylF
 ormamide)
 ----------------------------------------------------------------------

 --------
 Oxidized
 --------
 Symbolic Z-matrix:
 Charge =  0 Multiplicity = 1

 SCF Done:  E(UB3LYP) =  -990.178878357     A.U. after   16 cycles
 SCF Done:  E(UB3LYP) =  -990.179133618     A.U. after   11 cycles
 SCF Done:  E(UB3LYP) =  -990.179151765     A.U. after   11 cycles
 SCF Done:  E(UB3LYP) =  -990.179140994     A.U. after   11 cycles
 SCF Done:  E(UB3LYP) =  -990.179171824     A.U. after   11 cycles
 SCF Done:  E(UB3LYP) =  -990.179176194     A.U. after    9 cycles
 SCF Done:  E(UB3LYP) =  -990.179176255     A.U. after    9 cycles
 Optimization completed.
    -- Stationary point found.
 Normal termination of Gaussian 16 at Sun Feb 11 15:23:35 2024.

 ----------------------------------------------------------------------
 #P Geom=AllCheck Guess=TCheck SCRF=Check GenChk UB3LYP/6-311++G(d,p) F
 req
 ----------------------------------------------------------------------

 Structure from the checkpoint file:  "312.chk"
 --------
 Oxidized
 --------
 Charge =  0 Multiplicity = 1

                          Input orientation:
 ---------------------------------------------------------------------
 Center     Atomic      Atomic             Coordinates (Angstroms)
 Number     Number       Type             X           Y           Z
 ---------------------------------------------------------------------
      1          6           0        3.743121    0.028719   -0.244688
      2          6           0        2.808433    0.128806    0.976693
      3          6           0        1.357874    0.297200    0.601758
      4          6           0        0.577930   -0.942085    0.347284
      5          8           0        1.135511   -2.031508    0.472388
      6          6           0       -0.844847   -0.822489   -0.047588
      7          6           0       -1.646322   -1.938679   -0.299088
      8          8           0       -1.190943   -3.206798   -0.199311
      9          6           0       -3.001602   -1.762428   -0.677325
     10          8           0       -3.710123   -2.897090   -0.904688
     11          6           0       -3.556817   -0.505888   -0.802930
     12          8           0       -4.860383   -0.414289   -1.168668
     13          6           0       -2.766754    0.628833   -0.549715
     14          6           0       -1.423576    0.475658   -0.176701
     15          6           0       -0.644294    1.675110    0.077143
     16          6           0        0.776651    1.514672    0.466551
     17          8           0        1.394861    2.698733    0.662595
     18          8           0       -1.132036    2.815455   -0.024675
     19          8           0       -3.382642    1.815949   -0.689508
     20          1           0        3.470858   -0.824680   -0.868986
     21          1           0        3.695716    0.929669   -0.861663
     22          1           0        4.777424   -0.104224    0.081962
     23          1           0        2.901098   -0.780745    1.571979
     24          1           0        3.136300    0.948985    1.625385
     25          1           0       -1.918955   -3.809453   -0.415536
     26          1           0        2.310361    2.559628    0.937594
     27          1           0       -2.704198    2.510337   -0.478189
     28          1           0       -4.620666   -2.684585   -1.154083
     29          1           0       -5.117811    0.518042   -1.217120
 ---------------------------------------------------------------------

 SCF Done:  E(UB3LYP) =  -990.179176255     A.U. after    1 cycles

 Alpha  occ. eigenvalues --  -19.19190 -19.18711 -19.18316 -19.17750 -19.17486
 Alpha  occ. eigenvalues --  -19.14310 -19.11889 -10.29165 -10.27790 -10.27375
 Alpha  occ. eigenvalues --  -10.27245 -10.27076 -10.26914 -10.26701 -10.21109
 Alpha  occ. eigenvalues --  -10.20957 -10.20598 -10.18794 -10.16802  -1.12196
 Alpha  occ. eigenvalues --   -1.10800  -1.10180  -1.08890  -1.07900  -1.05909
 Alpha  occ. eigenvalues --   -1.05131  -0.89090  -0.84301  -0.79830  -0.77542
 Alpha  occ. eigenvalues --   -0.75815  -0.70942  -0.68365  -0.67747  -0.64387
 Alpha  occ. eigenvalues --   -0.61845  -0.61136  -0.58613  -0.57853  -0.55317
 Alpha  occ. eigenvalues --   -0.54239  -0.51961  -0.50653  -0.49922  -0.49006
 Alpha  occ. eigenvalues --   -0.47180  -0.46580  -0.45444  -0.44673  -0.44003
 Alpha  occ. eigenvalues --   -0.43496  -0.42682  -0.41967  -0.41689  -0.41165
 Alpha  occ. eigenvalues --   -0.40968  -0.40104  -0.39701  -0.39213  -0.38969
 Alpha  occ. eigenvalues --   -0.38219  -0.36723  -0.35538  -0.32921  -0.29814
 Alpha  occ. eigenvalues --   -0.27135  -0.26939  -0.24738  -0.23693
 Alpha virt. eigenvalues --   -0.12149  -0.03942  -0.02317  -0.01992  -0.00885
 Alpha virt. eigenvalues --    0.00279   0.01411   0.01674   0.02053   0.03448
 Alpha virt. eigenvalues --    0.03554   0.03983   0.04245   0.04953   0.05184

  Beta  occ. eigenvalues --  -19.19190 -19.18711 -19.18316 -19.17750 -19.17486
  Beta  occ. eigenvalues --  -19.14310 -19.11889 -10.29165 -10.27790 -10.27375
  Beta  occ. eigenvalues --  -10.27245 -10.27076 -10.26914 -10.26701 -10.21109
  Beta  occ. eigenvalues --  -10.20957 -10.20598 -10.18794 -10.16802  -1.12196
  Beta  occ. eigenvalues --   -1.10800  -1.10180  -1.08890  -1.07900  -1.05909
  Beta  occ. eigenvalues --   -1.05131  -0.89090  -0.84301  -0.79830  -0.77542
  Beta  occ. eigenvalues --   -0.75815  -0.70942  -0.68365  -0.67747  -0.64387
  Beta  occ. eigenvalues --   -0.61845  -0.61136  -0.58613  -0.57853  -0.55317
  Beta  occ. eigenvalues --   -0.54239  -0.51961  -0.50653  -0.49922  -0.49006
  Beta  occ. eigenvalues --   -0.47180  -0.46580  -0.45444  -0.44673  -0.44003
  Beta  occ. eigenvalues --   -0.43496  -0.42682  -0.41967  -0.41689  -0.41165
  Beta  occ. eigenvalues --   -0.40968  -0.40104  -0.39701  -0.39213  -0.38969
  Beta  occ. eigenvalues --   -0.38219  -0.36723  -0.35538  -0.32921  -0.29814
  Beta  occ. eigenvalues --   -0.27135  -0.26939  -0.24738  -0.23693
  Beta virt. eigenvalues --   -0.12149  -0.03942  -0.02317  -0.01992  -0.00885
  Beta virt. eigenvalues --    0.00279   0.01411   0.01674   0.02053   0.03448
  Beta virt. eigenvalues --    0.03554   0.03983   0.04245   0.04953   0.05184

 Mulliken charges and spin densities:
               1          2
     1  C   -0.602297  -0.000000
     2  C   -0.098381  -0.000000
     3  C    1.382733  -0.000000
     4  C   -0.434174   0.000000
     5  O   -0.319376  -0.000000
     6  C    0.590808  -0.000000
     7  C   -0.234460   0.000000
     8  O   -0.238477  -0.000000
     9  C   -0.204907  -0.000000
    10  O   -0.299408   0.000000
    11  C   -0.243820  -0.000000
    12  O   -0.304627  -0.000000
    13  C    0.056944   0.000000
    14  C    0.911090   0.000000
    15  C   -0.625162   0.000000
    16  C   -0.830991   0.000000
    17  O   -0.225441  -0.000000
    18  O   -0.360874  -0.000000
    19  O   -0.399252  -0.000000
    20  H    0.169782   0.000000
    21  H    0.156557   0.000000
    22  H    0.153299  -0.000000
    23  H    0.209497   0.000000
    24  H    0.140435  -0.000000
    25  H    0.314038   0.000000
    26  H    0.304385   0.000000
    27  H    0.376942  -0.000000
    28  H    0.327866  -0.000000
    29  H    0.327275   0.000000
 Sum of Mulliken charges =  -0.00000  -0.00000

 Dipole moment (field-independent basis, Debye):
    X=             -2.2393    Y=              0.0897    Z=             -0.7172  Tot=              2.3531
 Quadrupole moment (field-independent basis, Debye-Ang):
   XX=            -78.6018   YY=           -123.5328   ZZ=           -107.3676
   XY=             17.5102   XZ=              8.4529   YZ=              4.5655

  Exact polarizability: 319.985   6.156 311.255  50.291   7.997 134.832
 Approx polarizability: 360.486 -10.012 410.917  59.635   5.310 156.822

                      1                      2                      3
                      A                      A                      A
 Frequencies --     35.8944                54.1297                64.9201
 Red. masses --      5.4324                 4.1095                 4.2371
 Frc consts  --      0.0041                 0.0071                 0.0105
 IR Inten    --     10.0545                 0.7952                 1.1976

                      4                      5                      6
                      A                      A                      A
 Frequencies --     92.4523               120.7038               157.1716
 Red. masses --      6.9861                10.7425                 6.6679
 Frc consts  --      0.0352                 0.0922                 0.0970
 IR Inten    --      0.0885                 0.9097                 0.3001

                      7                      8                      9
                      A                      A                      A
 Frequencies --    164.2312               186.3080               196.1204
 Red. masses --      8.8919                 4.2401                 1.8415
 Frc consts  --      0.1413                 0.0867                 0.0417
 IR Inten    --      1.9492                13.0157                 3.2234

                     10                     11                     12
                      A                      A                      A
 Frequencies --    224.3371               276.9571               279.0940
 Red. masses --      1.8372                 2.5069                 1.5082
 Frc consts  --      0.0545                 0.1133                 0.0692
 IR Inten    --      2.2505               117.9996               275.4510

                     13                     14                     15
                      A                      A                      A
 Frequencies --    311.0418               315.5833               328.9938
 Red. masses --      5.6523                 6.5825                 4.5146
 Frc consts  --      0.3222                 0.3863                 0.2879
 IR Inten    --      9.1436                13.0920                15.5572

                     16                     17                     18
                      A                      A                      A
 Frequencies --    343.9511               350.9634               359.3046
 Red. masses --      2.7261                 1.9398                 2.2121
 Frc consts  --      0.1900                 0.1408                 0.1683
 IR Inten    --      5.5534                10.6158                33.3515

                     19                     20                     21
                      A                      A                      A
 Frequencies --    374.9589               382.1425               389.2827
 Red. masses --      5.8000                 4.6453                 2.5061
 Frc consts  --      0.4805                 0.3997                 0.2238
 IR Inten    --     34.4591                20.6821                48.6703

                     22                     23                     24
                      A                      A                      A
 Frequencies --    409.5856               419.7994               445.8467
 Red. masses --      6.6664                 2.2735                 5.2287
 Frc consts  --      0.6589                 0.2361                 0.6124
 IR Inten    --      4.6279                71.9721                69.0098

                     25                     26                     27
                      A                      A                      A
 Frequencies --    467.6552               468.8110               522.7586
 Red. masses --      1.1881                 7.6538                 7.9224
 Frc consts  --      0.1531                 0.9911                 1.2756
 IR Inten    --     58.3336                10.7898                15.1783

                     28                     29                     30
                      A                      A                      A
 Frequencies --    534.5991               549.3856               560.1905
 Red. masses --      9.3987                 7.1396                 9.9518
 Frc consts  --      1.5826                 1.2696                 1.8400
 IR Inten    --      7.2104                 4.6669                 0.6737

                     31                     32                     33
                      A                      A                      A
 Frequencies --    617.1950               666.0806               680.0012
 Red. masses --      7.3051                11.1264                10.6165
 Frc consts  --      1.6395                 2.9084                 2.8924
 IR Inten    --      9.5615                 0.2238                 0.6668

                     34                     35                     36
                      A                      A                      A
 Frequencies --    721.4594               759.1726               765.8561
 Red. masses --      2.8313                 4.1110                 1.8831
 Frc consts  --      0.8683                 1.3960                 0.6508
 IR Inten    --      8.7643                62.9599               105.9603

                     37                     38                     39
                      A                      A                      A
 Frequencies --    768.8116               780.5673               784.3157
 Red. masses --      2.4687                 4.8731                 2.7128
 Frc consts  --      0.8597                 1.7493                 0.9832
 IR Inten    --     43.8480                90.9042               106.5858

                     40                     41                     42
                      A                      A                      A
 Frequencies --    829.4868               922.1204               965.8337
 Red. masses --      2.3306                 2.9766                 4.6883
 Frc consts  --      0.9448                 1.4913                 2.5768
 IR Inten    --     18.2756                 1.1928                63.5978

                     43                     44                     45
                      A                      A                      A
 Frequencies --   1003.6021              1019.7544              1075.3939
 Red. masses --      3.2596                 3.5201                 1.8768
 Frc consts  --      1.9344                 2.1567                 1.2788
 IR Inten    --    170.4916               218.3999                21.1810

                     46                     47                     48
                      A                      A                      A
 Frequencies --   1108.2678              1135.8400              1167.4163
 Red. masses --      2.1988                 3.0000                 2.7525
 Frc consts  --      1.5912                 2.2804                 2.2102
 IR Inten    --    125.2326               158.1679               346.4895

                     49                     50                     51
                      A                      A                      A
 Frequencies --   1202.0643              1229.2715              1258.2774
 Red. masses --      2.2024                 2.0612                 3.0788
 Frc consts  --      1.8750                 1.8352                 2.8720
 IR Inten    --    143.1168               774.1524                85.9771

                     52                     53                     54
                      A                      A                      A
 Frequencies --   1278.8109              1286.8772              1322.9346
 Red. masses --      1.7398                 1.4381                 2.4909
 Frc consts  --      1.6763                 1.4031                 2.5685
 IR Inten    --    998.4384               184.3958               549.7490

                     55                     56                     57
                      A                      A                      A
 Frequencies --   1340.7986              1349.4046              1352.2592
 Red. masses --      1.6524                 3.4491                 1.9770
 Frc consts  --      1.7502                 3.7003                 2.1300
 IR Inten    --     75.2478               185.0846                54.3992

                     58                     59                     60
                      A                      A                      A
 Frequencies --   1361.9229              1399.4587              1415.9535
 Red. masses --      2.5668                 1.4235                 2.7053
 Frc consts  --      2.8051                 1.6426                 3.1957
 IR Inten    --    582.2524                17.4185                 7.5705

                     61                     62                     63
                      A                      A                      A
 Frequencies --   1465.7956              1482.9855              1490.4974
 Red. masses --      5.5717                 1.0723                 1.0548
 Frc consts  --      7.0532                 1.3894                 1.3806
 IR Inten    --    681.9336                 4.9745                30.7237

                     64                     65                     66
                      A                      A                      A
 Frequencies --   1495.5714              1503.5238              1509.7071
 Red. masses --      3.8590                 2.4749                 1.4708
 Frc consts  --      5.0856                 3.2963                 1.9752
 IR Inten    --    317.9692                55.3488               145.9585

                     67                     68                     69
                      A                      A                      A
 Frequencies --   1606.7087              1625.6895              1647.6073
 Red. masses --      5.3307                 7.6012                 6.3477
 Frc consts  --      8.1079                11.8361                10.1525
 IR Inten    --    534.4937               721.8516               123.0377

                     70                     71                     72
                      A                      A                      A
 Frequencies --   1666.0339              1680.5952              3018.4622
 Red. masses --     10.3552                 9.0696                 1.0713
 Frc consts  --     16.9347                15.0926                 5.7509
 IR Inten    --    297.7172                28.5608                52.1016

                     73                     74                     75
                      A                      A                      A
 Frequencies --   3031.1664              3084.0044              3099.3686
 Red. masses --      1.0346                 1.0946                 1.0988
 Frc consts  --      5.6005                 6.1337                 6.2192
 IR Inten    --     50.9208                 3.8132                55.9049

                     76                     77                     78
                      A                      A                      A
 Frequencies --   3106.7984              3224.2985              3732.3696
 Red. masses --      1.1025                 1.0688                 1.0656
 Frc consts  --      6.2697                 6.5467                 8.7463
 IR Inten    --     39.7091               375.1185               319.1589

                     79                     80                     81
                      A                      A                      A
 Frequencies --   3761.6773              3774.1694              3792.2743
 Red. masses --      1.0660                 1.0664                 1.0656
 Frc consts  --      8.8873                 8.9494                 9.0290
 IR Inten    --    265.9905               287.3509               141.8899

 - Thermochemistry -
 -------------------
 Temperature   298.150 Kelvin.  Pressure   1.00000 Atm.
 Atom     1 has atomic number  6 and mass  12.00000

 Molecular mass:   266.04265 amu.
 Principal axes and moments of inertia in atomic units:
                           1         2         3
     Eigenvalues --  2941.693626029.768868774.22693
           X            0.93173  -0.29911  -0.20596
           Y            0.29725   0.95393  -0.04063
           Z            0.20863  -0.02337   0.97772
 This molecule is an asymmetric top.
 Rotational symmetry number  1.
 Warning -- assumption of classical behavior for rotation
           may cause significant error
 Rotational temperatures (Kelvin)      0.02944     0.01436     0.00987
 Rotational constants (GHZ):           0.61350     0.29931     0.20569
 Zero-point vibrational energy     548820.9 (Joules/Mol)
                                  131.17134 (Kcal/Mol)
 Warning -- explicit consideration of  31 degrees of freedom as
           vibrations may cause significant error
 Vibrational temperatures:     51.64    77.88    93.41   133.02   173.67
          (Kelvin)            226.13   236.29   268.06   282.17   322.77
                              398.48   401.55   447.52   454.05   473.35
                              494.87   504.96   516.96   539.48   549.82
                              560.09   589.30   604.00   641.47   672.85
                              674.51   752.13   769.17   790.44   805.99
                              888.01   958.34   978.37  1038.02  1092.28
                             1101.90  1106.15  1123.06  1128.46  1193.45
                             1326.73  1389.62  1443.96  1467.20  1547.25
                             1594.55  1634.22  1679.65  1729.50  1768.65
                             1810.38  1839.92  1851.53  1903.41  1929.11
                             1941.49  1945.60  1959.50  2013.51  2037.24
                             2108.95  2133.69  2144.49  2151.79  2163.24
                             2172.13  2311.70  2339.00  2370.54  2397.05
                             2418.00  4342.89  4361.17  4437.19  4459.30
                             4469.99  4639.05  5370.05  5412.21  5430.19
                             5456.24

 Zero-point correction=                           0.209035 (Hartree/Particle)
 Thermal correction to Energy=                    0.226454
 Thermal correction to Enthalpy=                  0.227398
 Thermal correction to Gibbs Free Energy=         0.164494
 Sum of electronic and zero-point Energies=           -989.970141
 Sum of electronic and thermal Energies=              -989.952723
 Sum of electronic and thermal Enthalpies=            -989.951779
 Sum of electronic and thermal Free Energies=         -990.014682

                     E (Thermal)             CV                S
                      KCal/Mol        Cal/Mol-Kelvin    Cal/Mol-Kelvin
 Total                  142.102             66.887            132.393
 Electronic               0.000              0.000              0.000
 Translational            0.889              2.981             42.635
 Rotational               0.889              2.981             33.409
 Vibrational            140.324             60.926             56.349
 Vibration     1          0.594              1.982              5.474
 Vibration     2          0.596              1.976              4.661
 Vibration     3          0.597              1.971              4.302
 Vibration     4          0.602              1.955              3.607
 Vibration     5          0.609              1.932              3.089
 Vibration     6          0.621              1.895              2.584
 Vibration     7          0.623              1.886              2.500
 Vibration     8          0.632              1.859              2.264
 Vibration     9          0.636              1.845              2.169
 Vibration    10          0.649              1.804              1.924
 Vibration    11          0.678              1.716              1.552
 Vibration    12          0.679              1.712              1.539
 Vibration    13          0.700              1.653              1.357
 Vibration    14          0.703              1.644              1.333
 Vibration    15          0.712              1.618              1.265
 Vibration    16          0.723              1.588              1.194
 Vibration    17          0.728              1.573              1.162
 Vibration    18          0.734              1.556              1.125
 Vibration    19          0.746              1.523              1.059
 Vibration    20          0.752              1.508              1.031
 Vibration    21          0.757              1.493              1.003
 Vibration    22          0.774              1.449              0.928
 Vibration    23          0.782              1.427              0.893
 Vibration    24          0.805              1.370              0.808
 Vibration    25          0.825              1.322              0.744
 Vibration    26          0.826              1.319              0.741
 Vibration    27          0.878              1.200              0.604
 Vibration    28          0.890              1.173              0.577
 Vibration    29          0.905              1.141              0.545
 Vibration    30          0.916              1.117              0.523
 Vibration    31          0.977              0.996              0.421

                           ! Non-Optimized Parameters !
 Normal termination of Gaussian 16 at Sun Feb 11 16:03:10 2024.
