 Gaussian 16, Revision A.03,
 Gaussian 16:  ES64L-G16RevA.03 25-Dec-2016

 --------------------------------------
 #P UB3LYP/6-311++G(d,p) nosym opt freq
 --------------------------------------

 -------
 Reduced
 -------
 Symbolic Z-matrix:
 Charge = -2 Multiplicity = 1

 SCF Done:  E(UB3LYP) =  -1300.81155836     A.U. after   23 cycles
 Optimization completed.
    -- Stationary point found.
 Normal termination of Gaussian 16 at Sat Jan  6 05:46:07 2024.

 ----------------------------------------------------------------------
 #P Geom=AllCheck Guess=TCheck SCRF=Check GenChk UB3LYP/6-311++G(d,p) F
 req
 ----------------------------------------------------------------------

 Structure from the checkpoint file:  "011-an.chk"
 -------
 Reduced
 -------
 Charge = -2 Multiplicity = 1

                          Input orientation:
 ---------------------------------------------------------------------
 Center     Atomic      Atomic             Coordinates (Angstroms)
 Number     Number       Type             X           Y           Z
 ---------------------------------------------------------------------
      1         17           0        3.019889   -0.831657   -0.189118
      2          6           0        1.266644   -0.359854   -0.079652
      3          6           0        0.993620    1.006210   -0.023869
      4          6           0       -0.342524    1.515164    0.064042
      5          8           0       -0.628802    2.781068    0.117561
      6          6           0       -1.328673    0.476508    0.086538
      7          6           0       -0.987751   -0.874066    0.027505
      8         17           0       -2.366639   -2.059787    0.066986
      9          6           0        0.326451   -1.444965   -0.061151
     10          8           0        0.609171   -2.694743   -0.113942
     11          1           0        1.811541    1.719845   -0.046945
     12          1           0       -2.372926    0.766278    0.152046
 ---------------------------------------------------------------------

 SCF Done:  E(UB3LYP) =  -1300.81155836     A.U. after    2 cycles

 Alpha  occ. eigenvalues -- -101.27331-101.27330 -18.74921 -18.74598  -9.92885
 Alpha  occ. eigenvalues --   -9.92884  -9.92430  -9.91401  -9.87193  -9.87190
 Alpha  occ. eigenvalues --   -9.18740  -9.18738  -6.95108  -6.95107  -6.94295
 Alpha  occ. eigenvalues --   -6.94293  -6.94243  -6.94242  -0.67135  -0.65605
 Alpha  occ. eigenvalues --   -0.57705  -0.57226  -0.50565  -0.42596  -0.39454
 Alpha  occ. eigenvalues --   -0.29455  -0.27388  -0.18609  -0.17686  -0.15857
 Alpha  occ. eigenvalues --   -0.12923  -0.11703  -0.09165  -0.07654  -0.07572
 Alpha  occ. eigenvalues --   -0.07530  -0.05509  -0.03984  -0.03499  -0.03369
 Alpha  occ. eigenvalues --    0.04150   0.04771   0.06821   0.07460   0.14343
 Alpha virt. eigenvalues --    0.20795   0.21164   0.22658   0.23529   0.26424
 Alpha virt. eigenvalues --    0.27203   0.27852   0.27926   0.29731   0.29954
 Alpha virt. eigenvalues --    0.30241   0.30754   0.31003   0.32410   0.32446

  Beta  occ. eigenvalues -- -101.27331-101.27330 -18.74921 -18.74598  -9.92885
  Beta  occ. eigenvalues --   -9.92884  -9.92430  -9.91401  -9.87193  -9.87190
  Beta  occ. eigenvalues --   -9.18740  -9.18738  -6.95108  -6.95107  -6.94295
  Beta  occ. eigenvalues --   -6.94293  -6.94243  -6.94242  -0.67135  -0.65605
  Beta  occ. eigenvalues --   -0.57705  -0.57226  -0.50565  -0.42596  -0.39454
  Beta  occ. eigenvalues --   -0.29455  -0.27388  -0.18609  -0.17686  -0.15857
  Beta  occ. eigenvalues --   -0.12923  -0.11703  -0.09165  -0.07654  -0.07572
  Beta  occ. eigenvalues --   -0.07530  -0.05509  -0.03984  -0.03499  -0.03369
  Beta  occ. eigenvalues --    0.04150   0.04771   0.06821   0.07460   0.14343
  Beta virt. eigenvalues --    0.20795   0.21164   0.22658   0.23529   0.26424
  Beta virt. eigenvalues --    0.27203   0.27852   0.27926   0.29731   0.29954
  Beta virt. eigenvalues --    0.30241   0.30754   0.31003   0.32410   0.32446

 Mulliken charges and spin densities:
               1          2
     1  Cl   0.041292  -0.000000
     2  C    1.482545   0.000000
     3  C   -0.612532  -0.000000
     4  C   -1.076234   0.000000
     5  O   -0.597192  -0.000000
     6  C   -0.612862  -0.000000
     7  C    1.483472  -0.000000
     8  Cl   0.041163   0.000000
     9  C   -1.831781  -0.000000
    10  O   -0.461536   0.000000
    11  H    0.071819   0.000000
    12  H    0.071846  -0.000000
 Sum of Mulliken charges =  -2.00000   0.00000

 Dipole moment (field-independent basis, Debye):
    X=             -0.4977    Y=              2.2107    Z=              0.0934  Tot=              2.2680
 Quadrupole moment (field-independent basis, Debye-Ang):
   XX=           -106.4480   YY=           -139.0743   ZZ=            -80.4120
   XY=              7.7204   XZ=              1.6559   YZ=             -2.1834

  Exact polarizability: 176.988   3.239 164.249  -5.220   2.372  79.617
 Approx polarizability: 258.539  -0.154 260.476  -7.986   4.467 112.357

                      1                      2                      3
                      A                      A                      A
 Frequencies --     89.8669               159.4052               187.2850
 Red. masses --     18.7058                12.6068                22.9095
 Frc consts  --      0.0890                 0.1887                 0.4734
 IR Inten    --      5.9525                 6.7159                 3.6972

                      4                      5                      6
                      A                      A                      A
 Frequencies --    207.8943               238.9356               301.4888
 Red. masses --      5.2712                17.0287                19.9769
 Frc consts  --      0.1342                 0.5728                 1.0698
 IR Inten    --      0.0000                 0.0709                 1.4762

                      7                      8                      9
                      A                      A                      A
 Frequencies --    315.0429               339.6054               438.9022
 Red. masses --      9.9791                22.0093                 8.5701
 Frc consts  --      0.5836                 1.4956                 0.9727
 IR Inten    --      2.9768                 0.2319                 8.7773

                     10                     11                     12
                      A                      A                      A
 Frequencies --    485.0039               496.0670               578.3892
 Red. masses --     13.2078                 5.7202                 1.7960
 Frc consts  --      1.8305                 0.8294                 0.3540
 IR Inten    --      0.2558                 0.0000                18.0774

                     13                     14                     15
                      A                      A                      A
 Frequencies --    616.8182               711.2884               738.8279
 Red. masses --      5.9114                10.4695                 9.6651
 Frc consts  --      1.3251                 3.1208                 3.1084
 IR Inten    --     16.7592               116.1281                 0.9162

                     16                     17                     18
                      A                      A                      A
 Frequencies --    770.9461               795.2261               812.5662
 Red. masses --      1.2924                 2.2686                 7.3927
 Frc consts  --      0.4526                 0.8452                 2.8759
 IR Inten    --      0.0005                45.5042               140.8587

                     19                     20                     21
                      A                      A                      A
 Frequencies --    886.5391              1003.7434              1093.1513
 Red. masses --     10.1968                 2.2693                 5.1597
 Frc consts  --      4.7218                 1.3471                 3.6327
 IR Inten    --     54.3939                49.4130               153.8127

                     22                     23                     24
                      A                      A                      A
 Frequencies --   1181.6795              1264.3152              1370.2478
 Red. masses --      1.8102                 2.1087                11.1427
 Frc consts  --      1.4893                 1.9860                12.3265
 IR Inten    --     91.3879               139.6283                27.7506

                     25                     26                     27
                      A                      A                      A
 Frequencies --   1375.0922              1408.9122              1468.2454
 Red. masses --      3.9234                 7.7846                 6.1176
 Frc consts  --      4.3709                 9.1044                 7.7701
 IR Inten    --     10.2155                85.8889              1254.5705

                     28                     29                     30
                      A                      A                      A
 Frequencies --   1600.3549              3144.7091              3147.3205
 Red. masses --      8.8438                 1.0893                 1.0879
 Frc consts  --     13.3451                 6.3470                 6.3493
 IR Inten    --     12.0885                38.8206                38.9482

 - Thermochemistry -
 -------------------
 Temperature   298.150 Kelvin.  Pressure   1.00000 Atm.
 Atom     1 has atomic number 17 and mass  34.96885

 Molecular mass:   175.94318 amu.
 Principal axes and moments of inertia in atomic units:
                           1         2         3
     Eigenvalues --  1558.489542179.739883738.22942
           X            0.97395  -0.22018   0.05427
           Y            0.22199   0.97459  -0.02992
           Z           -0.04631   0.04119   0.99808
 This molecule is an asymmetric top.
 Rotational symmetry number  1.
 Warning -- assumption of classical behavior for rotation
           may cause significant error
 Rotational temperatures (Kelvin)      0.05558     0.03974     0.02317
 Rotational constants (GHZ):           1.15801     0.82796     0.48278
 Zero-point vibrational energy     162858.8 (Joules/Mol)
                                   38.92419 (Kcal/Mol)
 Warning -- explicit consideration of  13 degrees of freedom as
           vibrations may cause significant error
 Vibrational temperatures:    129.30   229.35   269.46   299.11   343.78
          (Kelvin)            433.78   453.28   488.62   631.48   697.81
                              713.73   832.17   887.46  1023.39  1063.01
                             1109.22  1144.15  1169.10  1275.53  1444.16
                             1572.80  1700.17  1819.07  1971.48  1978.45
                             2027.11  2112.48  2302.55  4524.53  4528.29

 Zero-point correction=                           0.062030 (Hartree/Particle)
 Thermal correction to Energy=                    0.070758
 Thermal correction to Enthalpy=                  0.071702
 Thermal correction to Gibbs Free Energy=         0.027331
 Sum of electronic and zero-point Energies=          -1300.749529
 Sum of electronic and thermal Energies=             -1300.740801
 Sum of electronic and thermal Enthalpies=           -1300.739857
 Sum of electronic and thermal Free Energies=        -1300.784228

                     E (Thermal)             CV                S
                      KCal/Mol        Cal/Mol-Kelvin    Cal/Mol-Kelvin
 Total                   44.401             31.777             93.387
 Electronic               0.000              0.000              0.000
 Translational            0.889              2.981             41.402
 Rotational               0.889              2.981             30.919
 Vibrational             42.624             25.815             21.066
 Vibration     1          0.602              1.956              3.663
 Vibration     2          0.621              1.892              2.557
 Vibration     3          0.632              1.857              2.255
 Vibration     4          0.641              1.829              2.062
 Vibration     5          0.657              1.781              1.811
 Vibration     6          0.693              1.671              1.409
 Vibration     7          0.702              1.645              1.336
 Vibration     8          0.720              1.596              1.214
 Vibration     9          0.799              1.385              0.830
 Vibration    10          0.841              1.283              0.697
 Vibration    11          0.852              1.259              0.668
 Vibration    12          0.935              1.078              0.488
 Vibration    13          0.976              0.996              0.422

 Optimization completed.
    -- Stationary point found.
 Normal termination of Gaussian 16 at Sat Jan  6 05:51:17 2024.
