 Q-Chem 5.4, Q-Chem, Inc., Pleasanton, CA (2021)
 Q-Chem 5.4.0 for Intel X86 EM64T Linux

User input:
--------------------------------------------------------------
$molecule
-2 1
Cl                 3.0198890000     -0.8316570000     -0.1891180000
C                  1.2666440000     -0.3598540000     -0.0796520000
C                  0.9936200000      1.0062100000     -0.0238690000
C                 -0.3425240000      1.5151640000      0.0640420000
O                 -0.6288020000      2.7810680000      0.1175610000
C                 -1.3286730000      0.4765080000      0.0865380000
C                 -0.9877510000     -0.8740660000      0.0275050000
Cl                -2.3666390000     -2.0597870000      0.0669860000
C                  0.3264510000     -1.4449650000     -0.0611510000
O                  0.6091710000     -2.6947430000     -0.1139420000
H                  1.8115410000      1.7198450000     -0.0469450000
H                 -2.3729260000      0.7662780000      0.1520460000
$end

$rem
BASIS  =  6-311++G(d,p)
GUI  =  2
JOB_TYPE  =  SP
METHOD  =  B3LYP
SCF_CONVERGENCE  = 8
SOLVENT_METHOD = sm12
$end

$smx
solvent dimethylformamide
charges CM5
$end

--------------------------------------------------------------

             Standard Nuclear Orientation (Angstroms)
    I     Atom           X                Y                Z
 ----------------------------------------------------------------
    1      Cl      3.0198890000    -0.8316570000    -0.1891180000
    2      C       1.2666440000    -0.3598540000    -0.0796520000
    3      C       0.9936200000     1.0062100000    -0.0238690000
    4      C      -0.3425240000     1.5151640000     0.0640420000
    5      O      -0.6288020000     2.7810680000     0.1175610000
    6      C      -1.3286730000     0.4765080000     0.0865380000
    7      C      -0.9877510000    -0.8740660000     0.0275050000
    8      Cl     -2.3666390000    -2.0597870000     0.0669860000
    9      C       0.3264510000    -1.4449650000    -0.0611510000
   10      O       0.6091710000    -2.6947430000    -0.1139420000
   11      H       1.8115410000     1.7198450000    -0.0469450000
   12      H      -2.3729260000     0.7662780000     0.1520460000
 ----------------------------------------------------------------

   16   -1300.8075426467      6.34e-09  Convergence criterion met
 Total energy in the final basis set =    -1301.0871650603

                    Orbital Energies (a.u.)
 --------------------------------------------------------------

 Alpha MOs
 -- Occupied --
********-101.5300 -19.0217 -19.0188 -10.1966 -10.1966 -10.1936 -10.1883
-10.1453 -10.1453  -9.4427  -9.4426  -7.2068  -7.2066  -7.1982  -7.1981
 -7.1976  -7.1975  -0.9408  -0.9310  -0.8404  -0.8326  -0.7716  -0.6952
 -0.6656  -0.5636  -0.5447  -0.4576  -0.4497  -0.4208  -0.3946  -0.3854
 -0.3626  -0.3462  -0.3455  -0.3289  -0.3251  -0.2923  -0.2923  -0.2866
 -0.2288  -0.2213  -0.1998  -0.1990  -0.1286

          Ground-State Mulliken Net Atomic Charges

     Atom                 Charge (a.u.)
  ----------------------------------------
      1 Cl                    0.724637
      2 C                     1.531413
      3 C                    -1.404168
      4 C                    -1.835059
      5 O                    -0.480129
      6 C                    -1.400339
      7 C                     1.530462
      8 Cl                    0.725865
      9 C                    -1.086236
     10 O                    -0.364844
     11 H                     0.029340
     12 H                     0.029058
  ----------------------------------------
  Sum of atomic charges =    -2.000000

                    Cartesian Multipole Moments
 -----------------------------------------------------------------
    Charge (ESU x 10^10)
                -9.6064
    Dipole Moment (Debye)
         X      -0.2398      Y       1.0690      Z       0.0446
       Tot       1.0965
    Quadrupole Moments (Debye-Ang)
        XX    -102.9219     XY       8.3322     YY    -138.0789
        XZ       1.4647     YZ      -2.1751     ZZ     -80.7555

 Total job time:  116.14s(wall), 783.44s(cpu)
        *  Thank you very much for using Q-Chem.  Have a nice day.  *
