 Q-Chem 5.4, Q-Chem, Inc., Pleasanton, CA (2021)
 Q-Chem 5.4.0 for Intel X86 EM64T Linux

User input:
--------------------------------------------------------------
$molecule
-1 2
C                 -5.8514020000     -2.7907270000      3.6948970000
C                 -6.5888840000     -3.2066440000      2.6005730000
C                 -7.5211160000     -2.3321990000      2.0078300000
C                 -6.0158890000     -1.4986360000      4.2326850000
C                 -6.9539940000     -0.6193130000      3.6357900000
C                 -7.6965020000     -1.0598760000      2.5223150000
C                 -5.2181240000     -1.0854490000      5.3977010000
C                 -5.4427130000      0.2566710000      5.8991380000
C                 -6.3539580000      1.1202340000      5.3019560000
C                 -7.1589810000      0.7371800000      4.1625410000
O                 -4.3837260000     -1.8742860000      5.9227520000
O                 -7.9987700000      1.5232080000      3.6394810000
H                 -6.4503960000     -4.2060490000      2.1980600000
H                 -8.1005190000     -2.6576800000      1.1485590000
C                 -4.6291020000      0.6716910000      7.1017910000
H                 -5.1272490000     -3.4415180000      4.1714860000
H                 -8.4066640000     -0.3650990000      2.0885110000
H                 -3.9095900000      1.4631900000      6.8532160000
H                 -4.0679850000     -0.1891730000      7.4659060000
H                 -5.2636100000      1.0536760000      7.9082750000
C                 -6.5771110000      2.5317910000      5.8194320000
C                 -7.6967260000      2.6011810000      6.8274750000
C                 -7.7141890000      3.1755570000      8.0391940000
C                 -8.9700340000      3.1237840000      8.8865340000
C                 -9.6735490000      4.4940910000      9.0643130000
C                -10.8731340000      4.4102860000      9.9653340000
C                -12.1676220000      4.5973290000      9.6695890000
C                 -6.5421820000      3.8986290000      8.6603180000
C                -13.2247580000      4.4285800000     10.7427780000
C                -14.1430640000      3.1965320000     10.5411680000
C                -15.1972540000      3.0918100000     11.6074660000
C                -15.3791920000      2.1281030000     12.5217780000
C                -12.6833850000      4.9805390000      8.3035620000
C                -14.5288330000      0.8860600000     12.6344750000
C                -16.5093060000      2.2374580000     13.5261200000
C                -16.0416060000      2.4832140000     14.9830120000
C                -17.1915920000      2.5333160000     15.9499320000
C                -17.6143160000      3.5575430000     16.7048210000
C                -16.9582160000      4.9164400000     16.7452810000
C                -18.8206050000      3.3898130000     17.6072060000
C                -20.0668700000      4.1940680000     17.1583650000
C                -21.2164730000      4.0431000000     18.1154770000
C                -22.4203390000      3.4911870000     17.9065760000
C                -22.8779610000      2.9125310000     16.5897620000
C                -23.4331090000      3.4294220000     19.0325950000
C                -23.7113780000      1.9987600000     19.5591060000
C                -24.7546760000      1.9835840000     20.6416710000
C                -24.6278150000      1.6285510000     21.9282860000
C                -23.3496890000      1.1247940000     22.5536140000
C                -25.8211810000      1.7062140000     22.8595690000
C                -25.7163290000      2.8164850000     23.9355320000
C                -26.8903360000      2.8110340000     24.8748930000
C                -27.8252170000      3.7538620000     25.0608300000
C                -27.8571430000      5.0793270000     24.3393740000
C                -28.9413420000      3.5296150000     26.0613950000
H                 -6.8729580000      3.1416710000      4.9580270000
H                 -5.6516070000      2.9464960000      6.2231860000
H                 -8.6067810000      2.1083870000      6.4905620000
H                 -8.7257190000      2.7293170000      9.8839000000
H                 -9.6824380000      2.4244430000      8.4397320000
H                 -9.9339110000      4.8812170000      8.0767640000
H                 -8.9603810000      5.2056730000      9.4989810000
H                -10.6403820000      4.1354530000     10.9951620000
H                 -5.6282760000      3.7853240000      8.0778610000
H                 -6.3450250000      3.5197320000      9.6713860000
H                 -6.7358210000      4.9739200000      8.7608590000
H                -13.8556010000      5.3281300000     10.7802790000
H                -12.7423080000      4.3442090000     11.7211700000
H                -13.5207710000      2.3003510000     10.4973280000
H                -14.6386200000      3.2770840000      9.5660720000
H                -15.8930370000      3.9315650000     11.6329170000
H                -11.8848430000      5.1467780000      7.5817960000
H                -13.2824870000      5.8977480000      8.3633200000
H                -13.3384240000      4.2046990000      7.8924050000
H                -13.7573230000      0.8279120000     11.8679230000
H                -15.1525750000     -0.0121510000     12.5516270000
H                -14.0301490000      0.8311530000     13.6082520000
H                -17.1065930000      1.3153960000     13.5045250000
H                -17.1805120000      3.0511540000     13.2358690000
H                -15.4499870000      3.4008340000     15.0101990000
H                -15.3682530000      1.6712410000     15.2831820000
H                -17.7543270000      1.6020690000     16.0241330000
H                -16.0706700000      4.9789800000     16.1168100000
H                -16.6622040000      5.1666530000     17.7711560000
H                -17.6487580000      5.7017910000     16.4194050000
H                -18.5571770000      3.6995070000     18.6279960000
H                -19.0927170000      2.3317760000     17.6628110000
H                -20.3386550000      3.8829820000     16.1473330000
H                -19.8025000000      5.2566630000     17.0952760000
H                -21.0196170000      4.4313790000     19.1153700000
H                -22.1367530000      3.0167460000     15.7982650000
H                -23.7983560000      3.4062210000     16.2557020000
H                -23.1121200000      1.8467310000     16.6837770000
H                -24.3826910000      3.8647470000     18.6921250000
H                -23.0894890000      4.0454540000     19.8686460000
H                -22.7700420000      1.5617780000     19.8993350000
H                -24.0609880000      1.3737770000     18.7283880000
H                -25.7398950000      2.3215010000     20.3185830000
H                -22.5280330000      1.0489430000     21.8423590000
H                -23.5061250000      0.1326280000     22.9934960000
H                -23.0212080000      1.7788000000     23.3684380000
H                -25.9481200000      0.7408310000     23.3683340000
H                -26.7315350000      1.8735230000     22.2766620000
H                -25.6040320000      3.7802870000     23.4341680000
H                -24.8011530000      2.6624250000     24.5200640000
H                -26.9824030000      1.9018390000     25.4698760000
H                -27.0107700000      5.2195340000     23.6679010000
H                -27.8549220000      5.9056220000     25.0601530000
H                -28.7709690000      5.1863710000     23.7451760000
H                -28.9838300000      4.3805710000     26.7549900000
H                -28.7192920000      2.6454930000     26.6659200000
C                -30.3415920000      3.3483840000     25.4227780000
C                -31.4195350000      3.1765720000     26.4569340000
C                -32.2042530000      2.1140270000     26.6865260000
C                -32.1668800000      0.8352410000     25.8855070000
C                -33.2238240000      2.1503040000     27.8074730000
C                -32.8876350000      1.2206720000     29.0009580000
C                -33.9544980000      1.2445440000     30.0603040000
C                -33.8737530000      1.6771650000     31.3267120000
C                -32.6202180000      2.2260280000     31.9636640000
C                -35.0908940000      1.6211840000     32.2282000000
C                -35.6840860000      3.0079990000     32.5827600000
C                -36.8498340000      2.9044180000     33.5268040000
C                -38.1296030000      3.2411480000     33.3175960000
C                -38.6691610000      3.8275200000     32.0371030000
C                -39.1657570000      3.0528830000     34.3993970000
H                -30.3050820000      2.5022540000     24.7330970000
H                -30.5757290000      4.2323910000     24.8172320000
H                -31.5579770000      4.0411690000     27.1068770000
H                -31.4464670000      0.8644170000     25.0688030000
H                -33.1538220000      0.6260670000     25.4559920000
H                -31.9141210000     -0.0223840000     26.5180180000
H                -34.2087550000      1.8661900000     27.4125190000
H                -33.3212740000      3.1733700000     28.1820290000
H                -31.9129020000      1.5058710000     29.4028070000
H                -32.7828880000      0.1922230000     28.6345930000
H                -34.9213750000      0.8631920000     29.7305030000
H                -31.7625610000      2.2204320000     31.2918550000
H                -32.3559000000      1.6393310000     32.8514960000
H                -32.7664410000      3.2568280000     32.3035290000
H                -34.8270820000      1.1073760000     33.1626670000
H                -35.8724450000      1.0213700000     31.7530280000
H                -35.9592040000      3.5194270000     31.6576040000
H                -34.9059450000      3.6203560000     33.0545450000
H                -36.6020390000      2.4853820000     34.5023140000
H                -37.9137100000      3.9360090000     31.2595840000
H                -39.1075330000      4.8155900000     32.2216250000
H                -39.4752440000      3.2000880000     31.6388530000
H                -38.7326880000      2.6272770000     35.3068900000
H                -39.9708360000      2.3894740000     34.0611480000
H                -39.6376610000      4.0075250000     34.6616710000
$end

$rem
BASIS  =  6-311++G(d,p)
GUI  =  2
JOB_TYPE  =  SP
METHOD  =  B3LYP
SCF_CONVERGENCE  = 8
SOLVENT_METHOD = sm12
$end

$smx
solvent dimethylformamide
charges CM5
$end

--------------------------------------------------------------

             Standard Nuclear Orientation (Angstroms)
    I     Atom           X                Y                Z
 ----------------------------------------------------------------
    1      C      -5.8514020000    -2.7907270000     3.6948970000
    2      C      -6.5888840000    -3.2066440000     2.6005730000
    3      C      -7.5211160000    -2.3321990000     2.0078300000
    4      C      -6.0158890000    -1.4986360000     4.2326850000
    5      C      -6.9539940000    -0.6193130000     3.6357900000
    6      C      -7.6965020000    -1.0598760000     2.5223150000
    7      C      -5.2181240000    -1.0854490000     5.3977010000
    8      C      -5.4427130000     0.2566710000     5.8991380000
    9      C      -6.3539580000     1.1202340000     5.3019560000
   10      C      -7.1589810000     0.7371800000     4.1625410000
   11      O      -4.3837260000    -1.8742860000     5.9227520000
   12      O      -7.9987700000     1.5232080000     3.6394810000
   13      H      -6.4503960000    -4.2060490000     2.1980600000
   14      H      -8.1005190000    -2.6576800000     1.1485590000
   15      C      -4.6291020000     0.6716910000     7.1017910000
   16      H      -5.1272490000    -3.4415180000     4.1714860000
   17      H      -8.4066640000    -0.3650990000     2.0885110000
   18      H      -3.9095900000     1.4631900000     6.8532160000
   19      H      -4.0679850000    -0.1891730000     7.4659060000
   20      H      -5.2636100000     1.0536760000     7.9082750000
   21      C      -6.5771110000     2.5317910000     5.8194320000
   22      C      -7.6967260000     2.6011810000     6.8274750000
   23      C      -7.7141890000     3.1755570000     8.0391940000
   24      C      -8.9700340000     3.1237840000     8.8865340000
   25      C      -9.6735490000     4.4940910000     9.0643130000
   26      C     -10.8731340000     4.4102860000     9.9653340000
   27      C     -12.1676220000     4.5973290000     9.6695890000
   28      C      -6.5421820000     3.8986290000     8.6603180000
   29      C     -13.2247580000     4.4285800000    10.7427780000
   30      C     -14.1430640000     3.1965320000    10.5411680000
   31      C     -15.1972540000     3.0918100000    11.6074660000
   32      C     -15.3791920000     2.1281030000    12.5217780000
   33      C     -12.6833850000     4.9805390000     8.3035620000
   34      C     -14.5288330000     0.8860600000    12.6344750000
   35      C     -16.5093060000     2.2374580000    13.5261200000
   36      C     -16.0416060000     2.4832140000    14.9830120000
   37      C     -17.1915920000     2.5333160000    15.9499320000
   38      C     -17.6143160000     3.5575430000    16.7048210000
   39      C     -16.9582160000     4.9164400000    16.7452810000
   40      C     -18.8206050000     3.3898130000    17.6072060000
   41      C     -20.0668700000     4.1940680000    17.1583650000
   42      C     -21.2164730000     4.0431000000    18.1154770000
   43      C     -22.4203390000     3.4911870000    17.9065760000
   44      C     -22.8779610000     2.9125310000    16.5897620000
   45      C     -23.4331090000     3.4294220000    19.0325950000
   46      C     -23.7113780000     1.9987600000    19.5591060000
   47      C     -24.7546760000     1.9835840000    20.6416710000
   48      C     -24.6278150000     1.6285510000    21.9282860000
   49      C     -23.3496890000     1.1247940000    22.5536140000
   50      C     -25.8211810000     1.7062140000    22.8595690000
   51      C     -25.7163290000     2.8164850000    23.9355320000
   52      C     -26.8903360000     2.8110340000    24.8748930000
   53      C     -27.8252170000     3.7538620000    25.0608300000
   54      C     -27.8571430000     5.0793270000    24.3393740000
   55      C     -28.9413420000     3.5296150000    26.0613950000
   56      H      -6.8729580000     3.1416710000     4.9580270000
   57      H      -5.6516070000     2.9464960000     6.2231860000
   58      H      -8.6067810000     2.1083870000     6.4905620000
   59      H      -8.7257190000     2.7293170000     9.8839000000
   60      H      -9.6824380000     2.4244430000     8.4397320000
   61      H      -9.9339110000     4.8812170000     8.0767640000
   62      H      -8.9603810000     5.2056730000     9.4989810000
   63      H     -10.6403820000     4.1354530000    10.9951620000
   64      H      -5.6282760000     3.7853240000     8.0778610000
   65      H      -6.3450250000     3.5197320000     9.6713860000
   66      H      -6.7358210000     4.9739200000     8.7608590000
   67      H     -13.8556010000     5.3281300000    10.7802790000
   68      H     -12.7423080000     4.3442090000    11.7211700000
   69      H     -13.5207710000     2.3003510000    10.4973280000
   70      H     -14.6386200000     3.2770840000     9.5660720000
   71      H     -15.8930370000     3.9315650000    11.6329170000
   72      H     -11.8848430000     5.1467780000     7.5817960000
   73      H     -13.2824870000     5.8977480000     8.3633200000
   74      H     -13.3384240000     4.2046990000     7.8924050000
   75      H     -13.7573230000     0.8279120000    11.8679230000
   76      H     -15.1525750000    -0.0121510000    12.5516270000
   77      H     -14.0301490000     0.8311530000    13.6082520000
   78      H     -17.1065930000     1.3153960000    13.5045250000
   79      H     -17.1805120000     3.0511540000    13.2358690000
   80      H     -15.4499870000     3.4008340000    15.0101990000
   81      H     -15.3682530000     1.6712410000    15.2831820000
   82      H     -17.7543270000     1.6020690000    16.0241330000
   83      H     -16.0706700000     4.9789800000    16.1168100000
   84      H     -16.6622040000     5.1666530000    17.7711560000
   85      H     -17.6487580000     5.7017910000    16.4194050000
   86      H     -18.5571770000     3.6995070000    18.6279960000
   87      H     -19.0927170000     2.3317760000    17.6628110000
   88      H     -20.3386550000     3.8829820000    16.1473330000
   89      H     -19.8025000000     5.2566630000    17.0952760000
   90      H     -21.0196170000     4.4313790000    19.1153700000
   91      H     -22.1367530000     3.0167460000    15.7982650000
   92      H     -23.7983560000     3.4062210000    16.2557020000
   93      H     -23.1121200000     1.8467310000    16.6837770000
   94      H     -24.3826910000     3.8647470000    18.6921250000
   95      H     -23.0894890000     4.0454540000    19.8686460000
   96      H     -22.7700420000     1.5617780000    19.8993350000
   97      H     -24.0609880000     1.3737770000    18.7283880000
   98      H     -25.7398950000     2.3215010000    20.3185830000
   99      H     -22.5280330000     1.0489430000    21.8423590000
  100      H     -23.5061250000     0.1326280000    22.9934960000
  101      H     -23.0212080000     1.7788000000    23.3684380000
  102      H     -25.9481200000     0.7408310000    23.3683340000
  103      H     -26.7315350000     1.8735230000    22.2766620000
  104      H     -25.6040320000     3.7802870000    23.4341680000
  105      H     -24.8011530000     2.6624250000    24.5200640000
  106      H     -26.9824030000     1.9018390000    25.4698760000
  107      H     -27.0107700000     5.2195340000    23.6679010000
  108      H     -27.8549220000     5.9056220000    25.0601530000
  109      H     -28.7709690000     5.1863710000    23.7451760000
  110      H     -28.9838300000     4.3805710000    26.7549900000
  111      H     -28.7192920000     2.6454930000    26.6659200000
  112      C     -30.3415920000     3.3483840000    25.4227780000
  113      C     -31.4195350000     3.1765720000    26.4569340000
  114      C     -32.2042530000     2.1140270000    26.6865260000
  115      C     -32.1668800000     0.8352410000    25.8855070000
  116      C     -33.2238240000     2.1503040000    27.8074730000
  117      C     -32.8876350000     1.2206720000    29.0009580000
  118      C     -33.9544980000     1.2445440000    30.0603040000
  119      C     -33.8737530000     1.6771650000    31.3267120000
  120      C     -32.6202180000     2.2260280000    31.9636640000
  121      C     -35.0908940000     1.6211840000    32.2282000000
  122      C     -35.6840860000     3.0079990000    32.5827600000
  123      C     -36.8498340000     2.9044180000    33.5268040000
  124      C     -38.1296030000     3.2411480000    33.3175960000
  125      C     -38.6691610000     3.8275200000    32.0371030000
  126      C     -39.1657570000     3.0528830000    34.3993970000
  127      H     -30.3050820000     2.5022540000    24.7330970000
  128      H     -30.5757290000     4.2323910000    24.8172320000
  129      H     -31.5579770000     4.0411690000    27.1068770000
  130      H     -31.4464670000     0.8644170000    25.0688030000
  131      H     -33.1538220000     0.6260670000    25.4559920000
  132      H     -31.9141210000    -0.0223840000    26.5180180000
  133      H     -34.2087550000     1.8661900000    27.4125190000
  134      H     -33.3212740000     3.1733700000    28.1820290000
  135      H     -31.9129020000     1.5058710000    29.4028070000
  136      H     -32.7828880000     0.1922230000    28.6345930000
  137      H     -34.9213750000     0.8631920000    29.7305030000
  138      H     -31.7625610000     2.2204320000    31.2918550000
  139      H     -32.3559000000     1.6393310000    32.8514960000
  140      H     -32.7664410000     3.2568280000    32.3035290000
  141      H     -34.8270820000     1.1073760000    33.1626670000
  142      H     -35.8724450000     1.0213700000    31.7530280000
  143      H     -35.9592040000     3.5194270000    31.6576040000
  144      H     -34.9059450000     3.6203560000    33.0545450000
  145      H     -36.6020390000     2.4853820000    34.5023140000
  146      H     -37.9137100000     3.9360090000    31.2595840000
  147      H     -39.1075330000     4.8155900000    32.2216250000
  148      H     -39.4752440000     3.2000880000    31.6388530000
  149      H     -38.7326880000     2.6272770000    35.3068900000
  150      H     -39.9708360000     2.3894740000    34.0611480000
  151      H     -39.6376610000     4.0075250000    34.6616710000
 ----------------------------------------------------------------

   15   -2528.5705351927      6.45e-09  Convergence criterion met
 Total energy in the final basis set =    -2528.6845061517

                    Orbital Energies (a.u.)
 --------------------------------------------------------------

 Alpha MOs
 -- Occupied --
-19.0738 -19.0733 -10.2200 -10.2192 -10.1820 -10.1815 -10.1785 -10.1778
-10.1777 -10.1773 -10.1769 -10.1765 -10.1763 -10.1762 -10.1762 -10.1760
-10.1760 -10.1758 -10.1758 -10.1756 -10.1733 -10.1714 -10.1710 -10.1709
-10.1708 -10.1703 -10.1703 -10.1702 -10.1702 -10.1699 -10.1699 -10.1699
-10.1698 -10.1698 -10.1696 -10.1696 -10.1695 -10.1695 -10.1695 -10.1693
-10.1693 -10.1656 -10.1651 -10.1638 -10.1635 -10.1629 -10.1629 -10.1628
-10.1628 -10.1628 -10.1627 -10.1627 -10.1627 -10.1626 -10.1626 -10.1626
-10.1625 -10.1624 -10.1624 -10.1624 -10.1624 -10.1620 -10.1618  -0.9983
 -0.9958  -0.8630  -0.8343  -0.8336  -0.8321  -0.8300  -0.8273  -0.8240
 -0.8201  -0.8159  -0.8115  -0.8076  -0.8052  -0.7807  -0.7760  -0.7700
 -0.7643  -0.7582  -0.7560  -0.7512  -0.7440  -0.7372  -0.7313  -0.7264
 -0.7229  -0.6952  -0.6936  -0.6903  -0.6901  -0.6895  -0.6886  -0.6872
 -0.6848  -0.6814  -0.6765  -0.6710  -0.6644  -0.6545  -0.6468  -0.6376
 -0.6278  -0.6184  -0.6100  -0.6048  -0.5998  -0.5940  -0.5895  -0.5867
 -0.5851  -0.5578  -0.5262  -0.5255  -0.5249  -0.5242  -0.5229  -0.5211
 -0.5190  -0.5169  -0.5151  -0.5139  -0.5124  -0.4971  -0.4819  -0.4816
 -0.4811  -0.4805  -0.4799  -0.4795  -0.4773  -0.4737  -0.4698  -0.4692
 -0.4662  -0.4524  -0.4497  -0.4489  -0.4475  -0.4453  -0.4424  -0.4400
 -0.4386  -0.4353  -0.4343  -0.4325  -0.4323  -0.4313  -0.4274  -0.4241
 -0.4205  -0.4201  -0.4186  -0.4169  -0.4162  -0.4145  -0.4137  -0.4111
 -0.4109  -0.4097  -0.4072  -0.4055  -0.4048  -0.4044  -0.4042  -0.4026
 -0.4008  -0.3973  -0.3955  -0.3947  -0.3932  -0.3868  -0.3852  -0.3808
 -0.3757  -0.3754  -0.3752  -0.3750  -0.3745  -0.3744  -0.3735  -0.3725
 -0.3722  -0.3717  -0.3713  -0.3699  -0.3688  -0.3683  -0.3670  -0.3660
 -0.3660  -0.3643  -0.3630  -0.3613  -0.3594  -0.3580  -0.3574  -0.3541
 -0.3519  -0.3483  -0.3430  -0.3417  -0.3410  -0.3404  -0.3392  -0.3384
 -0.3374  -0.3369  -0.3321  -0.3319  -0.3309  -0.3307  -0.3302  -0.3265
 -0.3215  -0.3169  -0.3134  -0.3110  -0.2708  -0.2627  -0.2547  -0.2538
 -0.2519  -0.2493  -0.2465  -0.2441  -0.2436  -0.2403  -0.2364  -0.2325
 -0.2293  -0.2269  -0.2249  -0.1519

 Beta MOs
 -- Occupied --
-19.0672 -19.0669 -10.2186 -10.2178 -10.1816 -10.1811 -10.1785 -10.1777
-10.1776 -10.1768 -10.1765 -10.1763 -10.1763 -10.1762 -10.1762 -10.1760
-10.1760 -10.1758 -10.1758 -10.1756 -10.1719 -10.1714 -10.1710 -10.1708
-10.1703 -10.1703 -10.1702 -10.1702 -10.1700 -10.1699 -10.1699 -10.1698
-10.1698 -10.1696 -10.1696 -10.1695 -10.1695 -10.1695 -10.1695 -10.1693
-10.1693 -10.1656 -10.1649 -10.1638 -10.1635 -10.1629 -10.1629 -10.1628
-10.1628 -10.1628 -10.1627 -10.1627 -10.1627 -10.1626 -10.1626 -10.1626
-10.1625 -10.1624 -10.1624 -10.1624 -10.1624 -10.1620 -10.1619  -0.9870
 -0.9843  -0.8611  -0.8342  -0.8335  -0.8318  -0.8297  -0.8268  -0.8235
 -0.8196  -0.8153  -0.8109  -0.8071  -0.8050  -0.7806  -0.7757  -0.7695
 -0.7635  -0.7577  -0.7543  -0.7508  -0.7435  -0.7367  -0.7308  -0.7261
 -0.7228  -0.6936  -0.6933  -0.6903  -0.6901  -0.6895  -0.6886  -0.6871
 -0.6848  -0.6813  -0.6764  -0.6709  -0.6614  -0.6511  -0.6463  -0.6374
 -0.6277  -0.6182  -0.6097  -0.6043  -0.5994  -0.5936  -0.5889  -0.5859
 -0.5840  -0.5552  -0.5258  -0.5254  -0.5248  -0.5240  -0.5228  -0.5210
 -0.5189  -0.5168  -0.5150  -0.5138  -0.5115  -0.4950  -0.4819  -0.4816
 -0.4810  -0.4805  -0.4799  -0.4795  -0.4771  -0.4735  -0.4696  -0.4667
 -0.4662  -0.4513  -0.4497  -0.4488  -0.4473  -0.4450  -0.4420  -0.4398
 -0.4382  -0.4348  -0.4343  -0.4324  -0.4321  -0.4308  -0.4240  -0.4224
 -0.4204  -0.4197  -0.4185  -0.4167  -0.4155  -0.4143  -0.4130  -0.4109
 -0.4108  -0.4067  -0.4055  -0.4047  -0.4044  -0.4044  -0.4038  -0.4007
 -0.3974  -0.3966  -0.3947  -0.3932  -0.3932  -0.3852  -0.3848  -0.3798
 -0.3757  -0.3754  -0.3751  -0.3745  -0.3744  -0.3735  -0.3726  -0.3724
 -0.3721  -0.3715  -0.3706  -0.3692  -0.3685  -0.3674  -0.3664  -0.3657
 -0.3647  -0.3632  -0.3614  -0.3595  -0.3579  -0.3574  -0.3539  -0.3491
 -0.3456  -0.3430  -0.3415  -0.3409  -0.3399  -0.3391  -0.3388  -0.3374
 -0.3373  -0.3360  -0.3319  -0.3319  -0.3309  -0.3307  -0.3301  -0.3263
 -0.3213  -0.3168  -0.3133  -0.3110  -0.2561  -0.2546  -0.2536  -0.2514
 -0.2494  -0.2485  -0.2448  -0.2406  -0.2381  -0.2362  -0.2328  -0.2312
 -0.2280  -0.2254  -0.2240

          Ground-State Mulliken Net Atomic Charges

     Atom                 Charge (a.u.)    Spin (a.u.)
  --------------------------------------------------------
      1 C                    -0.049444       0.027187
      2 C                     0.914451       0.026630
      3 C                     0.867871       0.027709
      4 C                    -1.587487       0.009973
      5 C                    -0.851574       0.022089
      6 C                    -0.141216       0.027703
      7 C                    -1.937220       0.075621
      8 C                     0.071120       0.104013
      9 C                    -0.143961       0.101670
     10 C                    -1.998930       0.071762
     11 O                    -0.318854       0.245585
     12 O                    -0.267715       0.242454
     13 H                     0.356309      -0.002165
     14 H                     0.358375      -0.002163
     15 C                     0.487927       0.000855
     16 H                     0.151052      -0.002435
     17 H                     0.150294      -0.002501
     18 H                     0.228656       0.006486
     19 H                     0.177463      -0.002188
     20 H                     0.157801       0.004520
     21 C                     0.120323       0.013630
     22 C                    -1.184637       0.003823
     23 C                     0.560331       0.003520
     24 C                     0.675105      -0.002513
     25 C                    -0.629282       0.001054
     26 C                    -0.942196      -0.000283
     27 C                     0.864264      -0.000417
     28 C                     0.177783      -0.004235
     29 C                     0.263785       0.000203
     30 C                    -0.486730      -0.000028
     31 C                    -0.754063       0.000020
     32 C                     0.474456      -0.000004
     33 C                    -0.406138      -0.000074
     34 C                    -0.541700       0.000010
     35 C                     0.118237      -0.000001
     36 C                    -0.359544      -0.000000
     37 C                    -0.725867      -0.000001
     38 C                     0.396204       0.000000
     39 C                    -0.447868       0.000000
     40 C                    -0.006483       0.000000
     41 C                    -0.286508      -0.000000
     42 C                    -0.633593       0.000000
     43 C                     0.321604       0.000000
     44 C                    -0.491212      -0.000000
     45 C                    -0.085844      -0.000000
     46 C                    -0.257937      -0.000000
     47 C                    -0.592859      -0.000000
     48 C                     0.264357       0.000000
     49 C                    -0.495460       0.000000
     50 C                    -0.124136      -0.000000
     51 C                    -0.243131       0.000000
     52 C                    -0.574757      -0.000000
     53 C                     0.270650      -0.000000
     54 C                    -0.481867      -0.000000
     55 C                    -0.169583       0.000000
     56 H                     0.195579       0.003040
     57 H                     0.029964      -0.000040
     58 H                     0.114014      -0.000480
     59 H                     0.240856       0.000218
     60 H                     0.132961      -0.000546
     61 H                     0.041104       0.000184
     62 H                     0.176320       0.000165
     63 H                     0.133504      -0.000002
     64 H                     0.292399      -0.000006
     65 H                     0.199508       0.000156
     66 H                     0.228688      -0.000166
     67 H                     0.166611      -0.000000
     68 H                     0.245344      -0.000008
     69 H                     0.027563       0.000018
     70 H                     0.136495       0.000001
     71 H                     0.164849      -0.000000
     72 H                     0.150314      -0.000038
     73 H                     0.206118      -0.000001
     74 H                     0.168650      -0.000002
     75 H                     0.150960      -0.000006
     76 H                     0.184713       0.000000
     77 H                     0.178262       0.000001
     78 H                     0.146370      -0.000000
     79 H                     0.209099       0.000000
     80 H                     0.053500      -0.000000
     81 H                     0.133147      -0.000000
     82 H                     0.165406       0.000000
     83 H                     0.166826       0.000000
     84 H                     0.182084      -0.000000
     85 H                     0.182488      -0.000000
     86 H                     0.144897      -0.000000
     87 H                     0.188384       0.000000
     88 H                     0.066384       0.000000
     89 H                     0.130621      -0.000000
     90 H                     0.173581       0.000000
     91 H                     0.158877       0.000000
     92 H                     0.180125      -0.000000
     93 H                     0.181268      -0.000000
     94 H                     0.141086      -0.000000
     95 H                     0.181427       0.000000
     96 H                     0.071100      -0.000000
     97 H                     0.127257       0.000000
     98 H                     0.176912      -0.000000
     99 H                     0.158818      -0.000000
    100 H                     0.177623       0.000000
    101 H                     0.182583       0.000000
    102 H                     0.138194       0.000000
    103 H                     0.173487       0.000000
    104 H                     0.074870      -0.000000
    105 H                     0.126056       0.000000
    106 H                     0.177495       0.000000
    107 H                     0.160665      -0.000000
    108 H                     0.177445       0.000000
    109 H                     0.184042       0.000000
    110 H                     0.140772       0.000000
    111 H                     0.164112      -0.000000
    112 C                    -0.201345      -0.000000
    113 C                    -0.633059       0.000000
    114 C                     0.262985      -0.000000
    115 C                    -0.480114      -0.000000
    116 C                    -0.146135       0.000000
    117 C                    -0.114622      -0.000000
    118 C                    -0.409543      -0.000000
    119 C                     0.180177       0.000000
    120 C                    -0.509599       0.000000
    121 C                    -0.399943      -0.000000
    122 C                    -0.193350       0.000000
    123 C                    -0.155525      -0.000000
    124 C                    -0.098464       0.000000
    125 C                    -0.487067       0.000000
    126 C                    -0.413476      -0.000000
    127 H                     0.072936       0.000000
    128 H                     0.128064      -0.000000
    129 H                     0.175138       0.000000
    130 H                     0.159752       0.000000
    131 H                     0.177224      -0.000000
    132 H                     0.182990       0.000000
    133 H                     0.132275       0.000000
    134 H                     0.173882      -0.000000
    135 H                     0.088054      -0.000000
    136 H                     0.121648      -0.000000
    137 H                     0.199712      -0.000000
    138 H                     0.157458      -0.000000
    139 H                     0.178671       0.000000
    140 H                     0.186764       0.000000
    141 H                     0.137490       0.000000
    142 H                     0.154911      -0.000000
    143 H                     0.084808      -0.000000
    144 H                     0.123503       0.000000
    145 H                     0.176099      -0.000000
    146 H                     0.168385       0.000000
    147 H                     0.164503      -0.000000
    148 H                     0.164928       0.000000
    149 H                     0.179401       0.000000
    150 H                     0.171862       0.000000
    151 H                     0.166228       0.000000
  --------------------------------------------------------
  Sum of atomic charges =    -1.000001

                    Cartesian Multipole Moments
 -----------------------------------------------------------------
    Charge (ESU x 10^10)
                -4.8032
    Dipole Moment (Debye)
         X      30.3490      Y       1.4388      Z     -23.0645
       Tot      38.1458
    Quadrupole Moments (Debye-Ang)
        XX    -605.4133     XY       3.0823     YY    -416.9920
        XZ     145.1969     YZ      14.6707     ZZ    -530.5761

 Total job time:  44395.69s(wall), 110275.12s(cpu)
        *  Thank you very much for using Q-Chem.  Have a nice day.  *
