 Gaussian 16, Revision A.03,
 Gaussian 16:  ES64L-G16RevA.03 25-Dec-2016

 ----------------------------------------------------------------
 #P UB3LYP/6-311++G(d,p) SCRF=(PCM,Solvent=n,n-DiMethylFormamide)
 ----------------------------------------------------------------

 ------------------
 Radical PCM in DMF
 ------------------
 Symbolic Z-matrix:
 Charge = -1 Multiplicity = 2

                         Standard orientation:
 ---------------------------------------------------------------------
 Center     Atomic      Atomic             Coordinates (Angstroms)
 Number     Number       Type             X           Y           Z
 ---------------------------------------------------------------------
      1          6           0       -2.657134    1.432754   -0.000109
      2          6           0       -2.256156    2.755717    0.000051
      3          6           0       -0.882539    3.073966    0.000324
      4          6           0       -1.723602    0.374604   -0.000020
      5          6           0       -0.331822    0.703307    0.000230
      6          6           0        0.058762    2.059358    0.000386
      7          6           0       -2.212802   -1.012239   -0.000235
      8          6           0       -1.181353   -2.094209   -0.000103
      9          6           0        0.212782   -1.681675    0.000261
     10          6           0        0.618145   -0.374818    0.000275
     11          8           0       -3.436763   -1.269397   -0.000587
     12          8           0       -1.486862   -3.306849   -0.000186
     13          8           0        1.946690    0.027810    0.000278
     14          6           0        2.939104   -0.969923    0.000856
     15          6           0        4.306759   -0.357106    0.000109
     16          6           0        4.585727    0.943407   -0.001445
     17          1           0       -3.706482    1.160256   -0.000314
     18          1           0       -2.997160    3.549833    0.000003
     19          1           0       -0.561647    4.111281    0.000478
     20          1           0        1.115634    2.296603    0.000533
     21          1           0        0.922417   -2.500102    0.000380
     22          1           0        2.831841   -1.622587   -0.879669
     23          1           0        2.832098   -1.621287    0.882380
     24          1           0        5.116470   -1.085471    0.000854
     25          1           0        3.795732    1.683997   -0.002242
     26          1           0        5.611347    1.296101   -0.001936
 ---------------------------------------------------------------------

 SCF Done:  E(UB3LYP) =  -727.381214646     A.U. after   18 cycles

 The electronic state is 2-A.
 Alpha  occ. eigenvalues --  -19.15922 -19.07649 -19.07269 -10.23692 -10.23234
 Alpha  occ. eigenvalues --  -10.21760 -10.21517 -10.18275 -10.18228 -10.17385
 Alpha  occ. eigenvalues --  -10.17334 -10.17273 -10.17200 -10.16900 -10.16624
 Alpha  occ. eigenvalues --  -10.15742  -1.07367  -1.01268  -0.98590  -0.86423
 Alpha  occ. eigenvalues --   -0.81337  -0.78695  -0.75481  -0.73053  -0.70686
 Alpha  occ. eigenvalues --   -0.66859  -0.62050  -0.59690  -0.58662  -0.54849
 Alpha  occ. eigenvalues --   -0.52995  -0.51024  -0.49745  -0.48247  -0.47119
 Alpha  occ. eigenvalues --   -0.44835  -0.44386  -0.42891  -0.42289  -0.41948
 Alpha  occ. eigenvalues --   -0.41801  -0.40729  -0.38801  -0.37698  -0.36851
 Alpha  occ. eigenvalues --   -0.36003  -0.35799  -0.34304  -0.33712  -0.33657
 Alpha  occ. eigenvalues --   -0.27998  -0.26797  -0.25878  -0.25859  -0.22562
 Alpha  occ. eigenvalues --   -0.22412  -0.15085
 Alpha virt. eigenvalues --   -0.03502  -0.00816  -0.00417  -0.00123   0.00403
 Alpha virt. eigenvalues --    0.01090   0.02141   0.02307   0.03187   0.03552
 Alpha virt. eigenvalues --    0.04326   0.04382   0.04812   0.05576   0.05952

  Beta  occ. eigenvalues --  -19.15819 -19.06986 -19.06739 -10.23477 -10.23239
  Beta  occ. eigenvalues --  -10.21606 -10.21309 -10.18274 -10.18135 -10.17399
  Beta  occ. eigenvalues --  -10.17295 -10.17214 -10.17165 -10.16858 -10.16625
  Beta  occ. eigenvalues --  -10.15811  -1.07149  -1.00221  -0.97493  -0.86183
  Beta  occ. eigenvalues --   -0.81144  -0.78512  -0.75241  -0.72907  -0.70519
  Beta  occ. eigenvalues --   -0.66134  -0.61894  -0.59320  -0.58495  -0.54720
  Beta  occ. eigenvalues --   -0.52860  -0.50884  -0.49467  -0.47977  -0.47024
  Beta  occ. eigenvalues --   -0.44648  -0.44262  -0.42835  -0.42032  -0.41653
  Beta  occ. eigenvalues --   -0.40410  -0.40260  -0.38494  -0.36789  -0.36154
  Beta  occ. eigenvalues --   -0.35723  -0.35113  -0.34166  -0.33632  -0.31397
  Beta  occ. eigenvalues --   -0.27319  -0.26436  -0.25265  -0.24953  -0.21861
  Beta  occ. eigenvalues --   -0.21741
  Beta virt. eigenvalues --   -0.08424  -0.02792  -0.00403  -0.00334   0.00405
  Beta virt. eigenvalues --    0.00888   0.01105   0.02147   0.02324   0.03253
  Beta virt. eigenvalues --    0.03578   0.04390   0.04833   0.05311   0.05972

 Mulliken charges and spin densities:
               1          2
     1  C    0.060625   0.059436
     2  C   -0.468475   0.006636
     3  C   -0.353806   0.069739
     4  C    0.445996   0.015425
     5  C    0.321205   0.051642
     6  C   -0.196583  -0.001914
     7  C   -0.524972   0.137748
     8  C   -0.042143   0.149225
     9  C    0.131866  -0.065462
    10  C   -0.117393   0.114653
    11  O   -0.488003   0.248912
    12  O   -0.518060   0.190338
    13  O   -0.139692   0.025565
    14  C    0.099945   0.001367
    15  C   -0.330095  -0.000505
    16  C   -0.620994  -0.000082
    17  H    0.169512  -0.004419
    18  H    0.176607  -0.001353
    19  H    0.195949  -0.004753
    20  H    0.115488   0.001095
    21  H    0.221797   0.001973
    22  H    0.172266   0.002551
    23  H    0.172491   0.002557
    24  H    0.219336  -0.000188
    25  H    0.132796  -0.000229
    26  H    0.164338   0.000041
 Sum of Mulliken charges =  -1.00000   1.00000

 Dipole moment (field-independent basis, Debye):
    X=             12.6719    Y=              9.2851    Z=              0.0027  Tot=             15.7096
 Quadrupole moment (field-independent basis, Debye-Ang):
   XX=           -124.2340   YY=           -124.0586   ZZ=           -100.5560
   XY=            -29.4564   XZ=             -0.0023   YZ=             -0.0081

 Normal termination of Gaussian 16 at Sat Jan 13 19:19:23 2024.
