 Gaussian 16, Revision A.03,
 Gaussian 16:  ES64L-G16RevA.03 25-Dec-2016

 ----------------------------------------------------------------
 #P UB3LYP/6-311++G(d,p) SCRF=(PCM,Solvent=n,n-DiMethylFormamide)
 ----------------------------------------------------------------

 ------------------
 Radical PCM in DMF
 ------------------
 Symbolic Z-matrix:
 Charge = -1 Multiplicity = 2

                         Standard orientation:
 ---------------------------------------------------------------------
 Center     Atomic      Atomic             Coordinates (Angstroms)
 Number     Number       Type             X           Y           Z
 ---------------------------------------------------------------------
      1          6           0       -1.106979   -0.959405   -0.828684
      2          6           0       -0.762613    0.254364   -0.084735
      3          6           0       -1.748740    1.036183    0.484404
      4          6           0       -3.155896    0.726713    0.404712
      5          6           0       -3.483077   -0.476660   -0.339109
      6          6           0       -2.524133   -1.255769   -0.916802
      7          8           0       -0.238729   -1.685026   -1.377340
      8          8           0       -4.040976    1.452386    0.940601
      9          6           0        0.645530    0.693779   -0.059799
     10          1           0       -4.536655   -0.731401   -0.414570
     11          1           0       -1.488813    1.925505    1.051127
     12          1           0       -2.783793   -2.152925   -1.471207
     13          6           0        1.760849   -0.136679    0.165067
     14          6           0        3.073478    0.316765    0.052198
     15          6           0        3.325637    1.648330   -0.251119
     16          6           0        2.247845    2.512434   -0.449432
     17          6           0        0.945838    2.035303   -0.368193
     18          7           0        1.622161   -1.524116    0.662386
     19          8           0        2.469399   -2.339640    0.309988
     20          8           0        0.733232   -1.755043    1.467736
     21          1           0        3.879598   -0.384869    0.219919
     22          1           0        4.346643    2.004366   -0.329394
     23          1           0        2.421992    3.555926   -0.691072
     24          1           0        0.116059    2.698651   -0.580429
 ---------------------------------------------------------------------

 SCF Done:  E(UB3LYP) =  -817.400600346     A.U. after   24 cycles

 The electronic state is 2-A.
 Alpha  occ. eigenvalues --  -19.16899 -19.16745 -19.08395 -19.08149 -14.56045
 Alpha  occ. eigenvalues --  -10.24047 -10.22870 -10.22334 -10.21265 -10.19873
 Alpha  occ. eigenvalues --  -10.19306 -10.19117 -10.19068 -10.18561 -10.16951
 Alpha  occ. eigenvalues --  -10.16890 -10.16821  -1.24512  -1.07141  -1.00967
 Alpha  occ. eigenvalues --   -1.00161  -0.89395  -0.83297  -0.80875  -0.78756
 Alpha  occ. eigenvalues --   -0.73987  -0.70493  -0.68497  -0.63975  -0.60857
 Alpha  occ. eigenvalues --   -0.59801  -0.57858  -0.55240  -0.54476  -0.52961
 Alpha  occ. eigenvalues --   -0.50658  -0.48420  -0.47397  -0.46643  -0.46239
 Alpha  occ. eigenvalues --   -0.44443  -0.42783  -0.41517  -0.40947  -0.39375
 Alpha  occ. eigenvalues --   -0.39099  -0.38406  -0.37792  -0.36854  -0.36301
 Alpha  occ. eigenvalues --   -0.32921  -0.32723  -0.31735  -0.29461  -0.28050
 Alpha  occ. eigenvalues --   -0.27717  -0.25078  -0.24881  -0.24319  -0.16747
 Alpha virt. eigenvalues --   -0.09723  -0.04181  -0.02242  -0.00260  -0.00061
 Alpha virt. eigenvalues --    0.00789   0.01477   0.02124   0.02553   0.02659
 Alpha virt. eigenvalues --    0.03821   0.04495   0.04946   0.05276   0.05799

  Beta  occ. eigenvalues --  -19.16895 -19.16745 -19.07737 -19.07423 -14.56047
  Beta  occ. eigenvalues --  -10.24026 -10.22737 -10.22214 -10.21281 -10.19880
  Beta  occ. eigenvalues --  -10.19312 -10.19100 -10.19051 -10.18441 -10.16812
  Beta  occ. eigenvalues --  -10.16793 -10.16722  -1.24511  -1.07138  -0.99821
  Beta  occ. eigenvalues --   -0.98884  -0.89347  -0.82766  -0.80852  -0.78556
  Beta  occ. eigenvalues --   -0.73790  -0.70325  -0.67628  -0.63778  -0.60766
  Beta  occ. eigenvalues --   -0.59505  -0.57671  -0.55108  -0.54413  -0.52947
  Beta  occ. eigenvalues --   -0.50559  -0.48276  -0.47016  -0.46504  -0.46071
  Beta  occ. eigenvalues --   -0.44288  -0.42643  -0.40380  -0.40155  -0.39101
  Beta  occ. eigenvalues --   -0.38533  -0.37964  -0.36768  -0.36088  -0.35135
  Beta  occ. eigenvalues --   -0.32783  -0.32664  -0.31670  -0.28649  -0.27660
  Beta  occ. eigenvalues --   -0.25499  -0.24269  -0.24178  -0.23666
  Beta virt. eigenvalues --   -0.09830  -0.09527  -0.03606  -0.02074  -0.00180
  Beta virt. eigenvalues --    0.00653   0.00978   0.01520   0.02309   0.02672
  Beta virt. eigenvalues --    0.03391   0.04382   0.04635   0.05115   0.05565

 Mulliken charges and spin densities:
               1          2
     1  C   -1.456819   0.070628
     2  C    2.013717   0.085311
     3  C   -0.272124   0.069471
     4  C   -0.360886   0.120428
     5  C   -0.013005   0.070252
     6  C   -0.083387   0.069775
     7  O   -0.414449   0.239650
     8  O   -0.501380   0.253972
     9  C    1.144786   0.008903
    10  H    0.194395  -0.005761
    11  H    0.206649  -0.009290
    12  H    0.192877  -0.007099
    13  C   -0.607017   0.026410
    14  C   -0.140369  -0.005989
    15  C   -0.413097   0.013355
    16  C   -0.421588  -0.006531
    17  C   -0.688336   0.007364
    18  N   -0.140669   0.000483
    19  O   -0.035488   0.000002
    20  O   -0.052532   0.000509
    21  H    0.241951   0.000291
    22  H    0.202779  -0.000902
    23  H    0.204566   0.000567
    24  H    0.199427  -0.001798
 Sum of Mulliken charges =  -1.00000   1.00000

 Dipole moment (field-independent basis, Debye):
    X=              9.4847    Y=              5.4527    Z=             -1.2126  Tot=             11.0074
 Quadrupole moment (field-independent basis, Debye-Ang):
   XX=           -132.5042   YY=           -115.1488   ZZ=           -111.7091
   XY=             27.1133   XZ=             10.2241   YZ=             -6.7304

 Normal termination of Gaussian 16 at Wed Jan 24 22:54:25 2024.
