 Gaussian 16, Revision A.03,
 Gaussian 16:  ES64L-G16RevA.03 25-Dec-2016

 --------------------------------------
 #P UB3LYP/6-311++G(d,p) nosym opt freq
 --------------------------------------

 -------
 Reduced
 -------
 Symbolic Z-matrix:
 Charge = -2 Multiplicity = 1

 SCF Done:  E(UB3LYP) =  -649.926542008     A.U. after   36 cycles
 SCF Done:  E(UB3LYP) =  -649.956648676     A.U. after   32 cycles
 SCF Done:  E(UB3LYP) =  -649.965419069     A.U. after   34 cycles
 SCF Done:  E(UB3LYP) =  -649.967986242     A.U. after   26 cycles
 SCF Done:  E(UB3LYP) =  -649.969230378     A.U. after   26 cycles
 SCF Done:  E(UB3LYP) =  -649.969762078     A.U. after   25 cycles
 SCF Done:  E(UB3LYP) =  -649.969902410     A.U. after   32 cycles
 SCF Done:  E(UB3LYP) =  -649.970083619     A.U. after   22 cycles
 SCF Done:  E(UB3LYP) =  -649.970181911     A.U. after   24 cycles
 SCF Done:  E(UB3LYP) =  -649.970359484     A.U. after   29 cycles
 SCF Done:  E(UB3LYP) =  -649.970424484     A.U. after   24 cycles
 SCF Done:  E(UB3LYP) =  -649.970528429     A.U. after   24 cycles
 SCF Done:  E(UB3LYP) =  -649.970696464     A.U. after   30 cycles
 SCF Done:  E(UB3LYP) =  -649.970720967     A.U. after   25 cycles
 SCF Done:  E(UB3LYP) =  -649.970737379     A.U. after   23 cycles
 SCF Done:  E(UB3LYP) =  -649.970742357     A.U. after   27 cycles
 SCF Done:  E(UB3LYP) =  -649.970743269     A.U. after   22 cycles
 SCF Done:  E(UB3LYP) =  -649.970743370     A.U. after   17 cycles
 Optimization completed.
    -- Stationary point found.
 Normal termination of Gaussian 16 at Wed Dec 20 03:00:55 2023.

 ----------------------------------------------------------------------
 #P Geom=AllCheck Guess=TCheck SCRF=Check GenChk UB3LYP/6-311++G(d,p) F
 req
 ----------------------------------------------------------------------

 Structure from the checkpoint file:  "087-an.chk"
 -------
 Reduced
 -------
 Charge = -2 Multiplicity = 1

                          Input orientation:
 ---------------------------------------------------------------------
 Center     Atomic      Atomic             Coordinates (Angstroms)
 Number     Number       Type             X           Y           Z
 ---------------------------------------------------------------------
      1          6           0       -2.990041   -1.536161   -0.153825
      2          8           0       -2.271635   -0.553898    0.572955
      3          6           0       -0.900124   -0.541591    0.297844
      4          6           0       -0.354905    0.628061   -0.254779
      5          8           0       -1.244377    1.635055   -0.645516
      6          6           0       -1.067912    2.855797    0.051790
      7          6           0        1.049467    0.805571   -0.499452
      8          8           0        1.555676    1.887162   -1.017186
      9          6           0        1.852296   -0.327467   -0.137547
     10          6           0        1.294023   -1.495300    0.388341
     11          6           0       -0.098841   -1.683670    0.651295
     12          8           0       -0.592546   -2.768123    1.168875
     13          6           0        3.336334   -0.220971   -0.382286
     14          1           0       -2.572809   -2.530386    0.036806
     15          1           0       -4.032056   -1.490411    0.190859
     16          1           0       -2.970154   -1.317245   -1.234928
     17          1           0       -1.311508    2.735531    1.121036
     18          1           0       -1.770600    3.577766   -0.385846
     19          1           0       -0.039686    3.214295   -0.062688
     20          1           0        1.944676   -2.331064    0.651006
     21          1           0        3.776711    0.625757    0.164125
     22          1           0        3.851247   -1.141865   -0.079243
     23          1           0        3.556764   -0.026843   -1.442716
 ---------------------------------------------------------------------

 SCF Done:  E(UB3LYP) =  -649.970743370     A.U. after    2 cycles

 Alpha  occ. eigenvalues --  -18.86405 -18.86342 -18.75744 -18.75475  -9.95903
 Alpha  occ. eigenvalues --   -9.95796  -9.92090  -9.91937  -9.91411  -9.91254
 Alpha  occ. eigenvalues --   -9.91147  -9.87968  -9.86770  -0.78140  -0.76465
 Alpha  occ. eigenvalues --   -0.66554  -0.66148  -0.53143  -0.48805  -0.44209
 Alpha  occ. eigenvalues --   -0.43681  -0.38967  -0.36871  -0.30046  -0.27945
 Alpha  occ. eigenvalues --   -0.23082  -0.21684  -0.20568  -0.20131  -0.18735
 Alpha  occ. eigenvalues --   -0.18312  -0.16414  -0.15633  -0.14495  -0.12379
 Alpha  occ. eigenvalues --   -0.10769  -0.09365  -0.08767  -0.08490  -0.07049
 Alpha  occ. eigenvalues --   -0.06424  -0.04607  -0.00940  -0.00911   0.04027
 Alpha  occ. eigenvalues --    0.06106   0.06695   0.06968   0.14525
 Alpha virt. eigenvalues --    0.16904   0.17406   0.17766   0.20379   0.20522
 Alpha virt. eigenvalues --    0.20826   0.21831   0.22570   0.23189   0.23640
 Alpha virt. eigenvalues --    0.25968   0.27194   0.27853   0.28126   0.29116

  Beta  occ. eigenvalues --  -18.86405 -18.86342 -18.75744 -18.75475  -9.95903
  Beta  occ. eigenvalues --   -9.95796  -9.92090  -9.91937  -9.91411  -9.91254
  Beta  occ. eigenvalues --   -9.91147  -9.87968  -9.86770  -0.78140  -0.76465
  Beta  occ. eigenvalues --   -0.66554  -0.66148  -0.53143  -0.48805  -0.44209
  Beta  occ. eigenvalues --   -0.43681  -0.38967  -0.36871  -0.30046  -0.27945
  Beta  occ. eigenvalues --   -0.23082  -0.21684  -0.20568  -0.20131  -0.18735
  Beta  occ. eigenvalues --   -0.18312  -0.16414  -0.15633  -0.14495  -0.12379
  Beta  occ. eigenvalues --   -0.10769  -0.09365  -0.08767  -0.08490  -0.07049
  Beta  occ. eigenvalues --   -0.06424  -0.04607  -0.00940  -0.00911   0.04027
  Beta  occ. eigenvalues --    0.06106   0.06695   0.06968   0.14525
  Beta virt. eigenvalues --    0.16904   0.17406   0.17766   0.20379   0.20522
  Beta virt. eigenvalues --    0.20826   0.21831   0.22570   0.23189   0.23640
  Beta virt. eigenvalues --    0.25968   0.27194   0.27853   0.28126   0.29116

 Mulliken charges and spin densities:
               1          2
     1  C    0.169640   0.000001
     2  O   -0.187997  -0.000000
     3  C    0.198562   0.000000
     4  C   -0.093482   0.000000
     5  O   -0.179073  -0.000000
     6  C    0.111059   0.000000
     7  C   -0.843418  -0.000000
     8  O   -0.556832   0.000000
     9  C    1.528239  -0.000000
    10  C   -0.661640  -0.000000
    11  C   -0.581076   0.000000
    12  O   -0.566785   0.000000
    13  C   -0.517618  -0.000000
    14  H    0.199381   0.000000
    15  H   -0.265766  -0.000001
    16  H   -0.030134  -0.000000
    17  H   -0.012136  -0.000000
    18  H   -0.230263  -0.000000
    19  H    0.202099   0.000000
    20  H    0.031103   0.000000
    21  H    0.106763   0.000000
    22  H    0.091450  -0.000000
    23  H    0.087923  -0.000000
 Sum of Mulliken charges =  -2.00000   0.00000

 Dipole moment (field-independent basis, Debye):
    X=              1.1470    Y=              1.7187    Z=             -0.2031  Tot=              2.0762
 Quadrupole moment (field-independent basis, Debye-Ang):
   XX=           -130.3598   YY=           -137.0314   ZZ=           -101.4494
   XY=             -8.9481   XZ=              8.7307   YZ=             20.0161

  Exact polarizability:1244.114 187.1321498.816 -42.940 -66.415 273.865
 Approx polarizability:1491.177-224.057 848.597  14.663 -72.203 280.915

                      1                      2                      3
                      A                      A                      A
 Frequencies --     84.2938                86.2051                89.4117
 Red. masses --      2.4092                 3.6987                 1.4304
 Frc consts  --      0.0101                 0.0162                 0.0067
 IR Inten    --      7.0336                 5.0913                 8.5166

                      4                      5                      6
                      A                      A                      A
 Frequencies --     95.2521               108.7159               177.5916
 Red. masses --      2.5936                 2.8192                 1.8100
 Frc consts  --      0.0139                 0.0196                 0.0336
 IR Inten    --      7.6716                 5.0818                 6.8949

                      7                      8                      9
                      A                      A                      A
 Frequencies --    180.9046               189.5036               217.9536
 Red. masses --      1.0800                 1.7505                 3.4529
 Frc consts  --      0.0208                 0.0370                 0.0966
 IR Inten    --     22.0551                43.6412                23.2199

                     10                     11                     12
                      A                      A                      A
 Frequencies --    266.5665               288.0487               325.5416
 Red. masses --      4.1040                 3.2413                 7.0142
 Frc consts  --      0.1718                 0.1585                 0.4380
 IR Inten    --     11.6468                 7.1020               166.2770

                     13                     14                     15
                      A                      A                      A
 Frequencies --    332.6465               350.3731               375.4544
 Red. masses --      7.9765                 9.7715                 6.2725
 Frc consts  --      0.5200                 0.7068                 0.5210
 IR Inten    --      4.3750                12.9547                28.5520

                     16                     17                     18
                      A                      A                      A
 Frequencies --    405.1103               449.8165               502.5542
 Red. masses --      6.6681                 8.2662                 5.0575
 Frc consts  --      0.6448                 0.9854                 0.7526
 IR Inten    --     18.7888               429.0121                93.8355

                     19                     20                     21
                      A                      A                      A
 Frequencies --    544.6759               600.7943               683.4170
 Red. masses --      5.4782                 4.5138                 3.8360
 Frc consts  --      0.9576                 0.9599                 1.0556
 IR Inten    --     80.0623                22.0753                15.9500

                     22                     23                     24
                      A                      A                      A
 Frequencies --    696.2053               710.0511               753.3605
 Red. masses --      4.2223                 4.9177                 7.8936
 Frc consts  --      1.2058                 1.4608                 2.6395
 IR Inten    --     48.7653                 6.9711                 5.6418

                     25                     26                     27
                      A                      A                      A
 Frequencies --    807.3635               926.6937               941.3485
 Red. masses --      1.8055                 6.1699                 4.3083
 Frc consts  --      0.6934                 3.1217                 2.2494
 IR Inten    --     41.5973                80.3147                93.5301

                     28                     29                     30
                      A                      A                      A
 Frequencies --   1005.6676              1035.1983              1037.2498
 Red. masses --      1.7057                 1.8934                 3.1509
 Frc consts  --      1.0164                 1.1955                 1.9973
 IR Inten    --    299.0520                33.7556                67.3347

                     31                     32                     33
                      A                      A                      A
 Frequencies --   1076.8208              1115.7274              1158.0805
 Red. masses --      8.2272                 6.4967                 1.3379
 Frc consts  --      5.6207                 4.7650                 1.0572
 IR Inten    --    814.4000               814.5570                61.1124

                     34                     35                     36
                      A                      A                      A
 Frequencies --   1159.4810              1175.3759              1186.9214
 Red. masses --      1.2834                 1.8165                 4.7380
 Frc consts  --      1.0165                 1.4786                 3.9327
 IR Inten    --     99.8707                81.8841                39.6894

                     37                     38                     39
                      A                      A                      A
 Frequencies --   1215.4484              1218.6946              1283.0635
 Red. masses --      1.4962                 1.7825                 3.1649
 Frc consts  --      1.3023                 1.5598                 3.0698
 IR Inten    --    299.3716                51.5493               512.0299

                     40                     41                     42
                      A                      A                      A
 Frequencies --   1339.1317              1370.5558              1402.6669
 Red. masses --      8.0678                 1.4175                 2.3091
 Frc consts  --      8.5241                 1.5688                 2.6767
 IR Inten    --   3011.9341               244.4571               342.4459

                     43                     44                     45
                      A                      A                      A
 Frequencies --   1419.4572              1432.2978              1443.1043
 Red. masses --      1.7089                 3.0828                 1.5578
 Frc consts  --      2.0287                 3.7261                 1.9114
 IR Inten    --    245.7705               401.8163               201.8273

                     46                     47                     48
                      A                      A                      A
 Frequencies --   1447.2902              1458.6551              1460.3321
 Red. masses --      1.0531                 1.0848                 1.0906
 Frc consts  --      1.2997                 1.3599                 1.3704
 IR Inten    --     13.9285               698.7439               259.9541

                     49                     50                     51
                      A                      A                      A
 Frequencies --   1481.0447              1488.1267              1510.4026
 Red. masses --      2.5290                 1.3522                 1.0534
 Frc consts  --      3.2683                 1.7643                 1.4159
 IR Inten    --    153.2802               112.7949                36.4156

                     52                     53                     54
                      A                      A                      A
 Frequencies --   1510.8370              1578.2803              2922.0213
 Red. masses --      1.0534                 5.7733                 1.0446
 Frc consts  --      1.4166                 8.4731                 5.2550
 IR Inten    --     79.2118              2023.4037                52.4526

                     55                     56                     57
                      A                      A                      A
 Frequencies --   2923.4650              2951.1885              2963.1706
 Red. masses --      1.0449                 1.0374                 1.0949
 Frc consts  --      5.2614                 5.3232                 5.6644
 IR Inten    --    123.6059              1161.8858               292.8504

                     58                     59                     60
                      A                      A                      A
 Frequencies --   2990.6223              2991.4822              3021.3155
 Red. masses --      1.0868                 1.0862                 1.0992
 Frc consts  --      5.7269                 5.7271                 5.9118
 IR Inten    --     67.0238                84.2745                34.9169

                     61                     62                     63
                      A                      A                      A
 Frequencies --   3047.6067              3048.3720              3080.4015
 Red. masses --      1.1009                 1.1008                 1.0867
 Frc consts  --      6.0245                 6.0269                 6.0752
 IR Inten    --    116.3808                77.2456               303.5561

 - Thermochemistry -
 -------------------
 Temperature   298.150 Kelvin.  Pressure   1.00000 Atm.
 Atom     1 has atomic number  6 and mass  12.00000

 Molecular mass:   182.05791 amu.
 Principal axes and moments of inertia in atomic units:
                           1         2         3
     Eigenvalues --  1790.749702328.690133901.22480
           X            0.83805  -0.53890   0.08523
           Y            0.50365   0.82419   0.25893
           Z           -0.20978  -0.17407   0.96213
 This molecule is an asymmetric top.
 Rotational symmetry number  1.
 Warning -- assumption of classical behavior for rotation
           may cause significant error
 Rotational temperatures (Kelvin)      0.04837     0.03719     0.02220
 Rotational constants (GHZ):           1.00781     0.77500     0.46261
 Zero-point vibrational energy     449433.5 (Joules/Mol)
                                  107.41718 (Kcal/Mol)
 Warning -- explicit consideration of  20 degrees of freedom as
           vibrations may cause significant error
 Vibrational temperatures:    121.28   124.03   128.64   137.05   156.42
          (Kelvin)            255.51   260.28   272.65   313.59   383.53
                              414.44   468.38   478.60   504.11   540.20
                              582.86   647.19   723.06   783.67   864.41
                              983.28  1001.68  1021.61  1083.92  1161.62
                             1333.31  1354.39  1446.93  1489.42  1492.37
                             1549.30  1605.28  1666.22  1668.23  1691.10
                             1707.72  1748.76  1753.43  1846.04  1926.71
                             1971.92  2018.12  2042.28  2060.76  2076.31
                             2082.33  2098.68  2101.09  2130.89  2141.08
                             2173.13  2173.76  2270.79  4204.14  4206.21
                             4246.10  4263.34  4302.84  4304.08  4347.00
                             4384.83  4385.93  4432.01

 Zero-point correction=                           0.171180 (Hartree/Particle)
 Thermal correction to Energy=                    0.184524
 Thermal correction to Enthalpy=                  0.185468
 Thermal correction to Gibbs Free Energy=         0.131610
 Sum of electronic and zero-point Energies=           -649.799563
 Sum of electronic and thermal Energies=              -649.786219
 Sum of electronic and thermal Enthalpies=            -649.785275
 Sum of electronic and thermal Free Energies=         -649.839133

                     E (Thermal)             CV                S
                      KCal/Mol        Cal/Mol-Kelvin    Cal/Mol-Kelvin
 Total                  115.791             48.255            113.354
 Electronic               0.000              0.000              0.000
 Translational            0.889              2.981             41.504
 Rotational               0.889              2.981             31.165
 Vibrational            114.013             42.294             40.685
 Vibration     1          0.601              1.960              3.788
 Vibration     2          0.601              1.959              3.744
 Vibration     3          0.602              1.957              3.673
 Vibration     4          0.603              1.953              3.549
 Vibration     5          0.606              1.942              3.292
 Vibration     6          0.628              1.870              2.354
 Vibration     7          0.630              1.866              2.319
 Vibration     8          0.633              1.854              2.233
 Vibration     9          0.646              1.814              1.976
 Vibration    10          0.672              1.734              1.618
 Vibration    11          0.685              1.696              1.485
 Vibration    12          0.710              1.624              1.282
 Vibration    13          0.715              1.610              1.247
 Vibration    14          0.727              1.574              1.165
 Vibration    15          0.746              1.522              1.057
 Vibration    16          0.770              1.459              0.944
 Vibration    17          0.809              1.361              0.796
 Vibration    18          0.858              1.244              0.652
 Vibration    19          0.900              1.151              0.555
 Vibration    20          0.959              1.030              0.448

 Optimization completed.
    -- Stationary point found.
 Normal termination of Gaussian 16 at Wed Dec 20 03:22:31 2023.
