 Gaussian 16, Revision A.03,
 Gaussian 16:  ES64L-G16RevA.03 25-Dec-2016

 --------------------------------------
 #P UB3LYP/6-311++G(d,p) nosym opt freq
 --------------------------------------

 -------
 Reduced
 -------
 Symbolic Z-matrix:
 Charge = -2 Multiplicity = 1

 SCF Done:  E(UB3LYP) =  -5757.68484912     A.U. after   74 cycles
 SCF Done:  E(UB3LYP) =  -5757.70780092     A.U. after   65 cycles
 SCF Done:  E(UB3LYP) =  -5757.69255850     A.U. after   28 cycles
 SCF Done:  E(UB3LYP) =  -5757.70706635     A.U. after   29 cycles
 SCF Done:  E(UB3LYP) =  -5757.70949394     A.U. after   26 cycles
 SCF Done:  E(UB3LYP) =  -5757.71004897     A.U. after   23 cycles
 SCF Done:  E(UB3LYP) =  -5757.71156552     A.U. after   23 cycles
 SCF Done:  E(UB3LYP) =  -5757.71518809     A.U. after   33 cycles
 SCF Done:  E(UB3LYP) =  -5757.71866656     A.U. after   25 cycles
 SCF Done:  E(UB3LYP) =  -5757.72301442     A.U. after   23 cycles
 SCF Done:  E(UB3LYP) =  -5757.75945494     A.U. after   16 cycles
 SCF Done:  E(UB3LYP) =  -5757.75952517     A.U. after   16 cycles
 SCF Done:  E(UB3LYP) =  -5757.75955406     A.U. after   16 cycles
 SCF Done:  E(UB3LYP) =  -5757.75957558     A.U. after   14 cycles
 SCF Done:  E(UB3LYP) =  -5757.75958946     A.U. after   14 cycles
 SCF Done:  E(UB3LYP) =  -5757.75959217     A.U. after   14 cycles
 SCF Done:  E(UB3LYP) =  -5757.75959519     A.U. after   14 cycles
 SCF Done:  E(UB3LYP) =  -5757.75959638     A.U. after   13 cycles
 SCF Done:  E(UB3LYP) =  -5757.75959667     A.U. after   12 cycles
 Optimization completed.
    -- Stationary point found.
 Normal termination of Gaussian 16 at Wed Dec 20 03:39:45 2023.

 ----------------------------------------------------------------------
 #P Geom=AllCheck Guess=TCheck SCRF=Check GenChk UB3LYP/6-311++G(d,p) F
 req
 ----------------------------------------------------------------------

 Structure from the checkpoint file:  "088-an.chk"
 -------
 Reduced
 -------
 Charge = -2 Multiplicity = 1

                          Input orientation:
 ---------------------------------------------------------------------
 Center     Atomic      Atomic             Coordinates (Angstroms)
 Number     Number       Type             X           Y           Z
 ---------------------------------------------------------------------
      1          6           0        1.819835    0.901642   -0.910672
      2          6           0        0.611083    1.350419   -0.298720
      3          6           0       -0.385344    0.489763    0.206267
      4          6           0       -0.267253   -0.931941    0.248485
      5          6           0        0.963320   -1.387571   -0.358707
      6          6           0        1.934469   -0.539409   -0.881562
      7          8           0        2.702430    1.651544   -1.472322
      8          8           0       -1.107914   -1.741052    0.792031
      9          8           0        3.033629   -1.126768   -1.511434
     10          6           0        4.281415   -0.770452   -0.940595
     11         35           0        0.320758    3.280190   -0.415845
     12         35           0       -1.961927    1.191677    1.124846
     13          1           0        4.397568    0.317958   -0.933754
     14          1           0        5.056582   -1.229867   -1.566771
     15          1           0        4.370653   -1.170937    0.082662
     16          8           0        1.249872   -2.753812   -0.324285
     17          6           0        0.317365   -3.554734   -1.030522
     18          1           0       -0.694725   -3.380331   -0.651811
     19          1           0        0.609410   -4.599141   -0.863308
     20          1           0        0.362543   -3.344089   -2.111721
 ---------------------------------------------------------------------

 SCF Done:  E(UB3LYP) =  -5757.75959667     A.U. after    2 cycles

 Alpha  occ. eigenvalues -- -482.56278-482.56278 -62.21547 -62.21547 -56.03552
 Alpha  occ. eigenvalues --  -56.03552 -56.03227 -56.03226 -56.03190 -56.03190
 Alpha  occ. eigenvalues --  -18.88176 -18.88175 -18.76858 -18.76858  -9.97427
 Alpha  occ. eigenvalues --   -9.97427  -9.94268  -9.94214  -9.94036  -9.93991
 Alpha  occ. eigenvalues --   -9.93887  -9.93886  -8.42497  -8.42496  -6.25535
 Alpha  occ. eigenvalues --   -6.25535  -6.24444  -6.24444  -6.24333  -6.24332
 Alpha  occ. eigenvalues --   -2.36648  -2.36647  -2.36355  -2.36355  -2.36270
 Alpha  occ. eigenvalues --   -2.36269  -2.35401  -2.35400  -2.35399  -2.35399
 Alpha  occ. eigenvalues --   -0.80099  -0.78357  -0.68725  -0.68372  -0.57092
 Alpha  occ. eigenvalues --   -0.52368  -0.51827  -0.46563  -0.45900  -0.40144
 Alpha  occ. eigenvalues --   -0.39829  -0.31223  -0.30102  -0.25058  -0.22805
 Alpha  occ. eigenvalues --   -0.22771  -0.21908  -0.20466  -0.19747  -0.17652
 Alpha  occ. eigenvalues --   -0.15460  -0.12967  -0.11726  -0.11110  -0.10315
 Alpha  occ. eigenvalues --   -0.09600  -0.09302  -0.07574  -0.05394  -0.04043
 Alpha  occ. eigenvalues --   -0.03659  -0.02484  -0.02434  -0.01078   0.02483
 Alpha  occ. eigenvalues --    0.04557   0.05225   0.05267   0.12464
 Alpha virt. eigenvalues --    0.16764   0.17342   0.19236   0.20001   0.20594
 Alpha virt. eigenvalues --    0.20959   0.22111   0.22873   0.23939   0.24433
 Alpha virt. eigenvalues --    0.24552   0.25238   0.25944   0.26139   0.26370

  Beta  occ. eigenvalues -- -482.56278-482.56278 -62.21547 -62.21547 -56.03552
  Beta  occ. eigenvalues --  -56.03552 -56.03227 -56.03226 -56.03190 -56.03190
  Beta  occ. eigenvalues --  -18.88176 -18.88175 -18.76858 -18.76858  -9.97427
  Beta  occ. eigenvalues --   -9.97427  -9.94268  -9.94214  -9.94036  -9.93991
  Beta  occ. eigenvalues --   -9.93887  -9.93886  -8.42497  -8.42496  -6.25535
  Beta  occ. eigenvalues --   -6.25535  -6.24444  -6.24444  -6.24333  -6.24332
  Beta  occ. eigenvalues --   -2.36648  -2.36647  -2.36355  -2.36355  -2.36270
  Beta  occ. eigenvalues --   -2.36269  -2.35401  -2.35400  -2.35399  -2.35399
  Beta  occ. eigenvalues --   -0.80099  -0.78357  -0.68725  -0.68372  -0.57092
  Beta  occ. eigenvalues --   -0.52368  -0.51827  -0.46563  -0.45900  -0.40144
  Beta  occ. eigenvalues --   -0.39829  -0.31223  -0.30102  -0.25058  -0.22805
  Beta  occ. eigenvalues --   -0.22771  -0.21908  -0.20466  -0.19747  -0.17652
  Beta  occ. eigenvalues --   -0.15460  -0.12967  -0.11726  -0.11110  -0.10315
  Beta  occ. eigenvalues --   -0.09600  -0.09302  -0.07574  -0.05394  -0.04043
  Beta  occ. eigenvalues --   -0.03659  -0.02484  -0.02434  -0.01078   0.02483
  Beta  occ. eigenvalues --    0.04557   0.05225   0.05267   0.12464
  Beta virt. eigenvalues --    0.16764   0.17342   0.19236   0.20001   0.20594
  Beta virt. eigenvalues --    0.20959   0.22111   0.22873   0.23939   0.24433
  Beta virt. eigenvalues --    0.24552   0.25238   0.25944   0.26139   0.26370

 Mulliken charges and spin densities:
               1          2
     1  C   -0.660235   0.000000
     2  C    0.441905  -0.000000
     3  C    0.442032  -0.000000
     4  C   -0.659960  -0.000000
     5  C    0.138238  -0.000000
     6  C    0.138506   0.000000
     7  O   -0.490616   0.000000
     8  O   -0.490656  -0.000000
     9  O   -0.154488  -0.000000
    10  C   -0.232811  -0.000000
    11  Br  -0.344324   0.000000
    12  Br  -0.344325  -0.000000
    13  H    0.201207   0.000000
    14  H    0.041867  -0.000000
    15  H    0.058967   0.000000
    16  O   -0.154544   0.000000
    17  C   -0.232774  -0.000000
    18  H    0.201178   0.000000
    19  H    0.041878   0.000000
    20  H    0.058955  -0.000000
 Sum of Mulliken charges =  -2.00000  -0.00000

 Dipole moment (field-independent basis, Debye):
    X=             -5.5877    Y=             -2.4893    Z=              2.3788  Tot=              6.5633
 Quadrupole moment (field-independent basis, Debye-Ang):
   XX=           -156.4541   YY=           -161.8303   ZZ=           -131.4519
   XY=             -7.1986   XZ=             23.3934   YZ=              9.0122

  Exact polarizability: 249.350 -39.477 294.494 -51.277  14.800 159.079
 Approx polarizability: 341.194 -26.959 391.119 -73.692   1.925 232.946

                      1                      2                      3
                      A                      A                      A
 Frequencies --     38.4508                75.2577                89.3203
 Red. masses --     11.7298                 6.4876                 3.2011
 Frc consts  --      0.0102                 0.0216                 0.0150
 IR Inten    --      1.9325                 8.2181                 8.2013

                      4                      5                      6
                      A                      A                      A
 Frequencies --     96.6136               102.0852               127.2580
 Red. masses --      4.8824                 2.9577                35.4247
 Frc consts  --      0.0269                 0.0182                 0.3380
 IR Inten    --      3.6171                 0.1149                 2.6710

                      7                      8                      9
                      A                      A                      A
 Frequencies --    158.7161               175.8800               176.7583
 Red. masses --      5.5362                 1.3359                 1.1147
 Frc consts  --      0.0822                 0.0243                 0.0205
 IR Inten    --      2.2458                 1.3488                 1.4316

                     10                     11                     12
                      A                      A                      A
 Frequencies --    204.4016               218.4373               226.2136
 Red. masses --      5.0139                 7.8043                 9.3083
 Frc consts  --      0.1234                 0.2194                 0.2806
 IR Inten    --      5.5295                14.9950                 0.1972

                     13                     14                     15
                      A                      A                      A
 Frequencies --    266.3149               278.6480               313.0849
 Red. masses --      6.4849                13.3005                 6.7031
 Frc consts  --      0.2710                 0.6085                 0.3871
 IR Inten    --      2.0024                30.6343                 2.5624

                     16                     17                     18
                      A                      A                      A
 Frequencies --    345.6680               346.3078               399.1113
 Red. masses --     10.8610                 5.9136                 8.6081
 Frc consts  --      0.7646                 0.4179                 0.8079
 IR Inten    --      1.4271                 0.0802                 2.7204

                     19                     20                     21
                      A                      A                      A
 Frequencies --    440.0790               488.4472               542.9501
 Red. masses --      7.9150                13.6490                 6.4329
 Frc consts  --      0.9032                 1.9186                 1.1173
 IR Inten    --      4.7810                20.8719                 6.3303

                     22                     23                     24
                      A                      A                      A
 Frequencies --    584.3098               713.7731               723.2808
 Red. masses --      9.7545                11.5279                10.6985
 Frc consts  --      1.9622                 3.4604                 3.2975
 IR Inten    --     12.0560                 3.1866                41.1904

                     25                     26                     27
                      A                      A                      A
 Frequencies --    748.3967               755.8117               779.5807
 Red. masses --     10.8654                 8.4442                10.2917
 Frc consts  --      3.5856                 2.8421                 3.6852
 IR Inten    --     17.6218                42.8187               107.6324

                     28                     29                     30
                      A                      A                      A
 Frequencies --    962.1445              1010.9048              1095.7912
 Red. masses --      8.4338                 6.7797                10.9102
 Frc consts  --      4.6000                 4.0821                 7.7186
 IR Inten    --     66.5953                 5.4318               147.5909

                     31                     32                     33
                      A                      A                      A
 Frequencies --   1102.0830              1144.6768              1159.7917
 Red. masses --     11.0186                 7.3687                 1.3470
 Frc consts  --      7.8851                 5.6886                 1.0676
 IR Inten    --     27.1079               422.7121                49.2158

                     34                     35                     36
                      A                      A                      A
 Frequencies --   1162.4266              1178.8035              1220.2958
 Red. masses --      1.2775                 2.6959                 1.5619
 Frc consts  --      1.0171                 2.2072                 1.3703
 IR Inten    --     11.4364                46.1758                38.5203

                     37                     38                     39
                      A                      A                      A
 Frequencies --   1230.1198              1327.2996              1383.2067
 Red. masses --      2.1214                 9.9983                 3.5210
 Frc consts  --      1.8913                10.3780                 3.9691
 IR Inten    --     15.8595                 6.3160                58.6287

                     40                     41                     42
                      A                      A                      A
 Frequencies --   1418.9870              1428.4927              1437.0789
 Red. masses --      2.6759                 1.1899                 3.9278
 Frc consts  --      3.1745                 1.4306                 4.7792
 IR Inten    --    464.6190                 1.5485                11.3959

                     43                     44                     45
                      A                      A                      A
 Frequencies --   1464.0365              1469.5536              1472.5471
 Red. masses --      1.9295                 1.2240                 1.2804
 Frc consts  --      2.4367                 1.5574                 1.6358
 IR Inten    --    349.5769                94.8220                 1.6240

                     46                     47                     48
                      A                      A                      A
 Frequencies --   1516.1012              1516.2828              1586.9323
 Red. masses --      1.0579                 1.0549                 9.5628
 Frc consts  --      1.4327                 1.4289                14.1891
 IR Inten    --      3.5353                 4.2953                 5.6915

                     49                     50                     51
                      A                      A                      A
 Frequencies --   2932.4379              2933.3168              3005.7563
 Red. masses --      1.0453                 1.0464                 1.0852
 Frc consts  --      5.2958                 5.3047                 5.7764
 IR Inten    --    263.4093               185.2498               159.9637

                     52                     53                     54
                      A                      A                      A
 Frequencies --   3006.3156              3054.2290              3054.3726
 Red. masses --      1.0839                 1.1027                 1.1028
 Frc consts  --      5.7720                 6.0606                 6.0617
 IR Inten    --    160.5413                 6.6583                29.4190

 - Thermochemistry -
 -------------------
 Temperature   298.150 Kelvin.  Pressure   1.00000 Atm.
 Atom     1 has atomic number  6 and mass  12.00000

 Molecular mass:   323.86328 amu.
 Principal axes and moments of inertia in atomic units:
                           1         2         3
     Eigenvalues --  3735.485215510.580428980.20921
           X           -0.56150   0.70639   0.43096
           Y            0.79156   0.61031   0.03095
           Z            0.24116  -0.35851   0.90184
 This molecule is an asymmetric top.
 Rotational symmetry number  1.
 Warning -- assumption of classical behavior for rotation
           may cause significant error
 Rotational temperatures (Kelvin)      0.02319     0.01572     0.00964
 Rotational constants (GHZ):           0.48313     0.32750     0.20097
 Zero-point vibrational energy     327113.7 (Joules/Mol)
                                   78.18205 (Kcal/Mol)
 Warning -- explicit consideration of  22 degrees of freedom as
           vibrations may cause significant error
 Vibrational temperatures:     55.32   108.28   128.51   139.01   146.88
          (Kelvin)            183.10   228.36   253.05   254.32   294.09
                              314.28   325.47   383.17   400.91   450.46
                              497.34   498.26   574.23   633.18   702.77
                              781.18   840.69  1026.96  1040.64  1076.78
                             1087.44  1121.64  1384.31  1454.47  1576.60
                             1585.65  1646.93  1668.68  1672.47  1696.04
                             1755.73  1769.87  1909.69  1990.13  2041.61
                             2055.28  2067.64  2106.42  2114.36  2118.67
                             2181.33  2181.59  2283.24  4219.12  4220.39
                             4324.61  4325.42  4394.35  4394.56

 Zero-point correction=                           0.124591 (Hartree/Particle)
 Thermal correction to Energy=                    0.139421
 Thermal correction to Enthalpy=                  0.140365
 Thermal correction to Gibbs Free Energy=         0.080755
 Sum of electronic and zero-point Energies=          -5757.635006
 Sum of electronic and thermal Energies=             -5757.620175
 Sum of electronic and thermal Enthalpies=           -5757.619231
 Sum of electronic and thermal Free Energies=        -5757.678842

                     E (Thermal)             CV                S
                      KCal/Mol        Cal/Mol-Kelvin    Cal/Mol-Kelvin
 Total                   87.488             50.764            125.461
 Electronic               0.000              0.000              0.000
 Translational            0.889              2.981             43.221
 Rotational               0.889              2.981             33.580
 Vibrational             85.711             44.802             48.661
 Vibration     1          0.594              1.982              5.337
 Vibration     2          0.599              1.966              4.011
 Vibration     3          0.602              1.957              3.675
 Vibration     4          0.603              1.952              3.522
 Vibration     5          0.604              1.947              3.414
 Vibration     6          0.611              1.926              2.987
 Vibration     7          0.621              1.893              2.565
 Vibration     8          0.628              1.872              2.372
 Vibration     9          0.628              1.871              2.362
 Vibration    10          0.640              1.834              2.093
 Vibration    11          0.646              1.813              1.972
 Vibration    12          0.650              1.801              1.909
 Vibration    13          0.672              1.735              1.620
 Vibration    14          0.679              1.713              1.542
 Vibration    15          0.701              1.649              1.346
 Vibration    16          0.724              1.584              1.186
 Vibration    17          0.724              1.583              1.183
 Vibration    18          0.765              1.472              0.966
 Vibration    19          0.800              1.383              0.826
 Vibration    20          0.844              1.276              0.688
 Vibration    21          0.898              1.155              0.559
 Vibration    22          0.941              1.065              0.477

 Optimization completed.
    -- Stationary point found.
 Normal termination of Gaussian 16 at Wed Dec 20 04:02:10 2023.
