 Q-Chem 5.4, Q-Chem, Inc., Pleasanton, CA (2021)
 Q-Chem 5.4.0 for Intel X86 EM64T Linux

User input:
--------------------------------------------------------------
$molecule
-1 2
O                 -0.0188080000     -2.4876740000     -0.5749750000
C                 -0.0200970000     -1.2748830000     -0.2093370000
C                  1.2362020000     -0.5846950000      0.0813990000
C                  2.4366280000     -1.3390220000      0.1266000000
C                  3.6364800000     -0.7731280000      0.5125360000
C                  3.7099400000      0.5836310000      0.8815860000
C                  2.5593470000      1.3611930000      0.8244960000
C                  1.3542220000      0.7906750000      0.4171170000
S                 -0.0206500000      1.8821940000      0.1481030000
O                 -0.0138530000      2.3269080000     -1.2620650000
C                 -1.3987740000      0.7916600000      0.4041600000
C                 -2.6072710000      1.3630420000      0.8001780000
C                 -3.7589060000      0.5863020000      0.8464450000
C                 -3.6829410000     -0.7705170000      0.4781190000
C                 -2.4799160000     -1.3372700000      0.1034920000
C                 -1.2785810000     -0.5837990000      0.0695740000
H                  2.3628130000     -2.3868100000     -0.1381120000
H                  4.5325130000     -1.3864270000      0.5408490000
H                  4.6500690000      1.0216430000      1.1982620000
H                  2.5808600000      2.4127540000      1.0874050000
H                 -2.6305060000      2.4146210000      1.0628660000
H                 -4.7016600000      1.0249870000      1.1542580000
H                 -4.5796380000     -1.3831780000      0.4980060000
H                 -2.4043620000     -2.3851150000     -0.1605050000
O                 -0.0250550000      2.9566940000      1.1666240000
$end
$rem
MAX_SCF_CYCLES=200
BASIS  =  6-311++G(d,p)
GUI  =  2
JOB_TYPE  =  SP
METHOD  =  B3LYP
SOLVENT_METHOD = PCM
$end
$pcm
theory = CPCM
$end
$solvent
dielectric 37.219
opticaldielectric 1.43
$end

--------------------------------------------------------------

             Standard Nuclear Orientation (Angstroms)
    I     Atom           X                Y                Z
 ----------------------------------------------------------------
    1      O      -0.0188080000    -2.4876740000    -0.5749750000
    2      C      -0.0200970000    -1.2748830000    -0.2093370000
    3      C       1.2362020000    -0.5846950000     0.0813990000
    4      C       2.4366280000    -1.3390220000     0.1266000000
    5      C       3.6364800000    -0.7731280000     0.5125360000
    6      C       3.7099400000     0.5836310000     0.8815860000
    7      C       2.5593470000     1.3611930000     0.8244960000
    8      C       1.3542220000     0.7906750000     0.4171170000
    9      S      -0.0206500000     1.8821940000     0.1481030000
   10      O      -0.0138530000     2.3269080000    -1.2620650000
   11      C      -1.3987740000     0.7916600000     0.4041600000
   12      C      -2.6072710000     1.3630420000     0.8001780000
   13      C      -3.7589060000     0.5863020000     0.8464450000
   14      C      -3.6829410000    -0.7705170000     0.4781190000
   15      C      -2.4799160000    -1.3372700000     0.1034920000
   16      C      -1.2785810000    -0.5837990000     0.0695740000
   17      H       2.3628130000    -2.3868100000    -0.1381120000
   18      H       4.5325130000    -1.3864270000     0.5408490000
   19      H       4.6500690000     1.0216430000     1.1982620000
   20      H       2.5808600000     2.4127540000     1.0874050000
   21      H      -2.6305060000     2.4146210000     1.0628660000
   22      H      -4.7016600000     1.0249870000     1.1542580000
   23      H      -4.5796380000    -1.3831780000     0.4980060000
   24      H      -2.4043620000    -2.3851150000    -0.1605050000
   25      O      -0.0250550000     2.9566940000     1.1666240000
 ----------------------------------------------------------------

    8   -1124.3560749650      9.21e-06  Convergence criterion met
 Total energy in the final basis set =    -1124.3560749650

                    Orbital Energies (a.u.)
 --------------------------------------------------------------

 Alpha MOs
 -- Occupied --
-89.0498 -19.1182 -19.1171 -19.0709 -10.2210 -10.2049 -10.2049 -10.1883
-10.1883 -10.1874 -10.1874 -10.1788 -10.1788 -10.1763 -10.1763 -10.1741
-10.1741  -8.1141  -6.0769  -6.0756  -6.0751  -1.1095  -1.0021  -0.9968
 -0.8758  -0.8644  -0.7967  -0.7677  -0.7629  -0.7524  -0.6951  -0.6535
 -0.6305  -0.6014  -0.5844  -0.5527  -0.5485  -0.5071  -0.4826  -0.4751
 -0.4681  -0.4673  -0.4584  -0.4419  -0.4338  -0.4266  -0.4160  -0.4063
 -0.3861  -0.3822  -0.3659  -0.3590  -0.3585  -0.3577  -0.3341  -0.3312
 -0.3183  -0.2980  -0.2738  -0.2661  -0.2649  -0.2591  -0.2439  -0.1372

 Beta MOs
 -- Occupied --
-89.0498 -19.1178 -19.1166 -19.0645 -10.2175 -10.2034 -10.2034 -10.1880
-10.1880 -10.1880 -10.1880 -10.1790 -10.1790 -10.1746 -10.1746 -10.1731
-10.1731  -8.1141  -6.0769  -6.0756  -6.0751  -1.1085  -1.0010  -0.9849
 -0.8730  -0.8626  -0.7937  -0.7640  -0.7610  -0.7499  -0.6918  -0.6487
 -0.6278  -0.6003  -0.5821  -0.5498  -0.5468  -0.5053  -0.4812  -0.4733
 -0.4665  -0.4661  -0.4565  -0.4410  -0.4332  -0.4252  -0.4051  -0.3984
 -0.3849  -0.3782  -0.3645  -0.3576  -0.3568  -0.3388  -0.3317  -0.3301
 -0.3156  -0.2968  -0.2664  -0.2612  -0.2521  -0.2477  -0.2381

          Ground-State Mulliken Net Atomic Charges

     Atom                 Charge (a.u.)    Spin (a.u.)
  --------------------------------------------------------
      1 O                    -0.507683       0.250826
      2 C                    -0.017484       0.219128
      3 C                     1.527924      -0.012773
      4 C                     0.168099       0.117539
      5 C                    -0.634397      -0.024288
      6 C                    -0.210936       0.133068
      7 C                    -0.179934      -0.045540
      8 C                    -1.706973       0.077590
      9 S                     0.421214       0.047628
     10 O                    -0.160548       0.003100
     11 C                    -1.707616       0.077589
     12 C                    -0.179627      -0.045542
     13 C                    -0.210892       0.133067
     14 C                    -0.634404      -0.024297
     15 C                     0.168498       0.117550
     16 C                     1.527596      -0.012737
     17 H                     0.195796      -0.006954
     18 H                     0.198367       0.000681
     19 H                     0.209019      -0.009065
     20 H                     0.226387       0.002866
     21 H                     0.226379       0.002866
     22 H                     0.209020      -0.009064
     23 H                     0.198355       0.000681
     24 H                     0.195772      -0.006954
     25 O                    -0.321931       0.013037
  --------------------------------------------------------
  Sum of atomic charges =    -1.000000

                    Cartesian Multipole Moments
 -----------------------------------------------------------------
    Charge (ESU x 10^10)
                -4.8032
    Dipole Moment (Debye)
         X       0.0862      Y      -1.1949      Z       2.6481
       Tot       2.9065
    Quadrupole Moments (Debye-Ang)
        XX     -93.6303     XY       0.0146     YY    -142.2312
        XZ       0.0706     YZ      -1.6095     ZZ    -120.3497

 Total job time:  52.28s(wall), 345.20s(cpu)
        *  Thank you very much for using Q-Chem.  Have a nice day.  *
