 Q-Chem 5.4, Q-Chem, Inc., Pleasanton, CA (2021)
 Q-Chem 5.4.0 for Intel X86 EM64T Linux

User input:
--------------------------------------------------------------
$molecule
-1 2
N                 -2.5876590000     -2.2688730000      0.5753590000
C                 -2.3435880000     -0.9443010000      0.2151730000
C                 -3.4185680000     -0.0912270000     -0.0060410000
C                 -3.2152260000      1.2607720000     -0.2995690000
C                 -1.9399280000      1.7983520000     -0.3623800000
O                 -1.7958990000      3.1413820000     -0.6398770000
C                 -0.7978250000      0.9772960000     -0.1546270000
C                  0.5557400000      1.5463690000     -0.2254980000
O                  0.7880020000      2.7595360000     -0.4151170000
C                  1.6745910000      0.6057000000     -0.0609810000
C                  2.9949250000      1.0974390000     -0.1347770000
C                  4.0801650000      0.2543550000      0.0037030000
C                  3.8734020000     -1.1249230000      0.2237810000
C                  2.5893270000     -1.6252010000      0.2996370000
C                  1.4669880000     -0.7764190000      0.1612320000
C                  0.1263160000     -1.3428350000      0.2548180000
O                 -0.0050660000     -2.5956320000      0.4388780000
C                 -1.0045040000     -0.4314600000      0.1171080000
H                 -3.4406000000     -2.6588770000      0.2031730000
H                 -1.7468710000     -2.8474940000      0.5100110000
H                 -4.4296390000     -0.4810810000      0.0717020000
H                 -4.0734290000      1.9084800000     -0.4697020000
H                 -2.6843490000      3.4975740000     -0.7466860000
H                  3.1190320000      2.1603620000     -0.3058010000
H                  5.0900280000      0.6496950000     -0.0563620000
H                  4.7247050000     -1.7906020000      0.3339430000
H                  2.3999300000     -2.6783880000      0.4689000000
$end
$rem
MAX_SCF_CYCLES=200
BASIS  =  6-311++G(d,p)
GUI  =  2
JOB_TYPE  =  SP
METHOD  =  B3LYP
SOLVENT_METHOD = COSMO
$end
$solvent
dielectric 37.219
opticaldielectric 1.43
$end

--------------------------------------------------------------

             Standard Nuclear Orientation (Angstroms)
    I     Atom           X                Y                Z
 ----------------------------------------------------------------
    1      N      -2.2050962587    -2.8114498356     0.1546594904
    2      C      -2.1639077544    -1.4225312904     0.0406227730
    3      C      -3.3559864368    -0.7095084899    -0.0122902175
    4      C      -3.3566815272     0.6881840627    -0.0554526658
    5      C      -2.1734437543     1.4083127896    -0.0292714407
    6      O      -2.2309918841     2.7857564215    -0.0578331693
    7      C      -0.9199657704     0.7386393013     0.0157162186
    8      C       0.3359566962     1.5022603651     0.0390960399
    9      O       0.3871442756     2.7504350608     0.0724866446
   10      C       1.5819037114     0.7205958527     0.0199075977
   11      C       2.8158174221     1.4046629666     0.0265486541
   12      C       4.0137761674     0.7177160377    -0.0001339347
   13      C       4.0124223835    -0.6938203078    -0.0341394920
   14      C       2.8156614296    -1.3812809874    -0.0406085581
   15      C       1.5801954562    -0.6942103698    -0.0125113404
   16      C       0.3374345145    -1.4574479694    -0.0131780037
   17      O       0.3914751964    -2.7284784426    -0.0600904516
   18      C      -0.9152744301    -0.7108426013     0.0271088592
   19      H      -3.0064305804    -3.2483169034    -0.2756245530
   20      H      -1.2935068634    -3.2401151080    -0.0221113845
   21      H      -4.2982616680    -1.2500948445     0.0010688322
   22      H      -4.3034183960     1.2238247245    -0.0974248327
   23      H      -3.1641260117     3.0220041007    -0.0905751896
   24      H       2.7819565990     2.4875669111     0.0516395233
   25      H       4.9546880022     1.2602880488     0.0048990102
   26      H       4.9528134603    -1.2371774293    -0.0543547423
   27      H       2.7834899190    -2.4639111273    -0.0651242244
 ----------------------------------------------------------------

   11    -819.6295332845      6.98e-06  Convergence criterion met
 Total energy in the final basis set =     -819.6295332845
    5    -819.7230750598      6.65e-06  Convergence criterion met
 Total energy in the final basis set =     -819.7230750598

                    Orbital Energies (a.u.)
 --------------------------------------------------------------

 Alpha MOs
 -- Occupied --
-19.1452 -19.0777 -19.0729 -14.2982 -10.2293 -10.2277 -10.2270 -10.2102
-10.1777 -10.1769 -10.1712 -10.1711 -10.1706 -10.1704 -10.1693 -10.1682
-10.1679 -10.1648  -1.0566  -1.0055  -1.0032  -0.9072  -0.8576  -0.8337
 -0.7829  -0.7493  -0.7404  -0.7248  -0.6658  -0.6388  -0.6265  -0.5878
 -0.5644  -0.5484  -0.5384  -0.5072  -0.4914  -0.4745  -0.4638  -0.4528
 -0.4449  -0.4323  -0.4291  -0.4216  -0.4113  -0.4072  -0.3990  -0.3873
 -0.3816  -0.3790  -0.3641  -0.3577  -0.3474  -0.3446  -0.3362  -0.2908
 -0.2672  -0.2559  -0.2491  -0.2465  -0.2340  -0.2043  -0.1371

 Beta MOs
 -- Occupied --
-19.1449 -19.0727 -19.0678 -14.2977 -10.2291 -10.2263 -10.2249 -10.2099
-10.1772 -10.1768 -10.1708 -10.1706 -10.1701 -10.1695 -10.1683 -10.1680
-10.1680 -10.1636  -1.0558  -0.9969  -0.9944  -0.9057  -0.8555  -0.8320
 -0.7789  -0.7472  -0.7385  -0.7223  -0.6591  -0.6370  -0.6238  -0.5870
 -0.5625  -0.5462  -0.5372  -0.5062  -0.4902  -0.4714  -0.4626  -0.4515
 -0.4437  -0.4298  -0.4218  -0.4210  -0.4076  -0.4046  -0.3912  -0.3836
 -0.3778  -0.3700  -0.3630  -0.3477  -0.3460  -0.3354  -0.3332  -0.2843
 -0.2496  -0.2494  -0.2442  -0.2421  -0.2295  -0.1943

          Ground-State Mulliken Net Atomic Charges

     Atom                 Charge (a.u.)    Spin (a.u.)
  --------------------------------------------------------
      1 N                    -0.458948       0.020871
      2 C                     0.052036       0.040840
      3 C                    -0.237566       0.096784
      4 C                    -0.315091       0.072069
      5 C                    -0.255425       0.037459
      6 O                    -0.274815       0.008098
      7 C                     0.436395       0.024592
      8 C                    -0.308416       0.075062
      9 O                    -0.483617       0.185768
     10 C                    -0.099461       0.035335
     11 C                     0.111101       0.019801
     12 C                    -0.516200       0.043015
     13 C                    -0.538025       0.024387
     14 C                     0.173789       0.043663
     15 C                     0.052065       0.015961
     16 C                    -0.330627       0.120270
     17 O                    -0.492518       0.176930
     18 C                     0.442658      -0.015448
     19 H                     0.274948      -0.000752
     20 H                     0.319010      -0.003051
     21 H                     0.199468      -0.006724
     22 H                     0.188571      -0.006508
     23 H                     0.309280      -0.000703
     24 H                     0.171604      -0.000678
     25 H                     0.200217      -0.003396
     26 H                     0.199914      -0.002133
     27 H                     0.179654      -0.001512
  --------------------------------------------------------
  Sum of atomic charges =    -1.000000

                    Cartesian Multipole Moments
 -----------------------------------------------------------------
    Charge (ESU x 10^10)
                -4.8032
    Dipole Moment (Debye)
         X      -3.8696      Y      -1.5858      Z      -1.2691
       Tot       4.3702
    Quadrupole Moments (Debye-Ang)
        XX     -88.0892     XY      -2.1339     YY    -138.6888
        XZ       3.4308     YZ       2.7870     ZZ    -112.6795

 Total job time:  96.27s(wall), 732.49s(cpu)
        *  Thank you very much for using Q-Chem.  Have a nice day.  *
