 Gaussian 16, Revision A.03,
 Gaussian 16:  ES64L-G16RevA.03 25-Dec-2016

 ----------------------------------------------------------------------
 #P UB3LYP/6-311++G(d,p) nosym opt freq SCRF=(PCM,Solvent=n,n-DiMethylF
 ormamide)
 ----------------------------------------------------------------------

 -------
 Reduced
 -------
 Symbolic Z-matrix:
 Charge = -2 Multiplicity = 1

 SCF Done:  E(UB3LYP) =  -1379.73782126     A.U. after   16 cycles
 SCF Done:  E(UB3LYP) =  -1379.73855002     A.U. after   12 cycles
 SCF Done:  E(UB3LYP) =  -1379.73868174     A.U. after   12 cycles
 SCF Done:  E(UB3LYP) =  -1379.73869406     A.U. after   12 cycles
 SCF Done:  E(UB3LYP) =  -1379.73869763     A.U. after   10 cycles
 SCF Done:  E(UB3LYP) =  -1379.73869824     A.U. after   10 cycles
 Optimization completed.
    -- Stationary point found.
 Normal termination of Gaussian 16 at Sat Feb 10 10:19:16 2024.

 ----------------------------------------------------------------------
 #P Geom=AllCheck Guess=TCheck SCRF=Check GenChk UB3LYP/6-311++G(d,p) F
 req
 ----------------------------------------------------------------------

 Structure from the checkpoint file:  "017-an.chk"
 -------
 Reduced
 -------
 Charge = -2 Multiplicity = 1

                          Input orientation:
 ---------------------------------------------------------------------
 Center     Atomic      Atomic             Coordinates (Angstroms)
 Number     Number       Type             X           Y           Z
 ---------------------------------------------------------------------
      1          6           0        2.541042   -0.883396   -0.132231
      2          6           0        1.221025   -0.165011   -0.000314
      3          6           0        1.153735    1.195139    0.317977
      4         17           0        2.703696    2.077616    0.575205
      5          6           0       -0.023649    1.985994    0.465989
      6          8           0       -0.037856    3.249309    0.757802
      7          6           0       -1.182695    1.184732    0.245736
      8          6           0       -1.217471   -0.175626   -0.077007
      9          6           0       -2.519459   -0.906714   -0.292014
     10          6           0        0.010448   -0.907091   -0.212085
     11          8           0        0.025064   -2.183251   -0.510813
     12         17           0       -2.754239    2.051412    0.412081
     13          1           0        3.122121   -0.855275    0.796991
     14          1           0        2.350114   -1.924608   -0.390662
     15          1           0        3.176074   -0.441591   -0.908948
     16          1           0       -3.163954   -0.874095    0.594042
     17          1           0       -3.102358   -0.478966   -1.116237
     18          1           0       -2.301638   -1.948578   -0.525512
 ---------------------------------------------------------------------

 SCF Done:  E(UB3LYP) =  -1379.73869824     A.U. after    1 cycles

 Alpha  occ. eigenvalues -- -101.52374-101.52369 -19.02039 -19.01198 -10.18509
 Alpha  occ. eigenvalues --  -10.18300 -10.18292 -10.17298 -10.14057 -10.14055
 Alpha  occ. eigenvalues --  -10.13919 -10.13915  -9.43827  -9.43823  -7.20205
 Alpha  occ. eigenvalues --   -7.20201  -7.19377  -7.19373  -7.19307  -7.19303
 Alpha  occ. eigenvalues --   -0.93756  -0.92238  -0.83736  -0.83157  -0.76902
 Alpha  occ. eigenvalues --   -0.73526  -0.69743  -0.63209  -0.62858  -0.53147
 Alpha  occ. eigenvalues --   -0.52492  -0.46996  -0.42864  -0.40825  -0.39583
 Alpha  occ. eigenvalues --   -0.39220  -0.38162  -0.37807  -0.36062  -0.35974
 Alpha  occ. eigenvalues --   -0.35973  -0.32458  -0.32446  -0.32438  -0.31291
 Alpha  occ. eigenvalues --   -0.29204  -0.29192  -0.28449  -0.22300  -0.20428
 Alpha  occ. eigenvalues --   -0.20231  -0.19397  -0.12308
 Alpha virt. eigenvalues --   -0.00489   0.01202   0.01868   0.01963   0.03493
 Alpha virt. eigenvalues --    0.03605   0.03661   0.04322   0.04987   0.05669
 Alpha virt. eigenvalues --    0.06399   0.07098   0.07207   0.07548   0.08392

  Beta  occ. eigenvalues -- -101.52374-101.52369 -19.02039 -19.01198 -10.18509
  Beta  occ. eigenvalues --  -10.18300 -10.18292 -10.17298 -10.14057 -10.14055
  Beta  occ. eigenvalues --  -10.13919 -10.13915  -9.43827  -9.43823  -7.20205
  Beta  occ. eigenvalues --   -7.20201  -7.19377  -7.19373  -7.19307  -7.19303
  Beta  occ. eigenvalues --   -0.93756  -0.92238  -0.83736  -0.83157  -0.76902
  Beta  occ. eigenvalues --   -0.73526  -0.69743  -0.63209  -0.62858  -0.53147
  Beta  occ. eigenvalues --   -0.52492  -0.46996  -0.42864  -0.40825  -0.39583
  Beta  occ. eigenvalues --   -0.39220  -0.38162  -0.37807  -0.36062  -0.35974
  Beta  occ. eigenvalues --   -0.35973  -0.32458  -0.32446  -0.32438  -0.31291
  Beta  occ. eigenvalues --   -0.29204  -0.29192  -0.28449  -0.22300  -0.20428
  Beta  occ. eigenvalues --   -0.20231  -0.19397  -0.12308
  Beta virt. eigenvalues --   -0.00489   0.01202   0.01868   0.01963   0.03493
  Beta virt. eigenvalues --    0.03605   0.03661   0.04322   0.04987   0.05669
  Beta virt. eigenvalues --    0.06399   0.07098   0.07207   0.07548   0.08392

 Mulliken charges and spin densities:
               1          2
     1  C   -0.684494  -0.000000
     2  C    0.644043   0.000000
     3  C    0.159902  -0.000000
     4  Cl   0.275432   0.000000
     5  C   -1.148860  -0.000000
     6  O   -0.624009  -0.000000
     7  C    0.161700  -0.000000
     8  C    0.642372   0.000000
     9  C   -0.682207   0.000000
    10  C   -1.209698   0.000000
    11  O   -0.694243   0.000000
    12  Cl   0.275006  -0.000000
    13  H    0.139743  -0.000000
    14  H    0.163794   0.000000
    15  H    0.139064  -0.000000
    16  H    0.138432   0.000000
    17  H    0.140210   0.000000
    18  H    0.163816  -0.000000
 Sum of Mulliken charges =  -2.00000   0.00000

 Dipole moment (field-independent basis, Debye):
    X=              0.1087    Y=             -8.5735    Z=             -2.0262  Tot=              8.8104
 Quadrupole moment (field-independent basis, Debye-Ang):
   XX=           -110.1938   YY=           -160.3194   ZZ=            -96.1742
   XY=              0.7124   XZ=             -0.3501   YZ=            -15.9024

  Exact polarizability: 261.313  -0.799 244.950   3.947  28.659 130.150
 Approx polarizability: 273.399  -0.989 272.810   3.920  32.331 143.011

                      1                      2                      3
                      A                      A                      A
 Frequencies --     85.0358                97.2328               113.4710
 Red. masses --      2.0134                 4.6425                 2.1893
 Frc consts  --      0.0086                 0.0259                 0.0166
 IR Inten    --      2.8507                17.2261                 2.7301

                      4                      5                      6
                      A                      A                      A
 Frequencies --    125.4280               149.4504               188.3164
 Red. masses --      1.1984                 2.2587                 5.1885
 Frc consts  --      0.0111                 0.0297                 0.1084
 IR Inten    --      1.8728                 6.2394                 1.6436

                      7                      8                      9
                      A                      A                      A
 Frequencies --    210.3741               254.8733               296.2866
 Red. masses --     23.0824                 7.7601                 3.0377
 Frc consts  --      0.6019                 0.2970                 0.1571
 IR Inten    --      4.8284                 3.5225                12.5960

                     10                     11                     12
                      A                      A                      A
 Frequencies --    298.8380               312.3832               354.4004
 Red. masses --      9.4312                 5.3804                 8.5195
 Frc consts  --      0.4962                 0.3093                 0.6305
 IR Inten    --      2.0915                 0.0967                 0.0756

                     13                     14                     15
                      A                      A                      A
 Frequencies --    356.9012               359.1351               400.3231
 Red. masses --      7.1684                 5.7997                 6.8988
 Frc consts  --      0.5380                 0.4407                 0.6514
 IR Inten    --      1.4439                 2.8395                20.1450

                     16                     17                     18
                      A                      A                      A
 Frequencies --    489.8092               532.7789               584.0768
 Red. masses --     11.4047                 6.0292                 5.2226
 Frc consts  --      1.6121                 1.0083                 1.0497
 IR Inten    --      1.9783                 0.0199                38.3181

                     19                     20                     21
                      A                      A                      A
 Frequencies --    678.3100               691.4681               698.7093
 Red. masses --      6.5204                 5.8256                 9.5892
 Frc consts  --      1.7676                 1.6411                 2.7582
 IR Inten    --    109.9240                60.3627                11.3204

                     22                     23                     24
                      A                      A                      A
 Frequencies --    730.5579               844.5342               971.2773
 Red. masses --      6.9161                 4.5901                 2.2060
 Frc consts  --      2.1748                 1.9289                 1.2261
 IR Inten    --      0.0918               277.6285               145.0861

                     25                     26                     27
                      A                      A                      A
 Frequencies --    975.8283              1022.2626              1041.0745
 Red. masses --      5.1840                 1.8132                 1.4468
 Frc consts  --      2.9084                 1.1164                 0.9239
 IR Inten    --     56.5048                 3.2265                 0.4655

                     28                     29                     30
                      A                      A                      A
 Frequencies --   1049.8935              1084.0166              1157.5893
 Red. masses --      1.4265                 4.8371                 7.1232
 Frc consts  --      0.9265                 3.3489                 5.6239
 IR Inten    --      0.0127               124.5176               409.2093

                     31                     32                     33
                      A                      A                      A
 Frequencies --   1244.5211              1349.9870              1361.3104
 Red. masses --      4.7687                 4.2031                 3.3846
 Frc consts  --      4.3516                 4.5131                 3.6954
 IR Inten    --     59.3309               537.7633                 1.2021

                     34                     35                     36
                      A                      A                      A
 Frequencies --   1380.9094              1388.0382              1401.5623
 Red. masses --      1.5332                 2.3462                 3.3763
 Frc consts  --      1.7226                 2.6632                 3.9076
 IR Inten    --      3.0456               147.4229              1416.5729

                     37                     38                     39
                      A                      A                      A
 Frequencies --   1459.9306              1468.5834              1486.9119
 Red. masses --      1.6359                 1.0777                 1.1541
 Frc consts  --      2.0543                 1.3695                 1.5033
 IR Inten    --     46.4254               114.4225                15.5628

                     40                     41                     42
                      A                      A                      A
 Frequencies --   1488.9913              1490.1857              1584.2147
 Red. masses --      2.0065                 1.0578                 9.7342
 Frc consts  --      2.6211                 1.3840                14.3939
 IR Inten    --     22.2987                 6.9429                 1.5971

                     43                     44                     45
                      A                      A                      A
 Frequencies --   2997.8216              2999.0801              3032.4406
 Red. masses --      1.0403                 1.0403                 1.0996
 Frc consts  --      5.5082                 5.5132                 5.9577
 IR Inten    --    262.6190                10.9716                63.8466

                     46                     47                     48
                      A                      A                      A
 Frequencies --   3032.7008              3109.7011              3111.6938
 Red. masses --      1.0996                 1.0955                 1.0952
 Frc consts  --      5.9588                 6.2416                 6.2478
 IR Inten    --     63.2615                10.8105                22.3432

 - Thermochemistry -
 -------------------
 Temperature   298.150 Kelvin.  Pressure   1.00000 Atm.
 Atom     1 has atomic number  6 and mass  12.00000

 Molecular mass:   203.97448 amu.
 Principal axes and moments of inertia in atomic units:
                           1         2         3
     Eigenvalues --  1973.993362847.830924799.59074
           X            0.99953  -0.01164  -0.02852
           Y            0.00477   0.97322  -0.22981
           Z            0.03043   0.22956   0.97282
 This molecule is an asymmetric top.
 Rotational symmetry number  1.
 Warning -- assumption of classical behavior for rotation
           may cause significant error
 Rotational temperatures (Kelvin)      0.04388     0.03041     0.01805
 Rotational constants (GHZ):           0.91426     0.63372     0.37602
 Zero-point vibrational energy     308296.9 (Joules/Mol)
                                   73.68473 (Kcal/Mol)
 Warning -- explicit consideration of  18 degrees of freedom as
           vibrations may cause significant error
 Vibrational temperatures:    122.35   139.90   163.26   180.46   215.03
          (Kelvin)            270.95   302.68   366.71   426.29   429.96
                              449.45   509.90   513.50   516.72   575.98
                              704.73   766.55   840.36   975.94   994.87
                             1005.29  1051.11  1215.10  1397.45  1404.00
                             1470.81  1497.87  1510.56  1559.66  1665.51
                             1790.59  1942.33  1958.62  1986.82  1997.08
                             2016.54  2100.51  2112.96  2139.33  2142.33
                             2144.04  2279.33  4313.20  4315.01  4363.01
                             4363.38  4474.17  4477.03

 Zero-point correction=                           0.117424 (Hartree/Particle)
 Thermal correction to Energy=                    0.129455
 Thermal correction to Enthalpy=                  0.130399
 Thermal correction to Gibbs Free Energy=         0.079003
 Sum of electronic and zero-point Energies=          -1379.621274
 Sum of electronic and thermal Energies=             -1379.609243
 Sum of electronic and thermal Enthalpies=           -1379.608299
 Sum of electronic and thermal Free Energies=        -1379.659695

                     E (Thermal)             CV                S
                      KCal/Mol        Cal/Mol-Kelvin    Cal/Mol-Kelvin
 Total                   81.234             43.221            108.173
 Electronic               0.000              0.000              0.000
 Translational            0.889              2.981             41.843
 Rotational               0.889              2.981             31.668
 Vibrational             79.457             37.260             34.662
 Vibration     1          0.601              1.960              3.771
 Vibration     2          0.603              1.951              3.509
 Vibration     3          0.607              1.938              3.209
 Vibration     4          0.610              1.928              3.015
 Vibration     5          0.618              1.903              2.679
 Vibration     6          0.633              1.856              2.244
 Vibration     7          0.643              1.825              2.040
 Vibration     8          0.665              1.755              1.697
 Vibration     9          0.690              1.681              1.438
 Vibration    10          0.692              1.676              1.423
 Vibration    11          0.701              1.650              1.350
 Vibration    12          0.730              1.566              1.147
 Vibration    13          0.732              1.561              1.136
 Vibration    14          0.734              1.556              1.126
 Vibration    15          0.766              1.469              0.961
 Vibration    16          0.846              1.273              0.684
 Vibration    17          0.888              1.177              0.581
 Vibration    18          0.941              1.066              0.478

                           ! Non-Optimized Parameters !
 Normal termination of Gaussian 16 at Sat Feb 10 10:36:34 2024.
