 Gaussian 16, Revision A.03,
 Gaussian 16:  ES64L-G16RevA.03 25-Dec-2016

 ----------------------------------------------------------------
 #P UB3LYP/6-311++G(d,p) SCRF=(PCM,Solvent=n,n-DiMethylFormamide)
 ----------------------------------------------------------------

 ------------------
 Radical PCM in DMF
 ------------------
 Symbolic Z-matrix:
 Charge = -1 Multiplicity = 2

                         Standard orientation:
 ---------------------------------------------------------------------
 Center     Atomic      Atomic             Coordinates (Angstroms)
 Number     Number       Type             X           Y           Z
 ---------------------------------------------------------------------
      1          7           0        3.839338    1.848914    0.040699
      2          6           0        3.192167    0.615324    0.063123
      3          6           0        3.954294   -0.551877    0.140000
      4          6           0        3.367013   -1.809332    0.063807
      5          6           0        1.987473   -1.965774   -0.090130
      6          7           0        1.466108   -3.245707   -0.256630
      7          6           0        1.159106   -0.800927   -0.108302
      8          6           0       -0.292830   -0.953393   -0.157811
      9          8           0       -0.870214   -2.069607   -0.297490
     10          6           0       -1.099078    0.251977   -0.046112
     11          6           0       -0.502484    1.544545   -0.047027
     12          6           0       -1.315676    2.695611   -0.069121
     13          6           0       -2.691695    2.600954   -0.092282
     14          6           0       -3.303789    1.333029   -0.059393
     15          6           0       -2.513245    0.206537   -0.009292
     16          7           0       -3.263765   -1.059332    0.185534
     17          8           0       -3.194807   -1.593376    1.283035
     18          8           0       -4.006659   -1.420035   -0.722821
     19          6           0        0.948869    1.712100   -0.025223
     20          8           0        1.432617    2.883179    0.018162
     21          6           0        1.770040    0.507126   -0.035154
     22          1           0        4.711986    1.884735    0.545665
     23          1           0        3.199400    2.633784    0.164137
     24          1           0        5.034387   -0.467295    0.225693
     25          1           0        3.993087   -2.697177    0.091615
     26          1           0        1.975041   -3.981863    0.208783
     27          1           0        0.448396   -3.275360   -0.194827
     28          1           0       -0.812641    3.654724   -0.074251
     29          1           0       -3.307641    3.493297   -0.120018
     30          1           0       -4.382260    1.231338   -0.043615
 ---------------------------------------------------------------------

 SCF Done:  E(UB3LYP) =  -1004.41326856     A.U. after   23 cycles

 The electronic state is 2-A.
 Alpha  occ. eigenvalues --  -19.16610 -19.16601 -19.08120 -19.08082 -14.55514
 Alpha  occ. eigenvalues --  -14.30341 -14.30277 -10.23515 -10.23366 -10.23354
 Alpha  occ. eigenvalues --  -10.21215 -10.21159 -10.19465 -10.19188 -10.18420
 Alpha  occ. eigenvalues --  -10.18347 -10.18164 -10.17842 -10.17743 -10.16944
 Alpha  occ. eigenvalues --  -10.16862  -1.24052  -1.06738  -1.01287  -1.00874
 Alpha  occ. eigenvalues --   -0.91554  -0.90477  -0.88499  -0.82960  -0.80488
 Alpha  occ. eigenvalues --   -0.78910  -0.75016  -0.72211  -0.70154  -0.67076
 Alpha  occ. eigenvalues --   -0.64209  -0.63652  -0.58697  -0.57338  -0.56704
 Alpha  occ. eigenvalues --   -0.54026  -0.53339  -0.52840  -0.52638  -0.50797
 Alpha  occ. eigenvalues --   -0.49037  -0.48045  -0.47329  -0.46836  -0.45168
 Alpha  occ. eigenvalues --   -0.44702  -0.43315  -0.42192  -0.41528  -0.39746
 Alpha  occ. eigenvalues --   -0.39624  -0.39011  -0.38566  -0.38318  -0.36742
 Alpha  occ. eigenvalues --   -0.35823  -0.35727  -0.34073  -0.32656  -0.31859
 Alpha  occ. eigenvalues --   -0.31699  -0.28126  -0.26677  -0.26565  -0.25558
 Alpha  occ. eigenvalues --   -0.25121  -0.24476  -0.19681  -0.14020
 Alpha virt. eigenvalues --   -0.08811  -0.05392  -0.03035  -0.00247   0.00239
 Alpha virt. eigenvalues --    0.00442   0.00868   0.02018   0.02390   0.03437
 Alpha virt. eigenvalues --    0.04143   0.04406   0.04526   0.04734   0.05394

  Beta  occ. eigenvalues --  -19.16582 -19.16564 -19.07690 -19.07623 -14.55469
  Beta  occ. eigenvalues --  -14.30269 -14.30198 -10.23493 -10.23225 -10.23182
  Beta  occ. eigenvalues --  -10.21164 -10.21096 -10.19457 -10.19068 -10.18332
  Beta  occ. eigenvalues --  -10.18241 -10.18188 -10.17876 -10.17760 -10.16848
  Beta  occ. eigenvalues --  -10.16755  -1.23976  -1.06675  -1.00507  -1.00118
  Beta  occ. eigenvalues --   -0.91368  -0.90305  -0.88306  -0.82762  -0.80303
  Beta  occ. eigenvalues --   -0.78576  -0.74858  -0.71872  -0.69979  -0.66568
  Beta  occ. eigenvalues --   -0.63979  -0.63422  -0.58606  -0.57189  -0.56469
  Beta  occ. eigenvalues --   -0.53902  -0.53175  -0.52752  -0.52534  -0.50675
  Beta  occ. eigenvalues --   -0.48894  -0.47833  -0.47207  -0.46728  -0.45033
  Beta  occ. eigenvalues --   -0.44552  -0.42428  -0.42031  -0.41070  -0.39599
  Beta  occ. eigenvalues --   -0.39309  -0.38378  -0.38236  -0.37383  -0.36536
  Beta  occ. eigenvalues --   -0.35635  -0.34755  -0.33342  -0.32376  -0.31747
  Beta  occ. eigenvalues --   -0.31439  -0.26978  -0.26092  -0.25547  -0.24978
  Beta  occ. eigenvalues --   -0.24723  -0.24073  -0.18542
  Beta virt. eigenvalues --   -0.09081  -0.08159  -0.04586  -0.02016  -0.00220
  Beta virt. eigenvalues --    0.00452   0.00822   0.00889   0.02044   0.02401
  Beta virt. eigenvalues --    0.03493   0.04269   0.04590   0.04744   0.05108

 Mulliken charges and spin densities:
               1          2
     1  N   -0.426161   0.031029
     2  C   -0.077129   0.043302
     3  C   -0.396391   0.082342
     4  C   -0.320563   0.071877
     5  C   -0.122159   0.054033
     6  N   -0.424480   0.034803
     7  C    0.423808  -0.027192
     8  C   -0.489568   0.087253
     9  O   -0.410027   0.168248
    10  C    0.275966   0.073679
    11  C    0.485322   0.071877
    12  C   -0.232519  -0.013055
    13  C   -0.474675   0.077136
    14  C   -0.029505   0.001960
    15  C   -0.284346   0.030069
    16  N   -0.154203   0.014304
    17  O   -0.040765   0.008895
    18  O   -0.042284   0.013725
    19  C   -0.404853   0.066236
    20  O   -0.446534   0.155401
    21  C    0.489795  -0.021793
    22  H    0.261096  -0.001192
    23  H    0.312907  -0.002596
    24  H    0.174353  -0.006320
    25  H    0.177432  -0.005585
    26  H    0.260319  -0.001277
    27  H    0.318250  -0.002737
    28  H    0.176306   0.001342
    29  H    0.202949  -0.005018
    30  H    0.217657  -0.000744
 Sum of Mulliken charges =  -1.00000   1.00000

 Dipole moment (field-independent basis, Debye):
    X=              4.1738    Y=              2.1661    Z=              2.2250  Tot=              5.2022
 Quadrupole moment (field-independent basis, Debye-Ang):
   XX=           -136.6659   YY=           -142.0514   ZZ=           -132.5718
   XY=            -28.9279   XZ=              7.1521   YZ=             -1.8200

 Normal termination of Gaussian 16 at Sun Jan 14 01:20:35 2024.
