 Q-Chem 5.4, Q-Chem, Inc., Pleasanton, CA (2021)
 Q-Chem 5.4.0 for Intel X86 EM64T Linux

User input:
--------------------------------------------------------------
$molecule
-1 2
C                 -1.2985340000      2.0646340000      0.5692380000
C                 -2.5504270000      1.4009070000      0.2232120000
C                 -2.6550200000      0.1466770000     -0.3028850000
C                 -1.4800470000     -0.6605380000     -0.5712660000
C                 -0.2117570000     -0.0421830000     -0.2431090000
C                 -0.1448840000      1.2151180000      0.2820970000
O                 -1.5591560000     -1.8203710000     -1.0566840000
H                 -3.6181330000     -0.2889760000     -0.5380150000
O                 -1.2164000000      3.2124080000      1.0497320000
Cl                 1.4417950000      1.9062390000      0.6582750000
Br                -4.1638010000      2.4159920000      0.5530400000
H                  0.6866760000     -0.6175380000     -0.4309650000
$end
$rem
MAX_SCF_CYCLES=200
BASIS  =  6-311++G(d,p)
GUI  =  2
JOB_TYPE  =  SP
METHOD  =  B3LYP
SOLVENT_METHOD = PCM
$end
$pcm
theory = CPCM
$end
$solvent
dielectric 37.219
opticaldielectric 1.43
$end

--------------------------------------------------------------

             Standard Nuclear Orientation (Angstroms)
    I     Atom           X                Y                Z
 ----------------------------------------------------------------
    1      C      -1.2985340000     2.0646340000     0.5692380000
    2      C      -2.5504270000     1.4009070000     0.2232120000
    3      C      -2.6550200000     0.1466770000    -0.3028850000
    4      C      -1.4800470000    -0.6605380000    -0.5712660000
    5      C      -0.2117570000    -0.0421830000    -0.2431090000
    6      C      -0.1448840000     1.2151180000     0.2820970000
    7      O      -1.5591560000    -1.8203710000    -1.0566840000
    8      H      -3.6181330000    -0.2889760000    -0.5380150000
    9      O      -1.2164000000     3.2124080000     1.0497320000
   10      Cl      1.4417950000     1.9062390000     0.6582750000
   11      Br     -4.1638010000     2.4159920000     0.5530400000
   12      H       0.6866760000    -0.6175380000    -0.4309650000
 ----------------------------------------------------------------

    9   -3414.8960630137      8.10e-06  Convergence criterion met
 Total energy in the final basis set =    -3414.8960630137

                    Orbital Energies (a.u.)
 --------------------------------------------------------------

 Alpha MOs
 -- Occupied --
********-101.5549 -62.4824 -56.3028 -56.2991 -56.2989 -19.0980 -19.0936
-10.2506 -10.2398 -10.2374 -10.2321 -10.1823 -10.1813  -9.4692  -8.6911
 -7.2335  -7.2245  -7.2237  -6.5223  -6.5099  -6.5092  -2.6334  -2.6296
 -2.6291  -2.6195  -2.6195  -1.0284  -1.0158  -0.8796  -0.8434  -0.7890
 -0.7317  -0.6992  -0.6015  -0.5817  -0.5047  -0.4874  -0.4527  -0.4373
 -0.4290  -0.4224  -0.4022  -0.3957  -0.3785  -0.3576  -0.3289  -0.3192
 -0.2941  -0.2843  -0.2662  -0.2561  -0.2557  -0.1799

 Beta MOs
 -- Occupied --
********-101.5549 -62.4824 -56.3028 -56.2991 -56.2989 -19.0913 -19.0865
-10.2491 -10.2386 -10.2363 -10.2311 -10.1810 -10.1801  -9.4692  -8.6911
 -7.2336  -7.2243  -7.2237  -6.5223  -6.5099  -6.5092  -2.6334  -2.6296
 -2.6291  -2.6195  -2.6194  -1.0167  -1.0033  -0.8765  -0.8404  -0.7865
 -0.7293  -0.6887  -0.5973  -0.5772  -0.5025  -0.4830  -0.4495  -0.4254
 -0.4200  -0.4183  -0.3979  -0.3764  -0.3678  -0.3525  -0.3188  -0.3155
 -0.2937  -0.2600  -0.2599  -0.2499  -0.2492

          Ground-State Mulliken Net Atomic Charges

     Atom                 Charge (a.u.)    Spin (a.u.)
  --------------------------------------------------------
      1 C                    -1.633464       0.043672
      2 C                     0.893092       0.102269
      3 C                    -0.160701       0.079736
      4 C                    -0.503196       0.125264
      5 C                    -0.472108       0.078564
      6 C                     1.259603       0.081350
      7 O                    -0.490861       0.250019
      8 H                     0.245740      -0.008304
      9 O                    -0.385054       0.246911
     10 Cl                    0.216921       0.001741
     11 Br                   -0.189571       0.005823
     12 H                     0.219599      -0.007044
  --------------------------------------------------------
  Sum of atomic charges =    -1.000000

                    Cartesian Multipole Moments
 -----------------------------------------------------------------
    Charge (ESU x 10^10)
                -4.8032
    Dipole Moment (Debye)
         X       6.6193      Y      -5.4738      Z      -0.8688
       Tot       8.6333
    Quadrupole Moments (Debye-Ang)
        XX     -94.9734     XY       5.4835     YY    -119.5006
        XZ       0.0065     YZ     -14.9548     ZZ     -85.8854

 Total job time:  18.50s(wall), 98.16s(cpu)
        *  Thank you very much for using Q-Chem.  Have a nice day.  *
