 Q-Chem 5.4, Q-Chem, Inc., Pleasanton, CA (2021)
 Q-Chem 5.4.0 for Intel X86 EM64T Linux

User input:
--------------------------------------------------------------
$molecule
-2 1
C                  5.1144260000     -2.7587260000      0.1716500000
C                  5.9156290000     -2.1480780000     -0.7597770000
C                  5.2940590000     -1.2778000000     -1.7117280000
C                  3.7097170000     -2.5582640000      0.2286100000
C                  3.1006240000     -1.6698260000     -0.7442530000
C                  3.9248810000     -1.0430120000     -1.6901480000
C                  2.9424850000     -3.2380270000      1.2446900000
C                  1.5070650000     -2.9576750000      1.2026160000
C                  0.8979760000     -2.0692390000      0.2297490000
C                  1.6652160000     -1.3894490000     -0.7863110000
C                  0.6828030000     -3.5845150000      2.1484790000
C                 -0.5067380000     -1.8688180000      0.2866830000
C                 -1.3079530000     -2.4795200000      1.2180680000
O                  3.4625200000     -4.0169190000      2.1044390000
O                  1.1451810000     -0.6105170000     -1.6460270000
H                  5.5355910000     -3.4343400000      0.9085810000
H                  6.9828520000     -2.3237970000     -0.8017710000
S                  6.2884800000     -0.4307030000     -2.8571540000
H                 -2.3751840000     -2.3038610000      1.2600340000
H                  3.4509450000     -0.3802140000     -2.4046250000
H                  1.1567580000     -4.2472950000      2.8629630000
H                 -0.9279000000     -1.1931870000     -0.4502350000
C                 -0.6863890000     -3.3497690000      2.1700470000
S                 -1.6808100000     -4.1970750000      3.3153310000
O                 -0.9336560000     -4.7096620000      4.4698710000
O                 -2.9449880000     -3.4891480000      3.5753890000
O                 -2.1268150000     -5.5700570000      2.4171090000
C                 -3.0065750000     -6.4695900000      3.0915660000
H                 -2.5430640000     -6.8641330000      4.0018750000
H                 -3.1908290000     -7.2878060000      2.3919230000
H                 -3.9536910000     -5.9799140000      3.3420940000
O                  5.5410850000      0.0824810000     -4.0112600000
O                  7.5521780000     -1.1392290000     -3.1179040000
O                  6.7355400000      0.9418120000     -1.9586440000
C                  7.6153880000      1.8411440000     -2.6332200000
H                  7.1517010000      2.2360690000     -3.5432760000
H                  8.5622280000      1.3511660000     -2.8842080000
H                  7.8002150000      2.6591430000     -1.9334710000
$end

$rem
BASIS  =  6-311++G(d,p)
GUI  =  2
JOB_TYPE  =  SP
METHOD  =  B3LYP
SCF_CONVERGENCE  = 8
SOLVENT_METHOD = sm12
$end

$smx
solvent dimethylformamide
charges CM5
$end

--------------------------------------------------------------

             Standard Nuclear Orientation (Angstroms)
    I     Atom           X                Y                Z
 ----------------------------------------------------------------
    1      C       5.1144260000    -2.7587260000     0.1716500000
    2      C       5.9156290000    -2.1480780000    -0.7597770000
    3      C       5.2940590000    -1.2778000000    -1.7117280000
    4      C       3.7097170000    -2.5582640000     0.2286100000
    5      C       3.1006240000    -1.6698260000    -0.7442530000
    6      C       3.9248810000    -1.0430120000    -1.6901480000
    7      C       2.9424850000    -3.2380270000     1.2446900000
    8      C       1.5070650000    -2.9576750000     1.2026160000
    9      C       0.8979760000    -2.0692390000     0.2297490000
   10      C       1.6652160000    -1.3894490000    -0.7863110000
   11      C       0.6828030000    -3.5845150000     2.1484790000
   12      C      -0.5067380000    -1.8688180000     0.2866830000
   13      C      -1.3079530000    -2.4795200000     1.2180680000
   14      O       3.4625200000    -4.0169190000     2.1044390000
   15      O       1.1451810000    -0.6105170000    -1.6460270000
   16      H       5.5355910000    -3.4343400000     0.9085810000
   17      H       6.9828520000    -2.3237970000    -0.8017710000
   18      S       6.2884800000    -0.4307030000    -2.8571540000
   19      H      -2.3751840000    -2.3038610000     1.2600340000
   20      H       3.4509450000    -0.3802140000    -2.4046250000
   21      H       1.1567580000    -4.2472950000     2.8629630000
   22      H      -0.9279000000    -1.1931870000    -0.4502350000
   23      C      -0.6863890000    -3.3497690000     2.1700470000
   24      S      -1.6808100000    -4.1970750000     3.3153310000
   25      O      -0.9336560000    -4.7096620000     4.4698710000
   26      O      -2.9449880000    -3.4891480000     3.5753890000
   27      O      -2.1268150000    -5.5700570000     2.4171090000
   28      C      -3.0065750000    -6.4695900000     3.0915660000
   29      H      -2.5430640000    -6.8641330000     4.0018750000
   30      H      -3.1908290000    -7.2878060000     2.3919230000
   31      H      -3.9536910000    -5.9799140000     3.3420940000
   32      O       5.5410850000     0.0824810000    -4.0112600000
   33      O       7.5521780000    -1.1392290000    -3.1179040000
   34      O       6.7355400000     0.9418120000    -1.9586440000
   35      C       7.6153880000     1.8411440000    -2.6332200000
   36      H       7.1517010000     2.2360690000    -3.5432760000
   37      H       8.5622280000     1.3511660000    -2.8842080000
   38      H       7.8002150000     2.6591430000    -1.9334710000
 ----------------------------------------------------------------

   16   -2015.3911210457      6.91e-09  Convergence criterion met
 Total energy in the final basis set =    -2015.6378400858

                    Orbital Energies (a.u.)
 --------------------------------------------------------------

 Alpha MOs
 -- Occupied --
-89.0748 -89.0748 -19.1567 -19.1567 -19.1247 -19.1247 -19.1239 -19.1239
-19.0389 -19.0389 -10.2223 -10.2223 -10.2079 -10.2079 -10.2017 -10.2017
-10.1901 -10.1901 -10.1833 -10.1833 -10.1753 -10.1753 -10.1684 -10.1684
-10.1628 -10.1628  -8.1358  -8.1358  -6.0995  -6.0995  -6.0979  -6.0979
 -6.0961  -6.0961  -1.1357  -1.1356  -1.0263  -1.0263  -1.0116  -1.0116
 -0.9642  -0.9612  -0.8657  -0.8638  -0.7989  -0.7764  -0.7629  -0.7542
 -0.7266  -0.7142  -0.6730  -0.6706  -0.6327  -0.6280  -0.5916  -0.5915
 -0.5595  -0.5559  -0.5355  -0.5322  -0.5127  -0.5043  -0.4840  -0.4804
 -0.4694  -0.4669  -0.4640  -0.4528  -0.4469  -0.4449  -0.4445  -0.4354
 -0.4329  -0.4213  -0.4075  -0.4020  -0.4014  -0.3950  -0.3938  -0.3781
 -0.3739  -0.3623  -0.3598  -0.3474  -0.3408  -0.3395  -0.3390  -0.3376
 -0.3358  -0.3282  -0.3200  -0.3196  -0.3171  -0.3149  -0.2880  -0.2880
 -0.2680  -0.2564  -0.2510  -0.2473  -0.2188  -0.2123  -0.1285

          Ground-State Mulliken Net Atomic Charges

     Atom                 Charge (a.u.)
  ----------------------------------------
      1 C                    -0.391445
      2 C                     1.166992
      3 C                     0.152270
      4 C                    -1.205108
      5 C                    -1.122816
      6 C                     0.331849
      7 C                    -1.975897
      8 C                    -1.122761
      9 C                    -1.205109
     10 C                    -1.976286
     11 C                     0.331635
     12 C                    -0.391007
     13 C                     1.166777
     14 O                    -0.358825
     15 O                    -0.358831
     16 H                     0.145712
     17 H                     0.334276
     18 S                     1.294826
     19 H                     0.334262
     20 H                     0.114007
     21 H                     0.113951
     22 H                     0.145724
     23 C                     0.153106
     24 S                     1.294518
     25 O                    -0.144943
     26 O                    -0.085695
     27 O                    -0.055584
     28 C                     0.160544
     29 H                     0.176126
     30 H                     0.278203
     31 H                     0.185382
     32 O                    -0.144873
     33 O                    -0.085656
     34 O                    -0.055545
     35 C                     0.160515
     36 H                     0.176119
     37 H                     0.185376
     38 H                     0.278214
  ----------------------------------------
  Sum of atomic charges =    -2.000000

                    Cartesian Multipole Moments
 -----------------------------------------------------------------
    Charge (ESU x 10^10)
                -9.6064
    Dipole Moment (Debye)
         X     -22.1299      Y      22.2271      Z      -2.2016
       Tot      31.4424
    Quadrupole Moments (Debye-Ang)
        XX    -296.8368     XY      54.8078     YY    -238.4827
        XZ      38.7446     YZ      38.6401     ZZ    -253.6995

 Total job time:  1493.85s(wall), 11450.93s(cpu)
        *  Thank you very much for using Q-Chem.  Have a nice day.  *
