 Gaussian 16, Revision A.03,
 Gaussian 16:  ES64L-G16RevA.03 25-Dec-2016

 ----------------------------------------------------------------------
 #P UB3LYP/6-311++G(d,p) nosym opt freq SCRF=(PCM,Solvent=n,n-DiMethylF
 ormamide)
 ----------------------------------------------------------------------

 --------
 Oxidized
 --------
 Symbolic Z-matrix:
 Charge =  0 Multiplicity = 1

 SCF Done:  E(UB3LYP) =  -574.591420475     A.U. after   14 cycles
 SCF Done:  E(UB3LYP) =  -574.591501997     A.U. after   11 cycles
 SCF Done:  E(UB3LYP) =  -574.591514994     A.U. after   10 cycles
 SCF Done:  E(UB3LYP) =  -574.591516376     A.U. after    9 cycles
 Optimization completed.
    -- Stationary point found.
 Normal termination of Gaussian 16 at Sat Feb 10 23:45:24 2024.

 ----------------------------------------------------------------------
 #P Geom=AllCheck Guess=TCheck SCRF=Check GenChk UB3LYP/6-311++G(d,p) F
 req
 ----------------------------------------------------------------------

 Structure from the checkpoint file:  "237.chk"
 --------
 Oxidized
 --------
 Charge =  0 Multiplicity = 1

                          Input orientation:
 ---------------------------------------------------------------------
 Center     Atomic      Atomic             Coordinates (Angstroms)
 Number     Number       Type             X           Y           Z
 ---------------------------------------------------------------------
      1          6           0        5.769228   -5.285923    1.246787
      2          6           0        6.743219   -5.149599    0.264560
      3          6           0        6.626524   -4.144884   -0.689397
      4          6           0        4.682180   -4.414646    1.267948
      5          6           0        4.557490   -3.389118    0.298164
      6          6           0        5.548205   -3.248229   -0.702226
      7          6           0        3.660463   -4.600004    2.341061
      8          6           0        2.507367   -3.679899    2.359033
      9          6           0        2.381929   -2.709127    1.447630
     10          6           0        3.374164   -2.486594    0.365939
     11          8           0        3.759226   -5.483042    3.185546
     12          8           0        3.177274   -1.571787   -0.426715
     13          1           0        5.837322   -6.059865    2.000259
     14          6           0        5.517717   -2.195537   -1.781490
     15          1           0        7.591836   -5.823091    0.240234
     16          1           0        7.391069   -4.046127   -1.451742
     17          1           0        1.777281   -3.834310    3.145525
     18          1           0        1.540582   -2.025099    1.449075
     19          1           0        5.510107   -1.188550   -1.359444
     20          1           0        4.618398   -2.276856   -2.395335
     21          1           0        6.392718   -2.300123   -2.424725
 ---------------------------------------------------------------------

 SCF Done:  E(UB3LYP) =  -574.591516376     A.U. after    1 cycles

 Alpha  occ. eigenvalues --  -19.13722 -19.13561 -10.28595 -10.28586 -10.21447
 Alpha  occ. eigenvalues --  -10.21277 -10.21162 -10.21113 -10.21030 -10.19837
 Alpha  occ. eigenvalues --  -10.19674 -10.19537 -10.17087  -1.06796  -1.06597
 Alpha  occ. eigenvalues --   -0.89260  -0.84334  -0.79805  -0.77774  -0.71704
 Alpha  occ. eigenvalues --   -0.69169  -0.64580  -0.64152  -0.57472  -0.54061
 Alpha  occ. eigenvalues --   -0.53573  -0.50879  -0.48932  -0.46520  -0.46039
 Alpha  occ. eigenvalues --   -0.45740  -0.43672  -0.43065  -0.42775  -0.42771
 Alpha  occ. eigenvalues --   -0.41189  -0.39270  -0.38001  -0.37291  -0.36904
 Alpha  occ. eigenvalues --   -0.31055  -0.28817  -0.28255  -0.27689  -0.27087
 Alpha virt. eigenvalues --   -0.12900  -0.05571  -0.03720  -0.00569   0.00603
 Alpha virt. eigenvalues --    0.00823   0.01819   0.02180   0.02784   0.03558
 Alpha virt. eigenvalues --    0.03905   0.04886   0.05263   0.06069   0.06098

  Beta  occ. eigenvalues --  -19.13722 -19.13561 -10.28595 -10.28586 -10.21447
  Beta  occ. eigenvalues --  -10.21277 -10.21162 -10.21113 -10.21030 -10.19837
  Beta  occ. eigenvalues --  -10.19674 -10.19537 -10.17087  -1.06796  -1.06597
  Beta  occ. eigenvalues --   -0.89260  -0.84334  -0.79805  -0.77774  -0.71704
  Beta  occ. eigenvalues --   -0.69169  -0.64580  -0.64152  -0.57472  -0.54061
  Beta  occ. eigenvalues --   -0.53573  -0.50879  -0.48932  -0.46520  -0.46039
  Beta  occ. eigenvalues --   -0.45740  -0.43672  -0.43065  -0.42775  -0.42771
  Beta  occ. eigenvalues --   -0.41189  -0.39270  -0.38001  -0.37291  -0.36904
  Beta  occ. eigenvalues --   -0.31055  -0.28817  -0.28255  -0.27689  -0.27087
  Beta virt. eigenvalues --   -0.12900  -0.05571  -0.03720  -0.00569   0.00603
  Beta virt. eigenvalues --    0.00823   0.01819   0.02180   0.02784   0.03558
  Beta virt. eigenvalues --    0.03905   0.04886   0.05263   0.06069   0.06098

 Mulliken charges and spin densities:
               1          2
     1  C    0.540399   0.000000
     2  C   -0.516494  -0.000000
     3  C   -0.555419   0.000000
     4  C    0.220173   0.000000
     5  C    0.174886  -0.000000
     6  C    0.789896  -0.000000
     7  C   -0.410926  -0.000000
     8  C    0.057487  -0.000000
     9  C   -0.180911   0.000000
    10  C   -0.646336  -0.000000
    11  O   -0.293121  -0.000000
    12  O   -0.267917   0.000000
    13  H    0.183508   0.000000
    14  C   -0.444573   0.000000
    15  H    0.219644  -0.000000
    16  H    0.152522   0.000000
    17  H    0.232566   0.000000
    18  H    0.235450   0.000000
    19  H    0.172411   0.000000
    20  H    0.172267   0.000000
    21  H    0.164489   0.000000
 Sum of Mulliken charges =  -0.00000  -0.00000

 Dipole moment (field-independent basis, Debye):
    X=              1.8548    Y=             -0.0577    Z=             -1.5476  Tot=              2.4163
 Quadrupole moment (field-independent basis, Debye-Ang):
   XX=            -47.8662   YY=            -82.7559   ZZ=            -82.2262
   XY=             -9.9005   XZ=            -13.0412   YZ=             15.1369

  Exact polarizability: 186.692 -41.390 185.300 -37.645 -62.090 189.876
 Approx polarizability: 210.986 -50.410 234.813 -34.861 -88.977 232.333

                      1                      2                      3
                      A                      A                      A
 Frequencies --     55.6660                72.0831               181.3347
 Red. masses --      5.5356                 4.9798                 4.2625
 Frc consts  --      0.0101                 0.0152                 0.0826
 IR Inten    --     16.4327                 2.6644                 0.6439

                      4                      5                      6
                      A                      A                      A
 Frequencies --    210.7742               230.9253               254.9699
 Red. masses --      1.4950                 1.9168                 3.9758
 Frc consts  --      0.0391                 0.0602                 0.1523
 IR Inten    --      2.9146                 0.3696                 0.1728

                      7                      8                      9
                      A                      A                      A
 Frequencies --    267.9245               364.7584               383.9937
 Red. masses --      5.3580                 4.2931                 8.8117
 Frc consts  --      0.2266                 0.3365                 0.7655
 IR Inten    --      0.5603                 5.0310                20.1944

                     10                     11                     12
                      A                      A                      A
 Frequencies --    445.7869               449.0858               472.6769
 Red. masses --      5.5071                 8.8712                 3.7050
 Frc consts  --      0.6448                 1.0541                 0.4877
 IR Inten    --      7.1232                12.9460                 0.4947

                     13                     14                     15
                      A                      A                      A
 Frequencies --    494.5671               526.6974               607.0453
 Red. masses --      3.5076                 6.4233                 4.9956
 Frc consts  --      0.5055                 1.0499                 1.0846
 IR Inten    --      2.2733                13.3061                17.7376

                     16                     17                     18
                      A                      A                      A
 Frequencies --    620.6347               626.3430               698.0326
 Red. masses --      5.0094                 2.1719                 4.1570
 Frc consts  --      1.1369                 0.5020                 1.1934
 IR Inten    --      4.8495                 0.0320                 5.5670

                     19                     20                     21
                      A                      A                      A
 Frequencies --    762.4496               783.7289               787.6282
 Red. masses --      6.8829                 5.3762                 1.7265
 Frc consts  --      2.3575                 1.9456                 0.6310
 IR Inten    --      5.4277                 0.1545                70.8652

                     22                     23                     24
                      A                      A                      A
 Frequencies --    815.7056               874.3053               901.1890
 Red. masses --      2.7533                 2.1025                 4.6563
 Frc consts  --      1.0794                 0.9469                 2.2280
 IR Inten    --     32.9305                37.6555                 2.6213

                     25                     26                     27
                      A                      A                      A
 Frequencies --    948.7775              1017.9707              1018.7345
 Red. masses --      1.3552                 1.2917                 1.3142
 Frc consts  --      0.7187                 0.7887                 0.8036
 IR Inten    --      0.1765                 0.0507                 0.1034

                     28                     29                     30
                      A                      A                      A
 Frequencies --   1025.2631              1051.1226              1056.5955
 Red. masses --      1.6027                 4.0586                 1.5682
 Frc consts  --      0.9926                 2.6420                 1.0315
 IR Inten    --     12.1867                52.4535                 6.7960

                     31                     32                     33
                      A                      A                      A
 Frequencies --   1114.4576              1120.5548              1183.1474
 Red. masses --      2.4191                 1.6188                 1.5993
 Frc consts  --      1.7702                 1.1976                 1.3190
 IR Inten    --     41.8225                76.7726                45.0263

                     34                     35                     36
                      A                      A                      A
 Frequencies --   1193.4818              1261.4676              1282.1673
 Red. masses --      1.2590                 2.5305                 2.9649
 Frc consts  --      1.0566                 2.3726                 2.8717
 IR Inten    --      1.0455                 0.0391               185.3575

                     37                     38                     39
                      A                      A                      A
 Frequencies --   1304.7810              1351.1808              1394.7368
 Red. masses --      2.9975                 6.2133                 1.8100
 Frc consts  --      3.0066                 6.6834                 2.0745
 IR Inten    --    261.4721                86.7606                10.8966

                     40                     41                     42
                      A                      A                      A
 Frequencies --   1411.2247              1445.9604              1467.4584
 Red. masses --      1.2310                 2.2763                 1.0445
 Frc consts  --      1.4445                 2.8041                 1.3253
 IR Inten    --     10.7235                32.9840                11.5521

                     43                     44                     45
                      A                      A                      A
 Frequencies --   1484.8988              1492.3194              1597.8019
 Red. masses --      1.5983                 1.8112                 6.0704
 Frc consts  --      2.0764                 2.3766                 9.1309
 IR Inten    --      5.1361                 2.3471               110.5445

                     46                     47                     48
                      A                      A                      A
 Frequencies --   1617.7103              1662.9153              1689.4325
 Red. masses --      5.8140                 9.8553                10.8048
 Frc consts  --      8.9646                16.0569                18.1697
 IR Inten    --    146.4552               111.7142               929.6096

                     49                     50                     51
                      A                      A                      A
 Frequencies --   1702.0088              3041.7959              3097.7906
 Red. masses --      8.6054                 1.0352                 1.0994
 Frc consts  --     14.6873                 5.6435                 6.2158
 IR Inten    --     46.6595                21.0548                13.7292

                     52                     53                     54
                      A                      A                      A
 Frequencies --   3114.1879              3173.4553              3179.0344
 Red. masses --      1.1038                 1.0882                 1.0874
 Frc consts  --      6.3073                 6.4568                 6.4748
 IR Inten    --     39.2597                 9.7368                 3.6074

                     55                     56                     57
                      A                      A                      A
 Frequencies --   3188.9431              3195.7305              3206.8189
 Red. masses --      1.0928                 1.0993                 1.0939
 Frc consts  --      6.5474                 6.6148                 6.6281
 IR Inten    --     17.9379                 7.6240                 7.9803

 - Thermochemistry -
 -------------------
 Temperature   298.150 Kelvin.  Pressure   1.00000 Atm.
 Atom     1 has atomic number  6 and mass  12.00000

 Molecular mass:   172.05243 amu.
 Principal axes and moments of inertia in atomic units:
                           1         2         3
     Eigenvalues --  1574.854672019.475613583.34121
           X           -0.54403  -0.66653   0.50968
           Y           -0.30066   0.72196   0.62320
           Z            0.78335  -0.18580   0.59316
 This molecule is an asymmetric top.
 Rotational symmetry number  1.
 Warning -- assumption of classical behavior for rotation
           may cause significant error
 Rotational temperatures (Kelvin)      0.05500     0.04289     0.02417
 Rotational constants (GHZ):           1.14597     0.89367     0.50365
 Zero-point vibrational energy     418586.7 (Joules/Mol)
                                  100.04462 (Kcal/Mol)
 Warning -- explicit consideration of  16 degrees of freedom as
           vibrations may cause significant error
 Vibrational temperatures:     80.09   103.71   260.90   303.26   332.25
          (Kelvin)            366.84   385.48   524.81   552.48   641.39
                              646.13   680.08   711.57   757.80   873.40
                              892.95   901.17  1004.31  1096.99  1127.61
                             1133.22  1173.62  1257.93  1296.61  1365.08
                             1464.63  1465.73  1475.12  1512.33  1520.21
                             1603.46  1612.23  1702.29  1717.15  1814.97
                             1844.75  1877.29  1944.05  2006.72  2030.44
                             2080.41  2111.35  2136.44  2147.11  2298.88
                             2327.52  2392.56  2430.72  2448.81  4376.47
                             4457.03  4480.62  4565.89  4573.92  4588.18
                             4597.94  4613.90

 Zero-point correction=                           0.159431 (Hartree/Particle)
 Thermal correction to Energy=                    0.169737
 Thermal correction to Enthalpy=                  0.170682
 Thermal correction to Gibbs Free Energy=         0.123265
 Sum of electronic and zero-point Energies=           -574.432085
 Sum of electronic and thermal Energies=              -574.421779
 Sum of electronic and thermal Enthalpies=            -574.420835
 Sum of electronic and thermal Free Energies=         -574.468252

                     E (Thermal)             CV                S
                      KCal/Mol        Cal/Mol-Kelvin    Cal/Mol-Kelvin
 Total                  106.512             40.415             99.797
 Electronic               0.000              0.000              0.000
 Translational            0.889              2.981             41.335
 Rotational               0.889              2.981             30.811
 Vibrational            104.734             34.453             27.650
 Vibration     1          0.596              1.975              4.605
 Vibration     2          0.598              1.967              4.096
 Vibration     3          0.630              1.865              2.315
 Vibration     4          0.643              1.824              2.037
 Vibration     5          0.653              1.794              1.872
 Vibration     6          0.665              1.754              1.696
 Vibration     7          0.673              1.732              1.610
 Vibration     8          0.738              1.545              1.102
 Vibration     9          0.753              1.504              1.023
 Vibration    10          0.805              1.370              0.809
 Vibration    11          0.808              1.363              0.799
 Vibration    12          0.830              1.311              0.730
 Vibration    13          0.850              1.262              0.672
 Vibration    14          0.882              1.191              0.595
 Vibration    15          0.966              1.017              0.438
 Vibration    16          0.981              0.988              0.415

 Optimization completed.
    -- Stationary point found.
 Normal termination of Gaussian 16 at Sun Feb 11 00:05:06 2024.
