 Gaussian 16, Revision A.03,
 Gaussian 16:  ES64L-G16RevA.03 25-Dec-2016

 --------------------------------------
 #P UB3LYP/6-311++G(d,p) nosym opt freq
 --------------------------------------

 -------
 Reduced
 -------
 Symbolic Z-matrix:
 Charge = -2 Multiplicity = 1

 SCF Done:  E(UB3LYP) =  -916.830715683     A.U. after   48 cycles
 SCF Done:  E(UB3LYP) =  -916.863880861     A.U. after   29 cycles
 SCF Done:  E(UB3LYP) =  -916.873578337     A.U. after   47 cycles
 SCF Done:  E(UB3LYP) =  -916.876332618     A.U. after   45 cycles
 SCF Done:  E(UB3LYP) =  -916.871752490     A.U. after   23 cycles
 SCF Done:  E(UB3LYP) =  -916.875203462     A.U. after   23 cycles
 SCF Done:  E(UB3LYP) =  -916.877259518     A.U. after   21 cycles
 SCF Done:  E(UB3LYP) =  -916.877811776     A.U. after   20 cycles
 SCF Done:  E(UB3LYP) =  -916.877375935     A.U. after   20 cycles
 SCF Done:  E(UB3LYP) =  -916.878563063     A.U. after   20 cycles
 SCF Done:  E(UB3LYP) =  -916.894575966     A.U. after   11 cycles
 SCF Done:  E(UB3LYP) =  -916.894581992     A.U. after   11 cycles
 SCF Done:  E(UB3LYP) =  -916.894587430     A.U. after   11 cycles
 SCF Done:  E(UB3LYP) =  -916.894589675     A.U. after   11 cycles
 SCF Done:  E(UB3LYP) =  -916.894590282     A.U. after   10 cycles
 SCF Done:  E(UB3LYP) =  -916.894590692     A.U. after   10 cycles
 SCF Done:  E(UB3LYP) =  -916.894591080     A.U. after   10 cycles
 SCF Done:  E(UB3LYP) =  -916.894591270     A.U. after   10 cycles
 SCF Done:  E(UB3LYP) =  -916.894591328     A.U. after    9 cycles
 Optimization completed.
    -- Stationary point found.
 Normal termination of Gaussian 16 at Thu Dec 21 15:56:05 2023.

 ----------------------------------------------------------------------
 #P Geom=AllCheck Guess=TCheck SCRF=Check GenChk UB3LYP/6-311++G(d,p) F
 req
 ----------------------------------------------------------------------

 Structure from the checkpoint file:  "143-an.chk"
 -------
 Reduced
 -------
 Charge = -2 Multiplicity = 1

                          Input orientation:
 ---------------------------------------------------------------------
 Center     Atomic      Atomic             Coordinates (Angstroms)
 Number     Number       Type             X           Y           Z
 ---------------------------------------------------------------------
      1          6           0        3.468681    2.176969    0.185177
      2          6           0        2.234129    1.501806    0.741249
      3          8           0        2.088572    1.201337    1.904343
      4          8           0        2.968069   -0.728144   -0.430629
      5          6           0        1.941721   -1.494238   -0.418878
      6          6           0        2.058212   -2.900022   -0.575148
      7          6           0        0.954370   -3.768279   -0.554068
      8          6           0       -0.329211   -3.289433   -0.380568
      9          6           0       -0.551443   -1.895861   -0.225460
     10          6           0       -1.936493   -1.444290   -0.071164
     11          8           0       -2.912678   -2.254481   -0.055595
     12          6           0       -2.136398   -0.009581    0.052557
     13          6           0       -3.441234    0.509113    0.183869
     14          6           0       -3.693329    1.864021    0.292383
     15          6           0       -2.595918    2.770079    0.270884
     16          6           0       -1.307411    2.307674    0.148660
     17          6           0       -1.016081    0.907579    0.037099
     18          6           0        0.276114    0.405047   -0.096714
     19          8           0        1.312038    1.369816   -0.230679
     20          6           0        0.556824   -0.975249   -0.240519
     21          1           0        4.087445    2.555654    1.000519
     22          1           0        3.195002    2.985543   -0.498714
     23          1           0        4.000323    1.405192   -0.376259
     24          1           0        3.067290   -3.285743   -0.705187
     25          1           0        1.119600   -4.840242   -0.675619
     26          1           0       -1.195557   -3.938969   -0.362425
     27          1           0       -4.247452   -0.218176    0.193928
     28          1           0       -4.710375    2.235565    0.393261
     29          1           0       -2.776262    3.840543    0.356362
     30          1           0       -0.478553    3.006768    0.137333
 ---------------------------------------------------------------------

 SCF Done:  E(UB3LYP) =  -916.894591328     A.U. after    1 cycles

 Alpha  occ. eigenvalues --  -18.92032 -18.87302 -18.80071 -18.78823 -10.07004
 Alpha  occ. eigenvalues --   -9.96198  -9.95895  -9.95824  -9.95521  -9.94633
 Alpha  occ. eigenvalues --   -9.93850  -9.93671  -9.93442  -9.93113  -9.91834
 Alpha  occ. eigenvalues --   -9.91567  -9.91337  -9.90644  -9.89174  -9.88963
 Alpha  occ. eigenvalues --   -0.86300  -0.78377  -0.72308  -0.70741  -0.61708
 Alpha  occ. eigenvalues --   -0.57794  -0.54752  -0.52548  -0.51201  -0.48295
 Alpha  occ. eigenvalues --   -0.46224  -0.43157  -0.38638  -0.37089  -0.36295
 Alpha  occ. eigenvalues --   -0.32548  -0.29177  -0.28196  -0.26604  -0.25733
 Alpha  occ. eigenvalues --   -0.24296  -0.24026  -0.21500  -0.21211  -0.20918
 Alpha  occ. eigenvalues --   -0.19807  -0.19217  -0.18924  -0.16137  -0.15727
 Alpha  occ. eigenvalues --   -0.14854  -0.14282  -0.14186  -0.13461  -0.12940
 Alpha  occ. eigenvalues --   -0.11880  -0.10268  -0.09712  -0.09077  -0.08339
 Alpha  occ. eigenvalues --   -0.06987  -0.05027  -0.04262  -0.04116  -0.01341
 Alpha  occ. eigenvalues --    0.01026   0.02304   0.04210   0.05887   0.10564
 Alpha virt. eigenvalues --    0.15424   0.16027   0.17331   0.17515   0.19180
 Alpha virt. eigenvalues --    0.19450   0.19634   0.20189   0.20595   0.22151
 Alpha virt. eigenvalues --    0.22388   0.22628   0.24305   0.24526   0.24854

  Beta  occ. eigenvalues --  -18.92032 -18.87302 -18.80071 -18.78823 -10.07004
  Beta  occ. eigenvalues --   -9.96198  -9.95895  -9.95824  -9.95521  -9.94633
  Beta  occ. eigenvalues --   -9.93850  -9.93671  -9.93442  -9.93113  -9.91834
  Beta  occ. eigenvalues --   -9.91567  -9.91337  -9.90644  -9.89174  -9.88963
  Beta  occ. eigenvalues --   -0.86300  -0.78377  -0.72308  -0.70741  -0.61708
  Beta  occ. eigenvalues --   -0.57794  -0.54752  -0.52548  -0.51201  -0.48295
  Beta  occ. eigenvalues --   -0.46224  -0.43157  -0.38638  -0.37089  -0.36295
  Beta  occ. eigenvalues --   -0.32548  -0.29177  -0.28196  -0.26604  -0.25733
  Beta  occ. eigenvalues --   -0.24296  -0.24026  -0.21500  -0.21211  -0.20918
  Beta  occ. eigenvalues --   -0.19807  -0.19217  -0.18924  -0.16137  -0.15727
  Beta  occ. eigenvalues --   -0.14854  -0.14282  -0.14186  -0.13461  -0.12940
  Beta  occ. eigenvalues --   -0.11880  -0.10268  -0.09712  -0.09077  -0.08339
  Beta  occ. eigenvalues --   -0.06987  -0.05027  -0.04262  -0.04116  -0.01341
  Beta  occ. eigenvalues --    0.01026   0.02304   0.04210   0.05887   0.10564
  Beta virt. eigenvalues --    0.15424   0.16027   0.17331   0.17515   0.19180
  Beta virt. eigenvalues --    0.19450   0.19634   0.20189   0.20595   0.22151
  Beta virt. eigenvalues --    0.22388   0.22628   0.24305   0.24526   0.24854

 Mulliken charges and spin densities:
               1          2
     1  C   -0.471445   0.000000
     2  C   -0.035481  -0.000000
     3  O   -0.244847   0.000000
     4  O   -0.484974  -0.000000
     5  C   -0.420133   0.000000
     6  C   -0.147920  -0.000000
     7  C   -0.291072  -0.000000
     8  C   -0.270655   0.000000
     9  C    0.491353  -0.000000
    10  C   -0.606525  -0.000000
    11  O   -0.459605   0.000000
    12  C    0.523133   0.000000
    13  C    0.004944   0.000000
    14  C   -0.455656   0.000000
    15  C   -0.486414   0.000000
    16  C   -0.044115   0.000000
    17  C    0.416950  -0.000000
    18  C   -0.380299  -0.000000
    19  O   -0.036721   0.000000
    20  C    0.347804  -0.000000
    21  H    0.100487  -0.000000
    22  H    0.106586   0.000000
    23  H    0.206053  -0.000000
    24  H    0.067247  -0.000000
    25  H    0.071232   0.000000
    26  H    0.113698  -0.000000
    27  H    0.133230  -0.000000
    28  H    0.074566   0.000000
    29  H    0.086509   0.000000
    30  H    0.092069   0.000000
 Sum of Mulliken charges =  -2.00000   0.00000

 Dipole moment (field-independent basis, Debye):
    X=              1.0547    Y=              7.7458    Z=             -0.8560  Tot=              7.8640
 Quadrupole moment (field-independent basis, Debye-Ang):
   XX=           -191.1784   YY=           -167.9974   ZZ=           -138.1058
   XY=              0.4612   XZ=             -1.1520   YZ=             -7.4758

  Exact polarizability: 338.070 -43.202 334.692 -13.690  22.852 144.890
 Approx polarizability: 558.459 -52.828 556.473 -28.731  31.364 230.880

                      1                      2                      3
                      A                      A                      A
 Frequencies --     46.0401                58.6430                75.2295
 Red. masses --      8.1578                 6.5132                 5.8231
 Frc consts  --      0.0102                 0.0132                 0.0194
 IR Inten    --      0.4611                 1.5695                 4.1284

                      4                      5                      6
                      A                      A                      A
 Frequencies --    102.9608               122.3102               130.6611
 Red. masses --      5.8251                 3.0948                 1.1214
 Frc consts  --      0.0364                 0.0273                 0.0113
 IR Inten    --      4.1593                 5.9178                 0.1723

                      7                      8                      9
                      A                      A                      A
 Frequencies --    141.7158               178.1664               205.9206
 Red. masses --      5.1854                 6.2292                 5.6452
 Frc consts  --      0.0614                 0.1165                 0.1410
 IR Inten    --      1.2881                 1.3157                 1.2627

                     10                     11                     12
                      A                      A                      A
 Frequencies --    219.6205               277.6322               288.5367
 Red. masses --      5.5267                 5.4995                 5.3820
 Frc consts  --      0.1571                 0.2498                 0.2640
 IR Inten    --      2.5374                 0.4148                 8.1393

                     13                     14                     15
                      A                      A                      A
 Frequencies --    330.0543               351.0408               378.3553
 Red. masses --      6.2734                 6.7966                 8.3951
 Frc consts  --      0.4026                 0.4935                 0.7081
 IR Inten    --      3.9520                 0.3706                 0.9917

                     16                     17                     18
                      A                      A                      A
 Frequencies --    389.1782               389.9788               441.7182
 Red. masses --      7.3148                 7.8490                 3.2954
 Frc consts  --      0.6528                 0.7033                 0.3788
 IR Inten    --      0.5019                 1.4975                 1.6459

                     19                     20                     21
                      A                      A                      A
 Frequencies --    486.2719               506.2207               512.7571
 Red. masses --      7.6690                 4.2485                 5.5287
 Frc consts  --      1.0684                 0.6414                 0.8564
 IR Inten    --      8.5569                 4.3639                18.0994

                     22                     23                     24
                      A                      A                      A
 Frequencies --    548.3864               567.0615               570.9634
 Red. masses --      3.2178                 6.7706                 4.0440
 Frc consts  --      0.5701                 1.2827                 0.7767
 IR Inten    --      8.9659                 9.4248                14.5513

                     25                     26                     27
                      A                      A                      A
 Frequencies --    588.8984               593.8354               649.6564
 Red. masses --      5.4600                 4.8454                 6.1081
 Frc consts  --      1.1156                 1.0067                 1.5189
 IR Inten    --      1.7723                 4.4644                 0.9992

                     28                     29                     30
                      A                      A                      A
 Frequencies --    677.6222               689.7448               697.5032
 Red. masses --      6.9395                 5.6626                 1.5307
 Frc consts  --      1.8774                 1.5872                 0.4388
 IR Inten    --     11.5704                 6.4480                75.4958

                     31                     32                     33
                      A                      A                      A
 Frequencies --    707.1934               726.3749               756.0489
 Red. masses --      1.8991                 1.9756                 2.0618
 Frc consts  --      0.5596                 0.6141                 0.6944
 IR Inten    --      6.2709                46.5945                 0.0281

                     34                     35                     36
                      A                      A                      A
 Frequencies --    787.2428               795.0735               812.2807
 Red. masses --      3.3608                 2.3169                 2.2106
 Frc consts  --      1.2272                 0.8629                 0.8593
 IR Inten    --      4.6561                11.7332                 5.8816

                     37                     38                     39
                      A                      A                      A
 Frequencies --    825.3403               855.9264               896.8625
 Red. masses --      5.9934                 7.1554                 1.2174
 Frc consts  --      2.4054                 3.0885                 0.5770
 IR Inten    --      0.0126                36.6744                 1.5279

                     40                     41                     42
                      A                      A                      A
 Frequencies --    908.2646               925.6479               929.2966
 Red. masses --      6.6821                 6.3418                 1.2587
 Frc consts  --      3.2478                 3.2015                 0.6405
 IR Inten    --     27.4257                16.5436                 0.7518

                     43                     44                     45
                      A                      A                      A
 Frequencies --    958.8719               997.2288              1016.9807
 Red. masses --      1.3199                 2.4972                 2.4382
 Frc consts  --      0.7150                 1.4632                 1.4858
 IR Inten    --      1.7220                14.6827                44.5968

                     46                     47                     48
                      A                      A                      A
 Frequencies --   1037.9972              1041.4998              1061.2590
 Red. masses --      2.7123                 1.8271                 2.9354
 Frc consts  --      1.7218                 1.1677                 1.9479
 IR Inten    --     74.7968                 7.3740               134.8228

                     49                     50                     51
                      A                      A                      A
 Frequencies --   1074.4908              1113.9631              1144.4885
 Red. masses --      1.9828                 1.8407                 1.2412
 Frc consts  --      1.3488                 1.3458                 0.9579
 IR Inten    --     39.6577                23.7228                31.3043

                     52                     53                     54
                      A                      A                      A
 Frequencies --   1157.6964              1189.3367              1209.8197
 Red. masses --      1.2541                 1.9722                 2.7288
 Frc consts  --      0.9903                 1.6437                 2.3532
 IR Inten    --     10.4754                 0.5968                66.4571

                     55                     56                     57
                      A                      A                      A
 Frequencies --   1242.5081              1264.4970              1288.5382
 Red. masses --      3.7559                 2.2823                 3.9871
 Frc consts  --      3.4164                 2.1501                 3.9003
 IR Inten    --    315.3423                41.5817               115.3968

                     58                     59                     60
                      A                      A                      A
 Frequencies --   1320.7359              1354.1303              1359.7974
 Red. masses --      5.9812                 1.6181                 1.9947
 Frc consts  --      6.1471                 1.7482                 2.1731
 IR Inten    --     39.5702               268.4216                 5.5416

                     61                     62                     63
                      A                      A                      A
 Frequencies --   1365.0343              1399.6091              1425.4519
 Red. masses --      5.0287                 3.6974                 2.9912
 Frc consts  --      5.5207                 4.2673                 3.5810
 IR Inten    --    153.1164               122.8384                80.7370

                     64                     65                     66
                      A                      A                      A
 Frequencies --   1458.0862              1465.4626              1475.9197
 Red. masses --      2.1998                 1.4765                 2.7998
 Frc consts  --      2.7554                 1.8683                 3.5933
 IR Inten    --     36.6007                11.2393               245.2962

                     67                     68                     69
                      A                      A                      A
 Frequencies --   1483.6290              1509.7133              1531.0450
 Red. masses --      1.0670                 6.8423                 5.3676
 Frc consts  --      1.3838                 9.1885                 7.4132
 IR Inten    --     12.2765               612.8483               187.6080

                     70                     71                     72
                      A                      A                      A
 Frequencies --   1535.3706              1568.1651              1575.2978
 Red. masses --      6.5198                 6.1263                 5.7906
 Frc consts  --      9.0555                 8.8762                 8.4664
 IR Inten    --    291.4977                83.6095                22.2937

                     73                     74                     75
                      A                      A                      A
 Frequencies --   1617.6785              1765.6084              3024.6608
 Red. masses --      6.4654                11.2851                 1.0335
 Frc consts  --      9.9686                20.7274                 5.5709
 IR Inten    --     69.0339               302.3565                74.8443

                     76                     77                     78
                      A                      A                      A
 Frequencies --   3067.9990              3096.9916              3097.4134
 Red. masses --      1.0847                 1.1002                 1.0834
 Frc consts  --      6.0157                 6.2173                 6.1240
 IR Inten    --    105.9114                30.2783                39.6650

                     79                     80                     81
                      A                      A                      A
 Frequencies --   3118.1487              3120.8909              3123.6100
 Red. masses --      1.1033                 1.0899                 1.0895
 Frc consts  --      6.3201                 6.2547                 6.2634
 IR Inten    --     13.4458               137.6077                79.7560

                     82                     83                     84
                      A                      A                      A
 Frequencies --   3158.6336              3167.6500              3182.0573
 Red. masses --      1.0911                 1.0909                 1.0901
 Frc consts  --      6.4135                 6.4490                 6.5035
 IR Inten    --     43.5603                44.1228                24.7233

 - Thermochemistry -
 -------------------
 Temperature   298.150 Kelvin.  Pressure   1.00000 Atm.
 Atom     1 has atomic number  6 and mass  12.00000

 Molecular mass:   266.05791 amu.
 Principal axes and moments of inertia in atomic units:
                           1         2         3
     Eigenvalues --  3948.963774978.701938510.03205
           X            0.96869   0.24799  -0.01171
           Y           -0.24638   0.95445  -0.16830
           Z           -0.03056   0.16592   0.98567
 This molecule is an asymmetric top.
 Rotational symmetry number  1.
 Warning -- assumption of classical behavior for rotation
           may cause significant error
 Rotational temperatures (Kelvin)      0.02193     0.01740     0.01018
 Rotational constants (GHZ):           0.45702     0.36249     0.21207
 Zero-point vibrational energy     564100.3 (Joules/Mol)
                                  134.82320 (Kcal/Mol)
 Warning -- explicit consideration of  26 degrees of freedom as
           vibrations may cause significant error
 Vibrational temperatures:     66.24    84.37   108.24   148.14   175.98
          (Kelvin)            187.99   203.90   256.34   296.27   315.98
                              399.45   415.14   474.87   505.07   544.37
                              559.94   561.09   635.53   699.64   728.34
                              737.74   789.01   815.87   821.49   847.29
                              854.40   934.71   974.95   992.39  1003.55
                             1017.49  1045.09  1087.79  1132.67  1143.93
                             1168.69  1187.48  1231.49  1290.39  1306.79
                             1331.80  1337.05  1379.60  1434.79  1463.21
                             1493.45  1498.49  1526.91  1545.95  1602.74
                             1646.66  1665.67  1711.19  1740.66  1787.69
                             1819.33  1853.92  1900.24  1948.29  1956.45
                             1963.98  2013.73  2050.91  2097.86  2108.47
                             2123.52  2134.61  2172.14  2202.83  2209.06
                             2256.24  2266.50  2327.48  2540.32  4351.81
                             4414.17  4455.88  4456.49  4486.32  4490.27
                             4494.18  4544.57  4557.54  4578.27

 Zero-point correction=                           0.214854 (Hartree/Particle)
 Thermal correction to Energy=                    0.230816
 Thermal correction to Enthalpy=                  0.231760
 Thermal correction to Gibbs Free Energy=         0.171523
 Sum of electronic and zero-point Energies=           -916.679737
 Sum of electronic and thermal Energies=              -916.663775
 Sum of electronic and thermal Enthalpies=            -916.662831
 Sum of electronic and thermal Free Energies=         -916.723069

                     E (Thermal)             CV                S
                      KCal/Mol        Cal/Mol-Kelvin    Cal/Mol-Kelvin
 Total                  144.839             63.168            126.781
 Electronic               0.000              0.000              0.000
 Translational            0.889              2.981             42.635
 Rotational               0.889              2.981             33.481
 Vibrational            143.062             57.206             50.666
 Vibration     1          0.595              1.979              4.981
 Vibration     2          0.596              1.974              4.502
 Vibration     3          0.599              1.966              4.012
 Vibration     4          0.605              1.947              3.397
 Vibration     5          0.610              1.931              3.064
 Vibration     6          0.612              1.923              2.936
 Vibration     7          0.615              1.912              2.781
 Vibration     8          0.629              1.869              2.348
 Vibration     9          0.640              1.831              2.080
 Vibration    10          0.647              1.811              1.962
 Vibration    11          0.679              1.715              1.548
 Vibration    12          0.685              1.695              1.483
 Vibration    13          0.713              1.615              1.260
 Vibration    14          0.728              1.573              1.162
 Vibration    15          0.749              1.516              1.046
 Vibration    16          0.757              1.493              1.003
 Vibration    17          0.758              1.492              1.000
 Vibration    18          0.801              1.379              0.821
 Vibration    19          0.842              1.280              0.693
 Vibration    20          0.861              1.236              0.643
 Vibration    21          0.868              1.222              0.627
 Vibration    22          0.904              1.143              0.548
 Vibration    23          0.923              1.103              0.510
 Vibration    24          0.927              1.094              0.502
 Vibration    25          0.946              1.055              0.469
 Vibration    26          0.951              1.045              0.460

 Optimization completed.
    -- Stationary point found.
 Normal termination of Gaussian 16 at Thu Dec 21 17:03:53 2023.
