 Q-Chem 5.4, Q-Chem, Inc., Pleasanton, CA (2021)
 Q-Chem 5.4.0 for Intel X86 EM64T Linux

User input:
--------------------------------------------------------------
$molecule
0 1
Cl                 5.1912270000     -1.4819030000     -0.0055320000
C                  3.6604360000     -0.6412590000     -0.1514640000
C                  3.6574480000      0.7164180000     -0.4795430000
C                  2.4451320000      1.3816700000     -0.5949870000
C                  1.2389270000      0.7052110000     -0.3863190000
C                 -0.0451430000      1.4510250000     -0.5185150000
O                 -0.0606470000      2.6371060000     -0.8046400000
C                 -1.3078600000      0.6904430000     -0.2874110000
C                 -2.5313630000      1.3572180000     -0.4028380000
C                 -3.7226070000      0.6727020000     -0.1929590000
C                 -3.7029140000     -0.6859510000      0.1346570000
C                 -2.4918480000     -1.3574390000      0.2517490000
C                 -1.2881070000     -0.6771160000      0.0423700000
C                 -0.0042730000     -1.4236020000      0.1748240000
O                  0.0188150000     -2.6086060000      0.4604730000
C                  1.2606390000     -0.6604290000     -0.0570350000
C                  2.4779570000     -1.3353400000      0.0605420000
H                  4.5934410000      1.2359670000     -0.6401710000
H                  2.4124990000      2.4340840000     -0.8482220000
H                 -2.5236770000      2.4097510000     -0.6574960000
H                 -4.6685140000      1.1943980000     -0.2837230000
H                 -4.6333820000     -1.2176180000      0.2978870000
H                 -2.4533930000     -2.4097060000      0.5046940000
H                  2.4772080000     -2.3870250000      0.3147950000
$end
$rem
MAX_SCF_CYCLES=200
BASIS  =  6-311++G(d,p)
GUI  =  2
JOB_TYPE  =  SP
METHOD  =  B3LYP
SOLVENT_METHOD = PCM
$end
$pcm
theory = CPCM
$end
$solvent
dielectric 37.219
opticaldielectric 1.43
$end

--------------------------------------------------------------

             Standard Nuclear Orientation (Angstroms)
    I     Atom           X                Y                Z
 ----------------------------------------------------------------
    1      Cl      5.1912270000    -1.4819030000    -0.0055320000
    2      C       3.6604360000    -0.6412590000    -0.1514640000
    3      C       3.6574480000     0.7164180000    -0.4795430000
    4      C       2.4451320000     1.3816700000    -0.5949870000
    5      C       1.2389270000     0.7052110000    -0.3863190000
    6      C      -0.0451430000     1.4510250000    -0.5185150000
    7      O      -0.0606470000     2.6371060000    -0.8046400000
    8      C      -1.3078600000     0.6904430000    -0.2874110000
    9      C      -2.5313630000     1.3572180000    -0.4028380000
   10      C      -3.7226070000     0.6727020000    -0.1929590000
   11      C      -3.7029140000    -0.6859510000     0.1346570000
   12      C      -2.4918480000    -1.3574390000     0.2517490000
   13      C      -1.2881070000    -0.6771160000     0.0423700000
   14      C      -0.0042730000    -1.4236020000     0.1748240000
   15      O       0.0188150000    -2.6086060000     0.4604730000
   16      C       1.2606390000    -0.6604290000    -0.0570350000
   17      C       2.4779570000    -1.3353400000     0.0605420000
   18      H       4.5934410000     1.2359670000    -0.6401710000
   19      H       2.4124990000     2.4340840000    -0.8482220000
   20      H      -2.5236770000     2.4097510000    -0.6574960000
   21      H      -4.6685140000     1.1943980000    -0.2837230000
   22      H      -4.6333820000    -1.2176180000     0.2978870000
   23      H      -2.4533930000    -2.4097060000     0.5046940000
   24      H       2.4772080000    -2.3870250000     0.3147950000
 ----------------------------------------------------------------

    8   -1148.5878880487      9.97e-06  Convergence criterion met
 Total energy in the final basis set =    -1148.5878880487

                    Orbital Energies (a.u.)
 --------------------------------------------------------------

 Alpha MOs
 -- Occupied --
******** -19.1365 -19.1347 -10.2886 -10.2869 -10.2626 -10.2180 -10.2138
-10.2108 -10.2102 -10.2088 -10.2086 -10.2059 -10.1986 -10.1983 -10.1979
-10.1977  -9.4851  -7.2496  -7.2401  -7.2394  -1.0721  -1.0693  -0.9178
 -0.8911  -0.8673  -0.8089  -0.7863  -0.7795  -0.7640  -0.6935  -0.6708
 -0.6440  -0.6237  -0.5912  -0.5658  -0.5569  -0.5129  -0.4973  -0.4919
 -0.4868  -0.4641  -0.4609  -0.4606  -0.4510  -0.4493  -0.4470  -0.4242
 -0.4138  -0.4100  -0.3874  -0.3818  -0.3815  -0.3689  -0.3502  -0.3335
 -0.2932  -0.2920  -0.2846  -0.2802  -0.2797  -0.2716

          Ground-State Mulliken Net Atomic Charges

     Atom                 Charge (a.u.)
  ----------------------------------------
      1 Cl                    0.505719
      2 C                     0.562640
      3 C                    -0.469328
      4 C                     0.103177
      5 C                     0.079435
      6 C                    -0.663674
      7 O                    -0.284031
      8 C                     0.101735
      9 C                     0.215245
     10 C                    -0.427270
     11 C                    -0.426577
     12 C                     0.195912
     13 C                     0.217936
     14 C                    -0.715941
     15 O                    -0.278837
     16 C                    -0.043962
     17 C                    -0.204357
     18 H                     0.249344
     19 H                     0.208406
     20 H                     0.199644
     21 H                     0.225699
     22 H                     0.225826
     23 H                     0.198479
     24 H                     0.224782
  ----------------------------------------
  Sum of atomic charges =     0.000000

                    Cartesian Multipole Moments
 -----------------------------------------------------------------
    Charge (ESU x 10^10)
                -0.0000
    Dipole Moment (Debye)
         X      -2.1972      Y       0.9740      Z      -0.1535
       Tot       2.4083
    Quadrupole Moments (Debye-Ang)
        XX     -83.1264     XY       5.9613     YY    -116.4002
        XZ      -1.9215     YZ       2.1040     ZZ    -106.5262

 Total job time:  51.02s(wall), 280.28s(cpu)
        *  Thank you very much for using Q-Chem.  Have a nice day.  *
