 Gaussian 16, Revision A.03,
 Gaussian 16:  ES64L-G16RevA.03 25-Dec-2016

 --------------------------------------
 #P UB3LYP/6-311++G(d,p) nosym opt freq
 --------------------------------------

 --------
 Oxidized
 --------
 Symbolic Z-matrix:
 Charge =  0 Multiplicity = 1

 SCF Done:  E(UB3LYP) =  -1148.57560112     A.U. after   16 cycles
 SCF Done:  E(UB3LYP) =  -1148.57560038     A.U. after   10 cycles
 SCF Done:  E(UB3LYP) =  -1148.57560130     A.U. after    9 cycles
 Optimization completed.
    -- Stationary point found.
 Normal termination of Gaussian 16 at Wed Dec 27 19:58:25 2023.

 ----------------------------------------------------------------------
 #P Geom=AllCheck Guess=TCheck SCRF=Check GenChk UB3LYP/6-311++G(d,p) F
 req
 ----------------------------------------------------------------------

 Structure from the checkpoint file:  "118.chk"
 --------
 Oxidized
 --------
 Charge =  0 Multiplicity = 1

                          Input orientation:
 ---------------------------------------------------------------------
 Center     Atomic      Atomic             Coordinates (Angstroms)
 Number     Number       Type             X           Y           Z
 ---------------------------------------------------------------------
      1         17           0        5.191227   -1.481903   -0.005532
      2          6           0        3.660436   -0.641259   -0.151464
      3          6           0        3.657448    0.716418   -0.479543
      4          6           0        2.445132    1.381670   -0.594987
      5          6           0        1.238927    0.705211   -0.386319
      6          6           0       -0.045143    1.451025   -0.518515
      7          8           0       -0.060647    2.637106   -0.804640
      8          6           0       -1.307860    0.690443   -0.287411
      9          6           0       -2.531363    1.357218   -0.402838
     10          6           0       -3.722607    0.672702   -0.192959
     11          6           0       -3.702914   -0.685951    0.134657
     12          6           0       -2.491848   -1.357439    0.251749
     13          6           0       -1.288107   -0.677116    0.042370
     14          6           0       -0.004273   -1.423602    0.174824
     15          8           0        0.018815   -2.608606    0.460473
     16          6           0        1.260639   -0.660429   -0.057035
     17          6           0        2.477957   -1.335340    0.060542
     18          1           0        4.593441    1.235967   -0.640171
     19          1           0        2.412499    2.434084   -0.848222
     20          1           0       -2.523677    2.409751   -0.657496
     21          1           0       -4.668514    1.194398   -0.283723
     22          1           0       -4.633382   -1.217618    0.297887
     23          1           0       -2.453393   -2.409706    0.504694
     24          1           0        2.477208   -2.387025    0.314795
 ---------------------------------------------------------------------

 SCF Done:  E(UB3LYP) =  -1148.57560130     A.U. after    1 cycles

 Alpha  occ. eigenvalues -- -101.57175 -19.13489 -19.13287 -10.28733 -10.28561
 Alpha  occ. eigenvalues --  -10.26706 -10.22170 -10.21755 -10.21599 -10.21572
 Alpha  occ. eigenvalues --  -10.21519 -10.21279 -10.21180 -10.20810 -10.20755
 Alpha  occ. eigenvalues --  -10.20502 -10.20472  -9.48633  -7.25096  -7.24123
 Alpha  occ. eigenvalues --   -7.24069  -1.06962  -1.06668  -0.92159  -0.89665
 Alpha  occ. eigenvalues --   -0.87069  -0.81461  -0.79120  -0.78563  -0.76903
 Alpha  occ. eigenvalues --   -0.69740  -0.67677  -0.64945  -0.63003  -0.59567
 Alpha  occ. eigenvalues --   -0.57151  -0.56155  -0.51441  -0.50413  -0.49874
 Alpha  occ. eigenvalues --   -0.49189  -0.46626  -0.46248  -0.45899  -0.45727
 Alpha  occ. eigenvalues --   -0.45463  -0.44847  -0.42234  -0.41756  -0.41647
 Alpha  occ. eigenvalues --   -0.39324  -0.38893  -0.38588  -0.37551  -0.35121
 Alpha  occ. eigenvalues --   -0.33470  -0.29593  -0.29039  -0.28994  -0.28493
 Alpha  occ. eigenvalues --   -0.27840  -0.27532
 Alpha virt. eigenvalues --   -0.12358  -0.08285  -0.04753  -0.03741  -0.01233
 Alpha virt. eigenvalues --   -0.00556   0.00150   0.00967   0.01439   0.02061
 Alpha virt. eigenvalues --    0.02135   0.02894   0.03629   0.04035   0.04354

  Beta  occ. eigenvalues -- -101.57175 -19.13489 -19.13287 -10.28733 -10.28561
  Beta  occ. eigenvalues --  -10.26706 -10.22170 -10.21755 -10.21599 -10.21572
  Beta  occ. eigenvalues --  -10.21519 -10.21279 -10.21180 -10.20810 -10.20755
  Beta  occ. eigenvalues --  -10.20502 -10.20472  -9.48633  -7.25096  -7.24123
  Beta  occ. eigenvalues --   -7.24069  -1.06962  -1.06668  -0.92159  -0.89665
  Beta  occ. eigenvalues --   -0.87069  -0.81461  -0.79120  -0.78563  -0.76903
  Beta  occ. eigenvalues --   -0.69740  -0.67677  -0.64945  -0.63003  -0.59567
  Beta  occ. eigenvalues --   -0.57151  -0.56155  -0.51441  -0.50413  -0.49874
  Beta  occ. eigenvalues --   -0.49189  -0.46626  -0.46248  -0.45899  -0.45727
  Beta  occ. eigenvalues --   -0.45463  -0.44847  -0.42234  -0.41756  -0.41647
  Beta  occ. eigenvalues --   -0.39324  -0.38893  -0.38588  -0.37551  -0.35121
  Beta  occ. eigenvalues --   -0.33470  -0.29593  -0.29039  -0.28994  -0.28493
  Beta  occ. eigenvalues --   -0.27840  -0.27532
  Beta virt. eigenvalues --   -0.12358  -0.08285  -0.04753  -0.03741  -0.01233
  Beta virt. eigenvalues --   -0.00556   0.00150   0.00967   0.01439   0.02061
  Beta virt. eigenvalues --    0.02135   0.02894   0.03629   0.04035   0.04354

 Mulliken charges and spin densities:
               1          2
     1  Cl   0.537455   0.000000
     2  C    0.590219   0.000000
     3  C   -0.427017   0.000000
     4  C    0.112596   0.000000
     5  C    0.087238   0.000000
     6  C   -0.774555  -0.000000
     7  O   -0.211977   0.000000
     8  C    0.134784   0.000000
     9  C    0.193121   0.000000
    10  C   -0.354358  -0.000000
    11  C   -0.349090   0.000000
    12  C    0.169140  -0.000000
    13  C    0.239887  -0.000000
    14  C   -0.806275  -0.000000
    15  O   -0.207353  -0.000000
    16  C   -0.045629  -0.000000
    17  C   -0.226907  -0.000000
    18  H    0.201725   0.000000
    19  H    0.193159  -0.000000
    20  H    0.187560  -0.000000
    21  H    0.179192   0.000000
    22  H    0.179392  -0.000000
    23  H    0.185497   0.000000
    24  H    0.212195   0.000000
 Sum of Mulliken charges =  -0.00000  -0.00000

 Dipole moment (field-independent basis, Debye):
    X=             -1.7041    Y=              0.7059    Z=             -0.1072  Tot=              1.8476
 Quadrupole moment (field-independent basis, Debye-Ang):
   XX=            -88.3610   YY=           -113.5783   ZZ=           -106.3546
   XY=              4.5987   XZ=             -1.4843   YZ=              1.5264

  Exact polarizability: 279.522 -14.853 187.501  -3.680 -24.198  91.090
 Approx polarizability: 392.547 -19.389 366.558  -4.857 -54.689 150.699

                      1                      2                      3
                      A                      A                      A
 Frequencies --     36.6520                83.7192               116.2650
 Red. masses --      9.2145                 6.9894                 4.9664
 Frc consts  --      0.0073                 0.0289                 0.0396
 IR Inten    --      3.2313                 3.1376                 0.1909

                      4                      5                      6
                      A                      A                      A
 Frequencies --    140.8198               152.1308               188.4935
 Red. masses --      6.6554                10.7504                 6.1372
 Frc consts  --      0.0778                 0.1466                 0.1285
 IR Inten    --      1.2674                 0.1051                 0.0622

                      7                      8                      9
                      A                      A                      A
 Frequencies --    260.9218               278.0240               296.8507
 Red. masses --      7.1525                 6.3381                10.6637
 Frc consts  --      0.2869                 0.2887                 0.5536
 IR Inten    --      0.4926                 0.1901                 0.4448

                     10                     11                     12
                      A                      A                      A
 Frequencies --    358.2176               387.4005               415.6197
 Red. masses --      6.8955                10.7149                 3.6115
 Frc consts  --      0.5213                 0.9475                 0.3676
 IR Inten    --      0.7329                16.9898                 1.4432

                     13                     14                     15
                      A                      A                      A
 Frequencies --    415.7117               447.2126               452.0013
 Red. masses --      6.8349                 4.2611                 3.6542
 Frc consts  --      0.6959                 0.5021                 0.4399
 IR Inten    --      7.4577                 0.2550                 0.5900

                     16                     17                     18
                      A                      A                      A
 Frequencies --    468.9884               518.3023               532.4636
 Red. masses --     12.2720                 8.6146                 4.7936
 Frc consts  --      1.5903                 1.3635                 0.8007
 IR Inten    --      4.6893                22.1050                 5.2271

                     19                     20                     21
                      A                      A                      A
 Frequencies --    645.5615               657.3472               665.7591
 Red. masses --      7.0411                 7.0144                 4.3225
 Frc consts  --      1.7289                 1.7858                 1.1288
 IR Inten    --      9.4216                 4.2794                 4.3850

                     22                     23                     24
                      A                      A                      A
 Frequencies --    697.9010               717.0444               727.0547
 Red. masses --      6.7355                 7.7826                 4.2630
 Frc consts  --      1.9329                 2.3576                 1.3277
 IR Inten    --      0.2538                13.6917                 7.0296

                     25                     26                     27
                      A                      A                      A
 Frequencies --    733.7706               803.4138               809.8619
 Red. masses --      2.2878                 3.6791                 1.9076
 Frc consts  --      0.7257                 1.3992                 0.7372
 IR Inten    --     74.1933                 0.0032                 4.9738

                     28                     29                     30
                      A                      A                      A
 Frequencies --    825.0385               862.5628               917.5485
 Red. masses --      6.9120                 1.5458                 1.3795
 Frc consts  --      2.7721                 0.6776                 0.6843
 IR Inten    --     29.5473                23.6456                 0.6026

                     31                     32                     33
                      A                      A                      A
 Frequencies --    934.8963               941.1764               972.7930
 Red. masses --      1.4256                 7.0576                 6.0961
 Frc consts  --      0.7341                 3.6834                 3.3989
 IR Inten    --      8.4799                72.8957                16.3171

                     34                     35                     36
                      A                      A                      A
 Frequencies --   1000.7894              1005.3503              1020.1750
 Red. masses --      1.3411                 1.3870                 1.3301
 Frc consts  --      0.7914                 0.8259                 0.8156
 IR Inten    --      0.0346                 2.8150                 0.0003

                     37                     38                     39
                      A                      A                      A
 Frequencies --   1057.2984              1092.0318              1113.0269
 Red. masses --      2.0098                 2.1206                 2.2825
 Frc consts  --      1.3237                 1.4900                 1.6660
 IR Inten    --      1.3054                23.8770                 2.5396

                     40                     41                     42
                      A                      A                      A
 Frequencies --   1129.0083              1177.4382              1185.1264
 Red. masses --      2.1966                 1.5851                 1.8146
 Frc consts  --      1.6497                 1.2947                 1.5016
 IR Inten    --      7.0437                 0.8743                29.8844

                     43                     44                     45
                      A                      A                      A
 Frequencies --   1192.5582              1233.4372              1275.4214
 Red. masses --      1.8568                 1.7268                 1.4997
 Frc consts  --      1.5558                 1.5478                 1.4374
 IR Inten    --      9.4702                 1.9688                44.4796

                     46                     47                     48
                      A                      A                      A
 Frequencies --   1301.3621              1311.3765              1344.1315
 Red. masses --      4.0953                 2.4944                 8.0352
 Frc consts  --      4.0863                 2.5274                 8.5532
 IR Inten    --    666.9171                83.1997                29.7062

                     49                     50                     51
                      A                      A                      A
 Frequencies --   1360.5168              1432.1086              1481.7306
 Red. masses --      8.0651                 4.0426                 2.4064
 Frc consts  --      8.7957                 4.8850                 3.1129
 IR Inten    --     13.6919                 9.2443                 0.4637

                     52                     53                     54
                      A                      A                      A
 Frequencies --   1497.2626              1506.8837              1598.0115
 Red. masses --      2.6932                 2.5684                 7.6040
 Frc consts  --      3.5573                 3.4362                11.4407
 IR Inten    --      2.0492                 8.4953                 7.3357

                     55                     56                     57
                      A                      A                      A
 Frequencies --   1614.6306              1616.9838              1629.4533
 Red. masses --      7.0770                 6.5834                 5.7391
 Frc consts  --     10.8704                10.1418                 8.9780
 IR Inten    --     50.4176               132.2653                34.1449

                     58                     59                     60
                      A                      A                      A
 Frequencies --   1720.3984              1730.7499              3171.4988
 Red. masses --     12.6460                12.2104                 1.0871
 Frc consts  --     22.0526                21.5501                 6.4424
 IR Inten    --     13.5888               319.7247                 3.0551

                     61                     62                     63
                      A                      A                      A
 Frequencies --   3185.6379              3194.3049              3200.6801
 Red. masses --      1.0918                 1.0886                 1.0926
 Frc consts  --      6.5279                 6.5444                 6.5945
 IR Inten    --      9.2544                 0.2427                 0.1614

                     64                     65                     66
                      A                      A                      A
 Frequencies --   3203.2568              3206.8079              3212.0643
 Red. masses --      1.0951                 1.0952                 1.0918
 Frc consts  --      6.6202                 6.6355                 6.6370
 IR Inten    --     11.9813                 1.4858                 4.6908

 - Thermochemistry -
 -------------------
 Temperature   298.150 Kelvin.  Pressure   1.00000 Atm.
 Atom     1 has atomic number 17 and mass  34.96885

 Molecular mass:   242.01346 amu.
 Principal axes and moments of inertia in atomic units:
                           1         2         3
     Eigenvalues --  1749.646117044.146778793.79287
           X            0.98810   0.14949   0.03634
           Y           -0.15384   0.95979   0.23480
           Z            0.00023  -0.23759   0.97137
 This molecule is an asymmetric top.
 Rotational symmetry number  1.
 Warning -- assumption of classical behavior for rotation
           may cause significant error
 Rotational temperatures (Kelvin)      0.04950     0.01230     0.00985
 Rotational constants (GHZ):           1.03149     0.25620     0.20523
 Zero-point vibrational energy     445387.9 (Joules/Mol)
                                  106.45025 (Kcal/Mol)
 Warning -- explicit consideration of  18 degrees of freedom as
           vibrations may cause significant error
 Vibrational temperatures:     52.73   120.45   167.28   202.61   218.88
          (Kelvin)            271.20   375.41   400.01   427.10   515.40
                              557.38   597.98   598.12   643.44   650.33
                              674.77   745.72   766.10   928.82   945.78
                              957.88  1004.12  1031.67  1046.07  1055.73
                             1155.93  1165.21  1187.05  1241.04  1320.15
                             1345.11  1354.14  1399.63  1439.91  1446.47
                             1467.80  1521.22  1571.19  1601.40  1624.39
                             1694.07  1705.13  1715.83  1774.64  1835.05
                             1872.37  1886.78  1933.91  1957.48  2060.48
                             2131.88  2154.23  2168.07  2299.18  2323.09
                             2326.48  2344.42  2475.27  2490.16  4563.08
                             4583.42  4595.89  4605.06  4608.77  4613.88
                             4621.44

 Zero-point correction=                           0.169639 (Hartree/Particle)
 Thermal correction to Energy=                    0.182132
 Thermal correction to Enthalpy=                  0.183076
 Thermal correction to Gibbs Free Energy=         0.129880
 Sum of electronic and zero-point Energies=          -1148.405962
 Sum of electronic and thermal Energies=             -1148.393469
 Sum of electronic and thermal Enthalpies=           -1148.392525
 Sum of electronic and thermal Free Energies=        -1148.445722

                     E (Thermal)             CV                S
                      KCal/Mol        Cal/Mol-Kelvin    Cal/Mol-Kelvin
 Total                  114.290             49.505            111.962
 Electronic               0.000              0.000              0.000
 Translational            0.889              2.981             42.353
 Rotational               0.889              2.981             33.049
 Vibrational            112.512             43.543             36.560
 Vibration     1          0.594              1.982              5.432
 Vibration     2          0.601              1.960              3.802
 Vibration     3          0.608              1.936              3.162
 Vibration     4          0.615              1.912              2.793
 Vibration     5          0.619              1.900              2.645
 Vibration     6          0.633              1.856              2.243
 Vibration     7          0.669              1.744              1.656
 Vibration     8          0.679              1.714              1.546
 Vibration     9          0.690              1.680              1.435
 Vibration    10          0.733              1.558              1.130
 Vibration    11          0.756              1.497              1.010
 Vibration    12          0.779              1.436              0.907
 Vibration    13          0.779              1.436              0.907
 Vibration    14          0.806              1.367              0.804
 Vibration    15          0.811              1.356              0.790
 Vibration    16          0.826              1.319              0.740
 Vibration    17          0.873              1.209              0.614
 Vibration    18          0.887              1.178              0.582

 Optimization completed.
    -- Stationary point found.
 Normal termination of Gaussian 16 at Wed Dec 27 20:46:00 2023.
