 Q-Chem 5.4, Q-Chem, Inc., Pleasanton, CA (2021)
 Q-Chem 5.4.0 for Intel X86 EM64T Linux

User input:
--------------------------------------------------------------
$molecule
-1 2
C                 -4.7643580000     -0.2443920000     -0.5027840000
C                 -3.9689000000     -0.4921960000      0.7917440000
C                 -2.5445040000      0.0150710000      0.7278290000
C                 -2.2690400000      1.3971280000      0.8896690000
C                 -0.9782240000      1.8740770000      0.8016090000
C                  0.1090300000      1.0092880000      0.5478990000
C                  1.4616290000      1.5611910000      0.4633330000
O                  1.6910310000      2.7885610000      0.6057530000
C                  2.5326440000      0.5966400000      0.2026730000
C                  3.8650940000      1.0553650000      0.1070910000
C                  4.9075920000      0.1838930000     -0.1370150000
C                  4.6484920000     -1.1959400000     -0.2961510000
C                  3.3544280000     -1.6680140000     -0.2068390000
C                  2.2708790000     -0.7961600000      0.0421870000
C                  0.9167570000     -1.3462500000      0.1283870000
O                  0.6867820000     -2.5745500000     -0.0125240000
C                 -0.1530690000     -0.3815550000      0.3873910000
C                 -1.4858870000     -0.8405880000      0.4844700000
H                 -4.2898410000     -0.7496390000     -1.3486710000
H                 -5.7923390000     -0.6144370000     -0.4151760000
H                 -4.8073180000      0.8229520000     -0.7387180000
H                 -4.4934220000     -0.0114310000      1.6275660000
H                 -3.9597340000     -1.5659540000      1.0059670000
H                 -3.0867560000      2.0849610000      1.0922510000
H                 -0.7565000000      2.9276600000      0.9288370000
H                  4.0338210000      2.1187500000      0.2334560000
H                  5.9253970000      0.5565660000     -0.2069660000
H                  5.4675400000     -1.8830060000     -0.4882470000
H                  3.1266040000     -2.7212990000     -0.3245080000
H                 -1.6478270000     -1.9066930000      0.3611890000
$end
$rem
MAX_SCF_CYCLES=200
BASIS  =  6-311++G(d,p)
GUI  =  2
JOB_TYPE  =  SP
METHOD  =  B3LYP
SOLVENT_METHOD = COSMO
$end
$solvent
dielectric 37.219
opticaldielectric 1.43
$end

--------------------------------------------------------------

             Standard Nuclear Orientation (Angstroms)
    I     Atom           X                Y                Z
 ----------------------------------------------------------------
    1      C      -5.1566244352     0.5837653433     0.9806775443
    2      C      -4.4295841197     0.5914902708    -0.3762733392
    3      C      -3.0170434749     0.0531599532    -0.3038972570
    4      C      -2.7859617977    -1.3454155657    -0.2515338290
    5      C      -1.5046203453    -1.8453963479    -0.1534310369
    6      C      -0.3833935982    -0.9883913409    -0.1010570096
    7      C       0.9575326662    -1.5649583454     0.0026716133
    8      O       1.1476227426    -2.8062689452     0.0512474145
    9      C       2.0654498267    -0.6078891567     0.0464155360
   10      C       3.3892282733    -1.0900939173     0.1467985029
   11      C       4.4654100026    -0.2265323080     0.1909289765
   12      C       4.2504524334     1.1688558881     0.1354203296
   13      C       2.9656760258     1.6639365015     0.0370490964
   14      C       1.8482343093     0.8005964804    -0.0097461992
   15      C       0.5056501238     1.3751626283    -0.1147094575
   16      O       0.3149262678     2.6171655195    -0.1648944094
   17      C      -0.6009903896     0.4181791847    -0.1568597639
   18      C      -1.9252129532     0.9004577871    -0.2587489196
   19      H      -4.6225449229     1.2029020760     1.7068968720
   20      H      -6.1782932139     0.9694568927     0.8869314231
   21      H      -5.2129848874    -0.4292000792     1.3898940890
   22      H      -5.0123895501    -0.0001727004    -1.0939985570
   23      H      -4.4055655985     1.6154455122    -0.7634044877
   24      H      -3.6308333847    -2.0287840712    -0.2963963562
   25      H      -1.3169703483    -2.9125943872    -0.1179140334
   26      H       3.5237851707    -2.1650180801     0.1875054750
   27      H       5.4758588892    -0.6173291270     0.2682349866
   28      H       5.0960419125     1.8497246367     0.1700088821
   29      H       2.7713902759     2.7294999980    -0.0075215439
   30      H      -2.0531017086     1.9773344010    -0.3032895117
 ----------------------------------------------------------------

    9    -767.6702112182      8.78e-06  Convergence criterion met
 Total energy in the final basis set =     -767.6702112182
    4    -767.7530103528      8.77e-06  Convergence criterion met
 Total energy in the final basis set =     -767.7530103528

                    Orbital Energies (a.u.)
 --------------------------------------------------------------

 Alpha MOs
 -- Occupied --
-19.0798 -19.0795 -10.2265 -10.2256 -10.1786 -10.1732 -10.1728 -10.1724
-10.1724 -10.1719 -10.1711 -10.1698 -10.1696 -10.1695 -10.1690 -10.1669
-10.1654 -10.1558  -1.0069  -1.0044  -0.8628  -0.8524  -0.7968  -0.7664
 -0.7511  -0.7452  -0.7233  -0.6676  -0.6426  -0.6244  -0.5956  -0.5840
 -0.5559  -0.5304  -0.5165  -0.4747  -0.4677  -0.4572  -0.4501  -0.4310
 -0.4252  -0.4236  -0.4201  -0.4187  -0.4125  -0.4016  -0.3956  -0.3842
 -0.3773  -0.3613  -0.3586  -0.3481  -0.3384  -0.3351  -0.3330  -0.3271
 -0.2678  -0.2584  -0.2550  -0.2507  -0.2435  -0.2406  -0.1435

 Beta MOs
 -- Occupied --
-19.0745 -19.0740 -10.2248 -10.2237 -10.1781 -10.1724 -10.1720 -10.1719
-10.1717 -10.1714 -10.1704 -10.1696 -10.1695 -10.1694 -10.1689 -10.1670
-10.1653 -10.1557  -0.9974  -0.9947  -0.8603  -0.8512  -0.7940  -0.7643
 -0.7487  -0.7435  -0.7219  -0.6606  -0.6410  -0.6225  -0.5941  -0.5833
 -0.5533  -0.5283  -0.5147  -0.4722  -0.4663  -0.4556  -0.4495  -0.4301
 -0.4236  -0.4192  -0.4166  -0.4115  -0.4082  -0.3999  -0.3936  -0.3759
 -0.3607  -0.3599  -0.3554  -0.3474  -0.3375  -0.3333  -0.3264  -0.3229
 -0.2543  -0.2486  -0.2460  -0.2457  -0.2378  -0.2357

          Ground-State Mulliken Net Atomic Charges

     Atom                 Charge (a.u.)    Spin (a.u.)
  --------------------------------------------------------
      1 C                    -0.667669      -0.000962
      2 C                    -0.153088      -0.000777
      3 C                     0.627461       0.034732
      4 C                    -0.495907       0.037720
      5 C                     0.032402       0.026001
      6 C                     0.156197       0.025162
      7 C                    -0.606400       0.105722
      8 O                    -0.493402       0.193536
      9 C                     0.128541       0.033475
     10 C                     0.105362       0.026928
     11 C                    -0.495421       0.041843
     12 C                    -0.488604       0.035427
     13 C                     0.060663       0.030396
     14 C                     0.331371       0.033107
     15 C                    -0.561425       0.114785
     16 O                    -0.492114       0.201095
     17 C                     0.215619       0.047020
     18 C                    -0.299740       0.027826
     19 H                     0.147729       0.000800
     20 H                     0.150583       0.000184
     21 H                     0.149833      -0.000466
     22 H                     0.160044       0.001930
     23 H                     0.178477      -0.000038
     24 H                     0.205928      -0.003018
     25 H                     0.180603      -0.001273
     26 H                     0.177682      -0.001218
     27 H                     0.201662      -0.003377
     28 H                     0.203274      -0.003025
     29 H                     0.175274      -0.001568
     30 H                     0.165066      -0.001966
  --------------------------------------------------------
  Sum of atomic charges =    -1.000000

                    Cartesian Multipole Moments
 -----------------------------------------------------------------
    Charge (ESU x 10^10)
                -4.8032
    Dipole Moment (Debye)
         X      -4.2547      Y       0.5286      Z       0.2593
       Tot       4.2952
    Quadrupole Moments (Debye-Ang)
        XX    -100.7457     XY       6.4441     YY    -142.2222
        XZ       1.0623     YZ       1.3274     ZZ    -113.2147

 Total job time:  120.31s(wall), 666.37s(cpu)
        *  Thank you very much for using Q-Chem.  Have a nice day.  *
