 Q-Chem 5.4, Q-Chem, Inc., Pleasanton, CA (2021)
 Q-Chem 5.4.0 for Intel X86 EM64T Linux

User input:
--------------------------------------------------------------
$molecule
-2 1
O                 -4.9048290000      1.1586620000      0.2507000000
C                 -3.6765580000      0.4980440000      0.1544930000
C                 -3.6413680000     -0.9176560000      0.0646620000
C                 -2.4172900000     -1.5517130000     -0.0377330000
C                 -1.1982630000     -0.8430180000     -0.0193800000
C                  0.0534320000     -1.5816800000     -0.1080620000
O                  0.0962970000     -2.8509690000     -0.1948960000
C                  1.2522670000     -0.7554700000     -0.0897160000
C                  2.5162200000     -1.3765690000     -0.1623720000
C                  3.6944430000     -0.6536890000     -0.1720610000
C                  3.6340270000      0.7602370000     -0.0685110000
O                  4.8146510000      1.5088400000     -0.0687460000
C                  2.4265080000      1.4039140000      0.0320880000
C                  1.1998350000      0.6836350000      0.0065110000
C                 -0.0478480000      1.4165450000      0.0970760000
O                 -0.0909320000      2.6926920000      0.1843890000
C                 -1.2430890000      0.5960460000      0.0812920000
C                 -2.5154760000      1.2290740000      0.1480940000
H                 -5.5809410000      0.5846770000     -0.1368360000
H                 -4.5685330000     -1.4871670000      0.0927560000
H                 -2.3539570000     -2.6324250000     -0.1142790000
H                  2.5260200000     -2.4594490000     -0.2337390000
H                  4.6576270000     -1.1504980000     -0.2731960000
H                  5.5297700000      0.9341780000      0.2396770000
H                  2.3757910000      2.4821300000      0.1305970000
H                 -2.5378030000      2.3116270000      0.1971920000
$end
$rem
MAX_SCF_CYCLES=200
BASIS  =  6-311++G(d,p)
GUI  =  2
JOB_TYPE  =  SP
METHOD  =  B3LYP
SOLVENT_METHOD = COSMO
$end
$solvent
dielectric 37.219
opticaldielectric 1.43
$end

--------------------------------------------------------------

             Standard Nuclear Orientation (Angstroms)
    I     Atom           X                Y                Z
 ----------------------------------------------------------------
    1      O       4.8654577118    -1.2396926569     0.0286212649
    2      C       3.6593268839    -0.5330625391     0.0130045723
    3      C       3.6721282198     0.8858480554     0.0195837221
    4      C       2.4690746042     1.5662747430    -0.0041119760
    5      C       1.2265382671     0.8994348233     0.0022311181
    6      C      -0.0000137740     1.6841588198     0.0000492866
    7      O      -0.0000087634     2.9571364767     0.0000027025
    8      C      -1.2265598360     0.8994645967    -0.0021027017
    9      C      -2.4691095615     1.5662862003     0.0041564412
   10      C      -3.6721418537     0.8858399698    -0.0196141350
   11      C      -3.6593100095    -0.5330866418    -0.0131300179
   12      O      -4.8654017872    -1.2397450790    -0.0291304322
   13      C      -2.4731895374    -1.2224253562     0.0086124958
   14      C      -1.2227970240    -0.5437999683    -0.0043803940
   15      C       0.0000023505    -1.3227818797     0.0001833043
   16      O      -0.0000150107    -2.6026377126     0.0002403160
   17      C       1.2228237235    -0.5438357517     0.0046117581
   18      C       2.4732170643    -1.2224367496    -0.0085340590
   19      H       5.5508917534    -0.6637186487    -0.3390803595
   20      H       4.6193905414     1.4205696822     0.0587483106
   21      H       2.4421988680     2.6512093125    -0.0059722848
   22      H      -2.4422890885     2.6512265190     0.0060406544
   23      H      -4.6194108852     1.4205437406    -0.0589097823
   24      H      -5.5510615892    -0.6636904541     0.3380044891
   25      H      -2.4582374129    -2.3059436398     0.0329135814
   26      H       2.4583235056    -2.3059546681    -0.0329719085
 ----------------------------------------------------------------

   14    -839.4225269515      3.82e-06  Convergence criterion met
 Total energy in the final basis set =     -839.4225269515
    6    -839.7042365671      3.93e-06  Convergence criterion met
 Total energy in the final basis set =     -839.7042365671

                    Orbital Energies (a.u.)
 --------------------------------------------------------------

 Alpha MOs
 -- Occupied --
-19.1397 -19.1397 -19.0319 -19.0213 -10.2124 -10.2124 -10.1837 -10.1712
-10.1545 -10.1545 -10.1528 -10.1528 -10.1424 -10.1424 -10.1407 -10.1407
-10.1374 -10.1374  -1.0411  -1.0411  -0.9551  -0.9427  -0.8312  -0.8240
 -0.7518  -0.7297  -0.7292  -0.7060  -0.6422  -0.6133  -0.6054  -0.5681
 -0.5548  -0.5264  -0.5213  -0.4869  -0.4699  -0.4564  -0.4411  -0.4228
 -0.4109  -0.4059  -0.4034  -0.3937  -0.3925  -0.3820  -0.3775  -0.3682
 -0.3560  -0.3550  -0.3349  -0.3332  -0.3219  -0.3171  -0.3059  -0.2889
 -0.2365  -0.2303  -0.2197  -0.2114  -0.2064  -0.2012  -0.1065

          Ground-State Mulliken Net Atomic Charges

     Atom                 Charge (a.u.)
  ----------------------------------------
      1 O                    -0.353720
      2 C                    -0.593911
      3 C                    -0.018078
      4 C                    -0.054323
      5 C                     0.035114
      6 C                    -0.344147
      7 O                    -0.669967
      8 C                     0.035648
      9 C                    -0.054138
     10 C                    -0.018378
     11 C                    -0.593591
     12 O                    -0.353623
     13 C                    -0.305787
     14 C                     0.541995
     15 C                    -0.445695
     16 O                    -0.719224
     17 C                     0.543741
     18 C                    -0.305101
     19 H                     0.308019
     20 H                     0.197884
     21 H                     0.162679
     22 H                     0.162704
     23 H                     0.197859
     24 H                     0.308023
     25 H                     0.167991
     26 H                     0.168025
  ----------------------------------------
  Sum of atomic charges =    -2.000000

                    Cartesian Multipole Moments
 -----------------------------------------------------------------
    Charge (ESU x 10^10)
                -9.6064
    Dipole Moment (Debye)
         X       0.0005      Y       3.3139      Z      -0.0040
       Tot       3.3139
    Quadrupole Moments (Debye-Ang)
        XX    -115.8745     XY      -0.0047     YY    -172.7296
        XZ      -8.5653     YZ      -0.0002     ZZ    -115.4776

 Total job time:  184.46s(wall), 591.65s(cpu)
        *  Thank you very much for using Q-Chem.  Have a nice day.  *
