 Gaussian 16, Revision A.03,
 Gaussian 16:  ES64L-G16RevA.03 25-Dec-2016

 --------------------------------------
 #P UB3LYP/6-311++G(d,p) nosym opt freq
 --------------------------------------

 -------
 Reduced
 -------
 Symbolic Z-matrix:
 Charge = -2 Multiplicity = 1

 SCF Done:  E(UB3LYP) =  -839.422479607     A.U. after   32 cycles
 Optimization completed.
    -- Stationary point found.
 Normal termination of Gaussian 16 at Sun Jan  7 05:05:27 2024.

 ----------------------------------------------------------------------
 #P Geom=AllCheck Guess=TCheck SCRF=Check GenChk UB3LYP/6-311++G(d,p) F
 req
 ----------------------------------------------------------------------

 Structure from the checkpoint file:  "189-an.chk"
 -------
 Reduced
 -------
 Charge = -2 Multiplicity = 1

                          Input orientation:
 ---------------------------------------------------------------------
 Center     Atomic      Atomic             Coordinates (Angstroms)
 Number     Number       Type             X           Y           Z
 ---------------------------------------------------------------------
      1          8           0       -4.904829    1.158662    0.250700
      2          6           0       -3.676558    0.498044    0.154493
      3          6           0       -3.641368   -0.917656    0.064662
      4          6           0       -2.417290   -1.551713   -0.037733
      5          6           0       -1.198263   -0.843018   -0.019380
      6          6           0        0.053432   -1.581680   -0.108062
      7          8           0        0.096297   -2.850969   -0.194896
      8          6           0        1.252267   -0.755470   -0.089716
      9          6           0        2.516220   -1.376569   -0.162372
     10          6           0        3.694443   -0.653689   -0.172061
     11          6           0        3.634027    0.760237   -0.068511
     12          8           0        4.814651    1.508840   -0.068746
     13          6           0        2.426508    1.403914    0.032088
     14          6           0        1.199835    0.683635    0.006511
     15          6           0       -0.047848    1.416545    0.097076
     16          8           0       -0.090932    2.692692    0.184389
     17          6           0       -1.243089    0.596046    0.081292
     18          6           0       -2.515476    1.229074    0.148094
     19          1           0       -5.580941    0.584677   -0.136836
     20          1           0       -4.568533   -1.487167    0.092756
     21          1           0       -2.353957   -2.632425   -0.114279
     22          1           0        2.526020   -2.459449   -0.233739
     23          1           0        4.657627   -1.150498   -0.273196
     24          1           0        5.529770    0.934178    0.239677
     25          1           0        2.375791    2.482130    0.130597
     26          1           0       -2.537803    2.311627    0.197192
 ---------------------------------------------------------------------

 SCF Done:  E(UB3LYP) =  -839.422479607     A.U. after    2 cycles

 Alpha  occ. eigenvalues --  -18.93733 -18.93732 -18.81453 -18.79959 -10.00129
 Alpha  occ. eigenvalues --  -10.00128  -9.97153  -9.95813  -9.94708  -9.94708
 Alpha  occ. eigenvalues --   -9.94424  -9.94423  -9.92989  -9.92988  -9.92691
 Alpha  occ. eigenvalues --   -9.92690  -9.92463  -9.92463  -0.83815  -0.83814
 Alpha  occ. eigenvalues --   -0.73383  -0.71744  -0.61750  -0.61162  -0.53998
 Alpha  occ. eigenvalues --   -0.51671  -0.51666  -0.49480  -0.42981  -0.40296
 Alpha  occ. eigenvalues --   -0.39653  -0.35662  -0.34780  -0.31486  -0.31425
 Alpha  occ. eigenvalues --   -0.27621  -0.25917  -0.24637  -0.23376  -0.20896
 Alpha  occ. eigenvalues --   -0.20013  -0.19373  -0.19051  -0.18174  -0.18020
 Alpha  occ. eigenvalues --   -0.17105  -0.16112  -0.14484  -0.14447  -0.14033
 Alpha  occ. eigenvalues --   -0.12217  -0.11139  -0.10667  -0.10433  -0.08950
 Alpha  occ. eigenvalues --   -0.07323  -0.02086  -0.00869  -0.00027   0.00666
 Alpha  occ. eigenvalues --    0.01275   0.02577   0.11948
 Alpha virt. eigenvalues --    0.13657   0.13857   0.17177   0.17284   0.18699
 Alpha virt. eigenvalues --    0.19425   0.20353   0.20719   0.21416   0.21487
 Alpha virt. eigenvalues --    0.23290   0.24141   0.24540   0.24928   0.25568

  Beta  occ. eigenvalues --  -18.93733 -18.93732 -18.81453 -18.79959 -10.00129
  Beta  occ. eigenvalues --  -10.00128  -9.97153  -9.95813  -9.94708  -9.94708
  Beta  occ. eigenvalues --   -9.94424  -9.94423  -9.92989  -9.92988  -9.92691
  Beta  occ. eigenvalues --   -9.92690  -9.92463  -9.92463  -0.83815  -0.83814
  Beta  occ. eigenvalues --   -0.73383  -0.71744  -0.61750  -0.61162  -0.53998
  Beta  occ. eigenvalues --   -0.51671  -0.51666  -0.49480  -0.42981  -0.40296
  Beta  occ. eigenvalues --   -0.39653  -0.35662  -0.34780  -0.31486  -0.31425
  Beta  occ. eigenvalues --   -0.27621  -0.25917  -0.24637  -0.23376  -0.20896
  Beta  occ. eigenvalues --   -0.20013  -0.19373  -0.19051  -0.18174  -0.18020
  Beta  occ. eigenvalues --   -0.17105  -0.16112  -0.14484  -0.14447  -0.14033
  Beta  occ. eigenvalues --   -0.12217  -0.11139  -0.10667  -0.10433  -0.08950
  Beta  occ. eigenvalues --   -0.07323  -0.02086  -0.00869  -0.00027   0.00666
  Beta  occ. eigenvalues --    0.01275   0.02577   0.11948
  Beta virt. eigenvalues --    0.13657   0.13857   0.17177   0.17284   0.18699
  Beta virt. eigenvalues --    0.19425   0.20353   0.20719   0.21416   0.21487
  Beta virt. eigenvalues --    0.23290   0.24141   0.24540   0.24928   0.25568

 Mulliken charges and spin densities:
               1          2
     1  O   -0.326068   0.000000
     2  C    0.097089   0.000000
     3  C   -0.268976   0.000000
     4  C   -0.267698  -0.000000
     5  C    0.275879   0.000000
     6  C   -0.773053   0.000000
     7  O   -0.458665   0.000000
     8  C    0.275442   0.000000
     9  C   -0.267467  -0.000000
    10  C   -0.268859  -0.000000
    11  C    0.096603   0.000000
    12  O   -0.326023  -0.000000
    13  C   -0.033459   0.000000
    14  C    0.934482   0.000000
    15  C   -0.736991  -0.000000
    16  O   -0.474625   0.000000
    17  C    0.934236   0.000000
    18  C   -0.033904  -0.000000
    19  H   -0.213952   0.000000
    20  H   -0.310447   0.000000
    21  H    0.168139  -0.000000
    22  H    0.168144   0.000000
    23  H   -0.310487  -0.000000
    24  H   -0.214096  -0.000000
    25  H    0.167381   0.000000
    26  H    0.167377   0.000000
 Sum of Mulliken charges =  -2.00000   0.00000

 Dipole moment (field-independent basis, Debye):
    X=              0.0852    Y=             -2.5394    Z=             -0.1737  Tot=              2.5468
 Quadrupole moment (field-independent basis, Debye-Ang):
   XX=           -233.5425   YY=           -166.2200   ZZ=           -120.3299
   XY=             -2.2008   XZ=             -1.0120   YZ=             -3.1828

  Exact polarizability:4863.793 125.384 459.619 352.760  31.569 169.802
 Approx polarizability:9503.174 252.897 616.580 692.631  47.840 254.032

                      1                      2                      3
                      A                      A                      A
 Frequencies --     48.9065                94.7845               121.2988
 Red. masses --      8.0701                 5.1164                 7.5997
 Frc consts  --      0.0114                 0.0271                 0.0659
 IR Inten    --      0.2548                 0.0431                15.0063

                      4                      5                      6
                      A                      A                      A
 Frequencies --    164.8923               170.0748               187.2709
 Red. masses --      6.5830                 6.7630                 4.7167
 Frc consts  --      0.1055                 0.1153                 0.0975
 IR Inten    --     10.6204                 0.1052                 0.0026

                      7                      8                      9
                      A                      A                      A
 Frequencies --    248.4721               286.2677               288.0544
 Red. masses --      8.5950                 1.0985                 1.1335
 Frc consts  --      0.3126                 0.0530                 0.0554
 IR Inten    --      6.1876                41.9242                12.2659

                     10                     11                     12
                      A                      A                      A
 Frequencies --    291.3264               319.1755               342.6648
 Red. masses --      7.8959                 7.9988                 5.3133
 Frc consts  --      0.3948                 0.4801                 0.3676
 IR Inten    --     24.7369                 0.9446                 0.2264

                     13                     14                     15
                      A                      A                      A
 Frequencies --    351.0453               379.4686               401.5709
 Red. masses --     11.0707                 8.1699                 5.1753
 Frc consts  --      0.8038                 0.6931                 0.4917
 IR Inten    --     16.5644                69.2060                 5.7876

                     16                     17                     18
                      A                      A                      A
 Frequencies --    414.1910               460.7463               470.6833
 Red. masses --      4.5384                 4.5601                 4.7138
 Frc consts  --      0.4587                 0.5704                 0.6153
 IR Inten    --     28.1843                 9.8391                 3.9129

                     19                     20                     21
                      A                      A                      A
 Frequencies --    472.8212               473.1367               579.9955
 Red. masses --      4.7711                 4.8103                 4.9217
 Frc consts  --      0.6284                 0.6345                 0.9755
 IR Inten    --      0.1477                51.6392                16.5709

                     22                     23                     24
                      A                      A                      A
 Frequencies --    590.7113               594.5740               648.3154
 Red. masses --      5.2828                 7.6284                 2.8926
 Frc consts  --      1.0861                 1.5889                 0.7163
 IR Inten    --      0.0004                 3.4667                26.3210

                     25                     26                     27
                      A                      A                      A
 Frequencies --    655.8538               703.0966               709.0463
 Red. masses --      7.6099                 5.9791                 4.7397
 Frc consts  --      1.9286                 1.7415                 1.4040
 IR Inten    --     22.8522                 6.7364                26.9599

                     28                     29                     30
                      A                      A                      A
 Frequencies --    717.0905               728.6075               746.5331
 Red. masses --      2.7574                 6.4980                 1.5255
 Frc consts  --      0.8354                 2.0324                 0.5009
 IR Inten    --     34.5718                20.2610               111.7114

                     31                     32                     33
                      A                      A                      A
 Frequencies --    750.5658               784.0283               812.3283
 Red. masses --      2.6072                 7.8447                 5.2816
 Frc consts  --      0.8654                 2.8411                 2.0534
 IR Inten    --      3.3398               247.8612                30.9805

                     34                     35                     36
                      A                      A                      A
 Frequencies --    903.9475               907.6594               907.8581
 Red. masses --      1.5988                 1.4851                 3.2339
 Frc consts  --      0.7697                 0.7208                 1.5704
 IR Inten    --      0.0218                41.3487                 9.9267

                     37                     38                     39
                      A                      A                      A
 Frequencies --    934.0361               953.7163               960.2438
 Red. masses --      6.0359                 1.3000                 1.3399
 Frc consts  --      3.1026                 0.6967                 0.7279
 IR Inten    --     53.1602                35.4486                24.5363

                     40                     41                     42
                      A                      A                      A
 Frequencies --    992.9281              1083.2996              1104.2981
 Red. masses --      2.4430                 2.2461                 1.6195
 Frc consts  --      1.4191                 1.5530                 1.1636
 IR Inten    --    162.7954                 2.0327                 0.3395

                     43                     44                     45
                      A                      A                      A
 Frequencies --   1120.0685              1125.8200              1177.1873
 Red. masses --      1.5853                 1.9909                 1.7797
 Frc consts  --      1.1718                 1.4867                 1.4531
 IR Inten    --     22.5224              1754.7047                15.9306

                     46                     47                     48
                      A                      A                      A
 Frequencies --   1189.3195              1196.1322              1204.0695
 Red. masses --      1.5171                 2.6386                 1.8175
 Frc consts  --      1.2643                 2.2242                 1.5525
 IR Inten    --      9.0617                40.4124                37.2446

                     49                     50                     51
                      A                      A                      A
 Frequencies --   1226.3484              1227.4003              1255.6163
 Red. masses --      3.9206                 2.5633                 2.2768
 Frc consts  --      3.4740                 2.2752                 2.1148
 IR Inten    --    131.3085              1763.3683                33.2013

                     52                     53                     54
                      A                      A                      A
 Frequencies --   1333.3871              1344.3168              1356.4467
 Red. masses --      2.1397                 7.6172                 6.6652
 Frc consts  --      2.2414                 8.1105                 7.2255
 IR Inten    --    508.5856                 3.4024               160.7418

                     55                     56                     57
                      A                      A                      A
 Frequencies --   1385.4795              1443.8966              1455.4600
 Red. masses --      3.8424                 3.4744                 3.4369
 Frc consts  --      4.3457                 4.2678                 4.2896
 IR Inten    --    637.0562               483.8229               137.4097

                     58                     59                     60
                      A                      A                      A
 Frequencies --   1464.4877              1490.2253              1514.5749
 Red. masses --      6.9235                 4.6370                 5.6979
 Frc consts  --      8.7488                 6.0673                 7.7010
 IR Inten    --    123.2398                 1.7660               387.5135

                     61                     62                     63
                      A                      A                      A
 Frequencies --   1538.4622              1569.3814              1615.5216
 Red. masses --      5.6937                 6.9590                 5.5964
 Frc consts  --      7.9399                10.0985                 8.6056
 IR Inten    --    401.1225                 0.7179               390.0059

                     64                     65                     66
                      A                      A                      A
 Frequencies --   1616.4064              3113.0645              3113.3012
 Red. masses --      5.8744                 1.0876                 1.0877
 Frc consts  --      9.0431                 6.2098                 6.2116
 IR Inten    --      6.7862                50.1048               283.7158

                     67                     68                     69
                      A                      A                      A
 Frequencies --   3164.1804              3164.6370              3182.2888
 Red. masses --      1.0905                 1.0908                 1.0891
 Frc consts  --      6.4329                 6.4362                 6.4982
 IR Inten    --     28.4377                10.8716                20.5188

                     70                     71                     72
                      A                      A                      A
 Frequencies --   3182.7149              3683.4887              3695.0523
 Red. masses --      1.0892                 1.0656                 1.0656
 Frc consts  --      6.5008                 8.5185                 8.5718
 IR Inten    --      3.3117             21256.1482                83.3397

 - Thermochemistry -
 -------------------
 Temperature   298.150 Kelvin.  Pressure   1.00000 Atm.
 Atom     1 has atomic number  8 and mass  15.99491

 Molecular mass:   240.04226 amu.
 Principal axes and moments of inertia in atomic units:
                           1         2         3
     Eigenvalues --  1890.599476774.294938662.91602
           X            0.99895  -0.03368   0.03104
           Y            0.03570   0.99710  -0.06714
           Z           -0.02869   0.06818   0.99726
 This molecule is an asymmetric top.
 Rotational symmetry number  1.
 Warning -- assumption of classical behavior for rotation
           may cause significant error
 Rotational temperatures (Kelvin)      0.04581     0.01279     0.01000
 Rotational constants (GHZ):           0.95459     0.26641     0.20833
 Zero-point vibrational energy     477934.0 (Joules/Mol)
                                  114.22896 (Kcal/Mol)
 Warning -- explicit consideration of  23 degrees of freedom as
           vibrations may cause significant error
 Vibrational temperatures:     70.37   136.37   174.52   237.24   244.70
          (Kelvin)            269.44   357.50   411.88   414.45   419.15
                              459.22   493.02   505.08   545.97   577.77
                              595.93   662.91   677.21   680.28   680.74
                              834.48   849.90   855.46   932.78   943.63
                             1011.60  1020.16  1031.73  1048.30  1074.09
                             1079.90  1128.04  1168.76  1300.58  1305.92
                             1306.21  1343.87  1372.19  1381.58  1428.60
                             1558.63  1588.84  1611.53  1619.80  1693.71
                             1711.17  1720.97  1732.39  1764.44  1765.96
                             1806.55  1918.45  1934.17  1951.62  1993.40
                             2077.45  2094.08  2107.07  2144.10  2179.14
                             2213.50  2257.99  2324.38  2325.65  4479.01
                             4479.35  4552.55  4553.21  4578.60  4579.22
                             5299.72  5316.36

 Zero-point correction=                           0.182035 (Hartree/Particle)
 Thermal correction to Energy=                    0.195955
 Thermal correction to Enthalpy=                  0.196899
 Thermal correction to Gibbs Free Energy=         0.141974
 Sum of electronic and zero-point Energies=           -839.240444
 Sum of electronic and thermal Energies=              -839.226524
 Sum of electronic and thermal Enthalpies=            -839.225580
 Sum of electronic and thermal Free Energies=         -839.280506

                     E (Thermal)             CV                S
                      KCal/Mol        Cal/Mol-Kelvin    Cal/Mol-Kelvin
 Total                  122.964             56.579            115.601
 Electronic               0.000              0.000              0.000
 Translational            0.889              2.981             42.328
 Rotational               0.889              2.981             33.073
 Vibrational            121.186             50.618             40.200
 Vibration     1          0.595              1.978              4.861
 Vibration     2          0.603              1.953              3.559
 Vibration     3          0.609              1.931              3.080
 Vibration     4          0.623              1.886              2.493
 Vibration     5          0.625              1.879              2.435
 Vibration     6          0.632              1.857              2.255
 Vibration     7          0.662              1.765              1.741
 Vibration     8          0.684              1.699              1.496
 Vibration     9          0.685              1.696              1.485
 Vibration    10          0.687              1.690              1.466
 Vibration    11          0.705              1.637              1.314
 Vibration    12          0.722              1.590              1.200
 Vibration    13          0.728              1.573              1.161
 Vibration    14          0.749              1.514              1.041
 Vibration    15          0.767              1.467              0.957
 Vibration    16          0.778              1.439              0.912
 Vibration    17          0.819              1.337              0.764
 Vibration    18          0.828              1.315              0.736
 Vibration    19          0.830              1.310              0.730
 Vibration    20          0.830              1.310              0.729
 Vibration    21          0.937              1.075              0.485
 Vibration    22          0.948              1.052              0.466
 Vibration    23          0.952              1.043              0.459

 Optimization completed.
    -- Stationary point found.
 Normal termination of Gaussian 16 at Sun Jan  7 06:02:49 2024.
