 Q-Chem 5.4, Q-Chem, Inc., Pleasanton, CA (2021)
 Q-Chem 5.4.0 for Intel X86 EM64T Linux

User input:
--------------------------------------------------------------
$molecule
-1 2
C                  5.0468290000     -2.5047400000      0.0935290000
C                  5.7636650000     -1.5464220000     -0.5964450000
C                  5.0835700000     -0.5091140000     -1.2674090000
C                  3.6378420000     -2.4665720000      0.1399570000
C                  2.9513620000     -1.4214030000     -0.5363410000
C                  3.7040360000     -0.4527980000     -1.2345340000
C                  2.9206270000     -3.5100100000      0.8868300000
C                  1.4591400000     -3.4071550000      0.8855080000
C                  0.7723190000     -2.3524930000      0.2080130000
C                  1.4861850000     -1.3171480000     -0.5291280000
C                  0.7127900000     -4.3770990000      1.5800930000
C                 -0.6424910000     -2.3166390000      0.2562410000
C                 -1.3662540000     -3.2631880000      0.9417990000
O                  3.5230430000     -4.4247700000      1.4890620000
O                  0.8869010000     -0.3883340000     -1.1247950000
H                  5.5413550000     -3.3137270000      0.6185270000
H                 -2.4481750000     -3.2373520000      0.9692010000
H                  3.1562140000      0.3331610000     -1.7411080000
H                  1.2464770000     -5.1763480000      2.0791220000
H                 -1.1373430000     -1.5107870000     -0.2726890000
C                 -0.6660030000     -4.3010120000      1.6064410000
H                  5.6460130000      0.2446690000     -1.8101800000
H                  6.8481350000     -1.5905870000     -0.6231380000
S                 -1.5849650000     -5.4912260000      2.5492860000
O                 -0.7340650000     -6.6521460000      2.8334000000
O                 -2.9194380000     -5.6931710000      1.9736650000
N                 -1.8967380000     -4.6406680000      4.0066630000
H                 -1.0872690000     -4.7072380000      4.6186160000
H                 -2.7021250000     -5.0775320000      4.4486320000
$end
$rem
MAX_SCF_CYCLES=200
BASIS  =  6-311++G(d,p)
GUI  =  2
JOB_TYPE  =  SP
METHOD  =  B3LYP
SOLVENT_METHOD = PCM
$end
$pcm
theory = CPCM
$end
$solvent
dielectric 37.219
opticaldielectric 1.43
$end

--------------------------------------------------------------

             Standard Nuclear Orientation (Angstroms)
    I     Atom           X                Y                Z
 ----------------------------------------------------------------
    1      C       5.0468290000    -2.5047400000     0.0935290000
    2      C       5.7636650000    -1.5464220000    -0.5964450000
    3      C       5.0835700000    -0.5091140000    -1.2674090000
    4      C       3.6378420000    -2.4665720000     0.1399570000
    5      C       2.9513620000    -1.4214030000    -0.5363410000
    6      C       3.7040360000    -0.4527980000    -1.2345340000
    7      C       2.9206270000    -3.5100100000     0.8868300000
    8      C       1.4591400000    -3.4071550000     0.8855080000
    9      C       0.7723190000    -2.3524930000     0.2080130000
   10      C       1.4861850000    -1.3171480000    -0.5291280000
   11      C       0.7127900000    -4.3770990000     1.5800930000
   12      C      -0.6424910000    -2.3166390000     0.2562410000
   13      C      -1.3662540000    -3.2631880000     0.9417990000
   14      O       3.5230430000    -4.4247700000     1.4890620000
   15      O       0.8869010000    -0.3883340000    -1.1247950000
   16      H       5.5413550000    -3.3137270000     0.6185270000
   17      H      -2.4481750000    -3.2373520000     0.9692010000
   18      H       3.1562140000     0.3331610000    -1.7411080000
   19      H       1.2464770000    -5.1763480000     2.0791220000
   20      H      -1.1373430000    -1.5107870000    -0.2726890000
   21      C      -0.6660030000    -4.3010120000     1.6064410000
   22      H       5.6460130000     0.2446690000    -1.8101800000
   23      H       6.8481350000    -1.5905870000    -0.6231380000
   24      S      -1.5849650000    -5.4912260000     2.5492860000
   25      O      -0.7340650000    -6.6521460000     2.8334000000
   26      O      -2.9194380000    -5.6931710000     1.9736650000
   27      N      -1.8967380000    -4.6406680000     4.0066630000
   28      H      -1.0872690000    -4.7072380000     4.6186160000
   29      H      -2.7021250000    -5.0775320000     4.4486320000
 ----------------------------------------------------------------

    8   -1293.1329296191      8.98e-06  Convergence criterion met
 Total energy in the final basis set =    -1293.1329296191

                    Orbital Energies (a.u.)
 --------------------------------------------------------------

 Alpha MOs
 -- Occupied --
-89.0761 -19.1303 -19.1302 -19.0873 -19.0842 -14.3400 -10.2377 -10.2323
-10.2161 -10.1959 -10.1914 -10.1863 -10.1858 -10.1828 -10.1808 -10.1803
-10.1770 -10.1763 -10.1746 -10.1738  -8.1379  -6.1007  -6.1005  -6.0986
 -1.1317  -1.0226  -1.0167  -1.0108  -0.9078  -0.8784  -0.8612  -0.8033
 -0.7732  -0.7560  -0.7552  -0.6971  -0.6696  -0.6402  -0.6160  -0.5977
 -0.5677  -0.5527  -0.5412  -0.5227  -0.5175  -0.4962  -0.4853  -0.4728
 -0.4664  -0.4600  -0.4427  -0.4322  -0.4296  -0.4263  -0.4228  -0.4164
 -0.4004  -0.3905  -0.3816  -0.3707  -0.3670  -0.3564  -0.3518  -0.3465
 -0.3418  -0.3331  -0.3227  -0.2999  -0.2778  -0.2744  -0.2614  -0.2582
 -0.2566  -0.2469  -0.1521

 Beta MOs
 -- Occupied --
-89.0761 -19.1302 -19.1302 -19.0826 -19.0787 -14.3400 -10.2362 -10.2305
-10.2154 -10.1962 -10.1904 -10.1853 -10.1844 -10.1828 -10.1803 -10.1797
-10.1768 -10.1759 -10.1746 -10.1737  -8.1379  -6.1007  -6.1005  -6.0986
 -1.1315  -1.0225  -1.0083  -1.0010  -0.9076  -0.8760  -0.8598  -0.7994
 -0.7710  -0.7540  -0.7536  -0.6934  -0.6647  -0.6382  -0.6141  -0.5970
 -0.5658  -0.5511  -0.5394  -0.5222  -0.5167  -0.4949  -0.4835  -0.4710
 -0.4652  -0.4595  -0.4424  -0.4286  -0.4249  -0.4194  -0.4182  -0.4144
 -0.3981  -0.3778  -0.3701  -0.3679  -0.3660  -0.3554  -0.3468  -0.3415
 -0.3401  -0.3326  -0.3223  -0.2975  -0.2689  -0.2591  -0.2544  -0.2520
 -0.2520  -0.2421

          Ground-State Mulliken Net Atomic Charges

     Atom                 Charge (a.u.)    Spin (a.u.)
  --------------------------------------------------------
      1 C                     0.068215       0.017580
      2 C                    -0.469618       0.035190
      3 C                    -0.501200       0.019324
      4 C                     0.285646       0.021456
      5 C                     0.320577       0.006706
      6 C                     0.069664       0.036242
      7 C                    -0.680137       0.082373
      8 C                     0.309101       0.075896
      9 C                     0.651209       0.089098
     10 C                    -0.341284       0.105476
     11 C                    -0.103023      -0.016843
     12 C                    -0.140168       0.021235
     13 C                    -0.353127       0.085155
     14 O                    -0.439553       0.181464
     15 O                    -0.459741       0.211543
     16 H                     0.173789      -0.001330
     17 H                     0.273785      -0.004825
     18 H                     0.175755      -0.002344
     19 H                     0.234746       0.000746
     20 H                     0.176678      -0.000837
     21 C                    -0.507995       0.034143
     22 H                     0.202850      -0.001899
     23 H                     0.203929      -0.002732
     24 S                     0.295107       0.006201
     25 O                    -0.281103       0.002193
     26 O                    -0.346566      -0.002479
     27 N                    -0.478670       0.000328
     28 H                     0.319625      -0.000272
     29 H                     0.341502       0.001212
  --------------------------------------------------------
  Sum of atomic charges =    -1.000006

                    Cartesian Multipole Moments
 -----------------------------------------------------------------
    Charge (ESU x 10^10)
                -4.8032
    Dipole Moment (Debye)
         X      -5.4009      Y      17.2385      Z      -0.4955
       Tot      18.0715
    Quadrupole Moments (Debye-Ang)
        XX    -150.3547     XY      16.2245     YY    -227.7864
        XZ     -10.9288     YZ      15.5712     ZZ    -120.0888

 Total job time:  180.24s(wall), 526.92s(cpu)
        *  Thank you very much for using Q-Chem.  Have a nice day.  *
