 Q-Chem 5.4, Q-Chem, Inc., Pleasanton, CA (2021)
 Q-Chem 5.4.0 for Intel X86 EM64T Linux

User input:
--------------------------------------------------------------
$molecule
-1 2
C                 -6.3714900000      0.9794560000     -1.8663630000
C                 -6.4511220000      1.2446440000     -3.2208810000
C                 -5.4585690000      0.7572700000     -4.0949580000
C                 -5.3033370000      0.2217460000     -1.3393040000
C                 -4.2990550000     -0.2711750000     -2.2210590000
C                 -4.4031320000      0.0125230000     -3.5939310000
C                 -5.2213900000     -0.0556640000      0.0793320000
C                 -4.0922890000     -0.8394020000      0.5240280000
C                 -3.1082290000     -1.3384400000     -0.3031150000
C                 -3.1580860000     -1.0689760000     -1.7237940000
O                 -6.0624910000      0.3349690000      0.9538810000
O                 -2.2729110000     -1.4953010000     -2.5108980000
O                 -4.0794630000     -1.0596470000      1.8707270000
C                 -1.9613750000     -2.1528680000      0.2350100000
H                 -7.1226360000      1.3433930000     -1.1744110000
H                 -7.2787010000      1.8290610000     -3.6125920000
H                 -5.5219380000      0.9661590000     -5.1587270000
H                 -3.6253300000     -0.3738970000     -4.2428460000
H                 -4.8962700000     -0.5949950000      2.1591950000
C                 -0.6994850000     -1.3128290000      0.5086600000
C                  0.4818420000     -2.1745290000      0.9974430000
C                  1.7382750000     -1.3810330000      1.2675810000
C                  2.6158070000     -1.0396020000      0.2300960000
C                  2.0555190000     -0.9284670000      2.5516180000
C                  3.2004700000     -0.1683240000      2.7893170000
C                  4.0763660000      0.1710790000      1.7543820000
C                  3.7589310000     -0.2815820000      0.4669400000
C                  5.3210340000      0.9965520000      2.0300020000
C                  6.6247750000      0.2249040000      1.7273410000
C                  5.3162650000      2.3494980000      1.2844120000
C                  6.5659830000      3.1843390000      1.5991700000
C                  7.8747240000      1.0597010000      2.0414270000
C                  7.8565490000      2.4068250000      1.3057830000
H                 -1.7097450000     -2.9194780000     -0.5053620000
H                 -2.2673360000     -2.6537100000      1.1592070000
H                 -0.9246520000     -0.5452540000      1.2570740000
H                 -0.4159410000     -0.7928140000     -0.4111060000
H                  0.6908390000     -2.9412330000      0.2423620000
H                  0.1847040000     -2.7054370000      1.9092740000
H                  2.3946900000     -1.3714730000     -0.7797700000
H                  1.3952730000     -1.1728650000      3.3783980000
H                  3.4164180000      0.1670970000      3.8000430000
H                  4.4103430000     -0.0414300000     -0.3677360000
H                  5.3238540000      1.2223780000      3.1054260000
H                  6.6358000000     -0.0604890000      0.6680250000
H                  6.6364760000     -0.7090550000      2.2985030000
H                  4.4101440000      2.9056570000      1.5440930000
H                  5.2661190000      2.1654120000      0.2041380000
H                  6.5515840000      3.4707290000      2.6594400000
H                  6.5467980000      4.1179580000      1.0263720000
H                  8.7776100000      0.4964880000      1.7802660000
H                  7.9246270000      1.2416510000      3.1234840000
H                  7.9309500000      2.2277070000      0.2248940000
H                  8.7323570000      3.0038680000      1.5836050000
$end

$rem
BASIS  =  6-311++G(d,p)
GUI  =  2
JOB_TYPE  =  SP
METHOD  =  B3LYP
SCF_CONVERGENCE  = 8
SOLVENT_METHOD = sm12
$end

$smx
solvent dimethylformamide
charges CM5
$end

--------------------------------------------------------------

             Standard Nuclear Orientation (Angstroms)
    I     Atom           X                Y                Z
 ----------------------------------------------------------------
    1      C      -6.3714900000     0.9794560000    -1.8663630000
    2      C      -6.4511220000     1.2446440000    -3.2208810000
    3      C      -5.4585690000     0.7572700000    -4.0949580000
    4      C      -5.3033370000     0.2217460000    -1.3393040000
    5      C      -4.2990550000    -0.2711750000    -2.2210590000
    6      C      -4.4031320000     0.0125230000    -3.5939310000
    7      C      -5.2213900000    -0.0556640000     0.0793320000
    8      C      -4.0922890000    -0.8394020000     0.5240280000
    9      C      -3.1082290000    -1.3384400000    -0.3031150000
   10      C      -3.1580860000    -1.0689760000    -1.7237940000
   11      O      -6.0624910000     0.3349690000     0.9538810000
   12      O      -2.2729110000    -1.4953010000    -2.5108980000
   13      O      -4.0794630000    -1.0596470000     1.8707270000
   14      C      -1.9613750000    -2.1528680000     0.2350100000
   15      H      -7.1226360000     1.3433930000    -1.1744110000
   16      H      -7.2787010000     1.8290610000    -3.6125920000
   17      H      -5.5219380000     0.9661590000    -5.1587270000
   18      H      -3.6253300000    -0.3738970000    -4.2428460000
   19      H      -4.8962700000    -0.5949950000     2.1591950000
   20      C      -0.6994850000    -1.3128290000     0.5086600000
   21      C       0.4818420000    -2.1745290000     0.9974430000
   22      C       1.7382750000    -1.3810330000     1.2675810000
   23      C       2.6158070000    -1.0396020000     0.2300960000
   24      C       2.0555190000    -0.9284670000     2.5516180000
   25      C       3.2004700000    -0.1683240000     2.7893170000
   26      C       4.0763660000     0.1710790000     1.7543820000
   27      C       3.7589310000    -0.2815820000     0.4669400000
   28      C       5.3210340000     0.9965520000     2.0300020000
   29      C       6.6247750000     0.2249040000     1.7273410000
   30      C       5.3162650000     2.3494980000     1.2844120000
   31      C       6.5659830000     3.1843390000     1.5991700000
   32      C       7.8747240000     1.0597010000     2.0414270000
   33      C       7.8565490000     2.4068250000     1.3057830000
   34      H      -1.7097450000    -2.9194780000    -0.5053620000
   35      H      -2.2673360000    -2.6537100000     1.1592070000
   36      H      -0.9246520000    -0.5452540000     1.2570740000
   37      H      -0.4159410000    -0.7928140000    -0.4111060000
   38      H       0.6908390000    -2.9412330000     0.2423620000
   39      H       0.1847040000    -2.7054370000     1.9092740000
   40      H       2.3946900000    -1.3714730000    -0.7797700000
   41      H       1.3952730000    -1.1728650000     3.3783980000
   42      H       3.4164180000     0.1670970000     3.8000430000
   43      H       4.4103430000    -0.0414300000    -0.3677360000
   44      H       5.3238540000     1.2223780000     3.1054260000
   45      H       6.6358000000    -0.0604890000     0.6680250000
   46      H       6.6364760000    -0.7090550000     2.2985030000
   47      H       4.4101440000     2.9056570000     1.5440930000
   48      H       5.2661190000     2.1654120000     0.2041380000
   49      H       6.5515840000     3.4707290000     2.6594400000
   50      H       6.5467980000     4.1179580000     1.0263720000
   51      H       8.7776100000     0.4964880000     1.7802660000
   52      H       7.9246270000     1.2416510000     3.1234840000
   53      H       7.9309500000     2.2277070000     0.2248940000
   54      H       8.7323570000     3.0038680000     1.5836050000
 ----------------------------------------------------------------

   18   -1194.4154096911      5.21e-09  Convergence criterion met
 Total energy in the final basis set =    -1194.5105828846

                    Orbital Energies (a.u.)
 --------------------------------------------------------------

 Alpha MOs
 -- Occupied --
-19.1448 -19.0863 -19.0737 -10.2244 -10.2242 -10.2220 -10.1828 -10.1821
-10.1816 -10.1808 -10.1807 -10.1793 -10.1792 -10.1785 -10.1778 -10.1760
-10.1757 -10.1752 -10.1751 -10.1721 -10.1672 -10.1662 -10.1658 -10.1658
-10.1656 -10.1647 -10.1646 -10.1637  -1.0645  -0.9987  -0.9959  -0.8680
 -0.8644  -0.8360  -0.8178  -0.7972  -0.7731  -0.7579  -0.7496  -0.7482
 -0.7429  -0.7220  -0.6882  -0.6648  -0.6314  -0.6207  -0.6146  -0.6113
 -0.6036  -0.5862  -0.5747  -0.5733  -0.5533  -0.5420  -0.5102  -0.5041
 -0.4892  -0.4817  -0.4718  -0.4671  -0.4597  -0.4543  -0.4452  -0.4407
 -0.4396  -0.4361  -0.4335  -0.4295  -0.4217  -0.4170  -0.4124  -0.4037
 -0.4008  -0.3942  -0.3895  -0.3845  -0.3799  -0.3779  -0.3725  -0.3696
 -0.3601  -0.3539  -0.3503  -0.3464  -0.3461  -0.3450  -0.3404  -0.3366
 -0.3338  -0.3295  -0.3194  -0.3048  -0.3033  -0.2712  -0.2642  -0.2593
 -0.2591  -0.2441  -0.2381  -0.2299  -0.1525

 Beta MOs
 -- Occupied --
-19.1444 -19.0796 -19.0681 -10.2234 -10.2233 -10.2193 -10.1828 -10.1820
-10.1816 -10.1804 -10.1799 -10.1793 -10.1788 -10.1783 -10.1771 -10.1760
-10.1757 -10.1752 -10.1751 -10.1721 -10.1671 -10.1662 -10.1658 -10.1658
-10.1648 -10.1647 -10.1646 -10.1637  -1.0624  -0.9891  -0.9847  -0.8679
 -0.8621  -0.8360  -0.8155  -0.7957  -0.7718  -0.7558  -0.7495  -0.7473
 -0.7429  -0.7212  -0.6845  -0.6592  -0.6305  -0.6195  -0.6141  -0.6113
 -0.6024  -0.5850  -0.5742  -0.5713  -0.5533  -0.5403  -0.5087  -0.5034
 -0.4877  -0.4804  -0.4716  -0.4659  -0.4590  -0.4541  -0.4447  -0.4407
 -0.4361  -0.4335  -0.4298  -0.4292  -0.4212  -0.4129  -0.4073  -0.4020
 -0.3979  -0.3936  -0.3831  -0.3804  -0.3799  -0.3770  -0.3711  -0.3638
 -0.3565  -0.3501  -0.3486  -0.3464  -0.3450  -0.3385  -0.3363  -0.3328
 -0.3306  -0.3259  -0.3194  -0.3048  -0.3033  -0.2593  -0.2571  -0.2531
 -0.2509  -0.2429  -0.2330  -0.2206

          Ground-State Mulliken Net Atomic Charges

     Atom                 Charge (a.u.)    Spin (a.u.)
  --------------------------------------------------------
      1 C                     0.209776       0.073419
      2 C                     0.808443       0.001879
      3 C                     0.739123       0.074617
      4 C                    -0.695407      -0.001617
      5 C                    -1.016704       0.082484
      6 C                    -0.164946      -0.001344
      7 C                    -1.481336       0.151007
      8 C                    -0.664034       0.049941
      9 C                     1.655513       0.042861
     10 C                    -2.166040       0.052683
     11 O                    -0.374194       0.248360
     12 O                    -0.289140       0.209527
     13 O                    -0.135348       0.016332
     14 C                     0.072412       0.009830
     15 H                     0.177533      -0.003755
     16 H                     0.353108      -0.000618
     17 H                     0.337243      -0.005335
     18 H                     0.152305      -0.000104
     19 H                     0.293419      -0.003727
     20 C                    -0.669622      -0.004052
     21 C                    -0.147737       0.006428
     22 C                     0.045302      -0.001873
     23 C                    -1.035811      -0.000440
     24 C                    -0.814673       0.000108
     25 C                    -0.069501       0.000140
     26 C                     1.033180       0.000112
     27 C                    -0.380215      -0.000207
     28 C                     0.642732       0.000267
     29 C                    -0.180914      -0.000015
     30 C                    -0.409827      -0.000168
     31 C                    -0.090574      -0.000027
     32 C                    -0.048223       0.000001
     33 C                    -0.208718       0.000002
     34 H                     0.133657       0.002900
     35 H                     0.215084      -0.001346
     36 H                     0.059731       0.002156
     37 H                    -0.003671      -0.001312
     38 H                     0.188381       0.000984
     39 H                     0.170779      -0.000135
     40 H                     0.226173      -0.000040
     41 H                     0.265653       0.000045
     42 H                     0.230464      -0.000018
     43 H                     0.238227       0.000025
     44 H                     0.229781       0.000018
     45 H                     0.109972       0.000002
     46 H                     0.178354       0.000008
     47 H                     0.153509      -0.000007
     48 H                     0.094348       0.000001
     49 H                     0.122680       0.000000
     50 H                     0.222134       0.000001
     51 H                     0.236329       0.000004
     52 H                     0.122949      -0.000001
     53 H                     0.097460      -0.000000
     54 H                     0.230879      -0.000000
  --------------------------------------------------------
  Sum of atomic charges =    -1.000000

                    Cartesian Multipole Moments
 -----------------------------------------------------------------
    Charge (ESU x 10^10)
                -4.8032
    Dipole Moment (Debye)
         X      19.0935      Y       3.3630      Z       3.6225
       Tot      19.7229
    Quadrupole Moments (Debye-Ang)
        XX    -265.0827     XY      -0.8756     YY    -181.4732
        XZ      -7.4602     YZ      -5.1604     ZZ    -188.2003

 Total job time:  4291.35s(wall), 27939.14s(cpu)
        *  Thank you very much for using Q-Chem.  Have a nice day.  *
