 Q-Chem 5.4, Q-Chem, Inc., Pleasanton, CA (2021)
 Q-Chem 5.4.0 for Intel X86 EM64T Linux

User input:
--------------------------------------------------------------
$molecule
0 1
C                  2.1431220000      3.8561910000      5.4456060000
C                  3.0813790000      3.2315970000      4.4830000000
C                  2.6721720000      2.2998280000      3.6142060000
C                  1.2527630000      1.8661310000      3.5802720000
C                  0.3156580000      2.5054340000      4.5343540000
C                  0.7042010000      3.4390900000      5.4193600000
O                  2.5449180000      4.6933030000      6.2433580000
O                  0.8717500000      1.0165150000      2.7917400000
C                 -0.2113410000      4.1393430000      6.4147940000
C                 -1.6596670000      3.6795730000      6.3825760000
O                  0.2659640000      3.9361990000      7.7467590000
H                  4.1088730000      3.5735100000      4.5406190000
H                  3.3381970000      1.8210300000      2.9050770000
H                 -0.7103490000      2.1639110000      4.4636780000
H                 -0.1749360000      5.2124930000      6.1773880000
H                 -2.1157420000      3.8578090000      5.4060960000
H                 -2.2212490000      4.2399560000      7.1312970000
H                 -1.7378900000      2.6174780000      6.6269220000
H                  1.1239390000      4.3757990000      7.8119090000
$end
$rem
MAX_SCF_CYCLES=200
BASIS  =  6-311++G(d,p)
GUI  =  2
JOB_TYPE  =  SP
METHOD  =  B3LYP
SOLVENT_METHOD = COSMO
$end
$solvent
dielectric 37.219
opticaldielectric 1.43
$end

--------------------------------------------------------------

             Standard Nuclear Orientation (Angstroms)
    I     Atom           X                Y                Z
 ----------------------------------------------------------------
    1      C      -0.0590372722    -1.3222546249    -0.1446133495
    2      C      -1.5115829380    -1.6009862699    -0.0472792184
    3      C      -2.4064342308    -0.6117556915     0.0581289369
    4      C      -1.9699624914     0.8071485575     0.0711545291
    5      C      -0.5175636321     1.0806297155    -0.0423892039
    6      C       0.4000239953     0.1040755881    -0.1438278138
    7      O       0.7419236521    -2.2448182235    -0.2217028034
    8      O      -2.7794751618     1.7149741600     0.1678131070
    9      C       1.9017290112     0.3213593730    -0.2747096999
   10      C       2.3409231067     1.7761443927    -0.2467142062
   11      O       2.5880666358    -0.3467438955     0.7863261132
   12      H      -1.7896898357    -2.6490819193    -0.0582533634
   13      H      -3.4733854340    -0.7872451306     0.1388714344
   14      H      -0.2498059990     2.1306866749    -0.0392823647
   15      H       2.2028959333    -0.1212200339    -1.2353135772
   16      H       1.9009109759     2.3441622668    -1.0695329513
   17      H       3.4267048888     1.8156311232    -0.3442093596
   18      H       2.0696333841     2.2479417603     0.7007448825
   19      H       2.4400417849    -1.2943373119     0.6689841180
 ----------------------------------------------------------------

    9    -535.4588931571      6.97e-06  Convergence criterion met
 Total energy in the final basis set =     -535.4588931571
    5    -535.4761028509      3.91e-06  Convergence criterion met
 Total energy in the final basis set =     -535.4761028509

                    Orbital Energies (a.u.)
 --------------------------------------------------------------

 Alpha MOs
 -- Occupied --
-19.1530 -19.1487 -19.1338 -10.2961 -10.2920 -10.2432 -10.2219 -10.2145
-10.2136 -10.2119 -10.1651  -1.0843  -1.0783  -1.0372  -0.8704  -0.8115
 -0.7544  -0.7154  -0.6632  -0.6173  -0.5963  -0.5402  -0.5249  -0.5173
 -0.4930  -0.4776  -0.4569  -0.4531  -0.4420  -0.4290  -0.4220  -0.4037
 -0.3942  -0.3817  -0.3607  -0.3185  -0.3057  -0.3021  -0.2987  -0.2799

          Ground-State Mulliken Net Atomic Charges

     Atom                 Charge (a.u.)
  ----------------------------------------
      1 C                    -0.668458
      2 C                     0.187232
      3 C                     0.142078
      4 C                    -0.331754
      5 C                    -1.265913
      6 C                     1.733333
      7 O                    -0.285735
      8 O                    -0.304547
      9 C                    -0.210625
     10 C                    -0.567367
     11 O                    -0.284183
     12 H                     0.263494
     13 H                     0.266914
     14 H                     0.240022
     15 H                     0.239711
     16 H                     0.167351
     17 H                     0.187393
     18 H                     0.175628
     19 H                     0.315427
  ----------------------------------------
  Sum of atomic charges =     0.000000

                    Cartesian Multipole Moments
 -----------------------------------------------------------------
    Charge (ESU x 10^10)
                 0.0000
    Dipole Moment (Debye)
         X      -0.8650      Y      -0.8810      Z      -1.8582
       Tot       2.2309
    Quadrupole Moments (Debye-Ang)
        XX     -72.6992     XY      14.1888     YY     -68.2389
        XZ      -4.0159     YZ      -2.3665     ZZ     -65.4748

 Total job time:  43.59s(wall), 140.53s(cpu)
        *  Thank you very much for using Q-Chem.  Have a nice day.  *
