 Gaussian 16, Revision A.03,
 Gaussian 16:  ES64L-G16RevA.03 25-Dec-2016

 ----------------------------------------------------------------
 #P UB3LYP/6-311++G(d,p) SCRF=(PCM,Solvent=n,n-DiMethylFormamide)
 ----------------------------------------------------------------

 ------------------
 Quinone PCM in DMF
 ------------------
 Symbolic Z-matrix:
 Charge =  0 Multiplicity = 1

                         Standard orientation:
 ---------------------------------------------------------------------
 Center     Atomic      Atomic             Coordinates (Angstroms)
 Number     Number       Type             X           Y           Z
 ---------------------------------------------------------------------
      1          6           0       -0.305058    1.411267    0.008168
      2          6           0       -1.418526    0.331860   -0.097899
      3          6           0       -1.062980   -0.997726   -0.098613
      4          6           0        0.305041   -1.411172   -0.008428
      5          6           0        1.418504   -0.331769    0.097703
      6          6           0        1.062961    0.997822    0.098367
      7          8           0        0.675714   -2.580212   -0.012403
      8          8           0       -0.675716    2.580313    0.012069
      9         35           0        2.301904    2.460766    0.227510
     10         35           0       -2.301929   -2.460652   -0.227868
     11          7           0        2.605262   -0.934307    0.182970
     12          7           0       -2.605305    0.934371   -0.183107
     13          6           0       -3.987631    0.443328   -0.215325
     14          6           0       -4.541802    0.240474    1.207000
     15          6           0       -6.015465   -0.189346    1.171131
     16          6           0       -6.875780    0.804069    0.378702
     17          6           0       -6.317288    1.019900   -1.034396
     18          6           0       -4.842526    1.446685   -1.004441
     19          6           0        3.987607   -0.443327    0.215379
     20          6           0        4.542108   -0.240859   -1.206873
     21          6           0        4.842274   -1.446525    1.004944
     22          6           0        6.317049   -1.019801    1.035118
     23          6           0        6.015785    0.188894   -1.170788
     24          6           0        6.875870   -0.804361   -0.377911
     25          1           0        2.489373   -1.947949    0.131653
     26          1           0       -2.489449    1.948010   -0.131669
     27          1           0       -3.998837   -0.511642   -0.737738
     28          1           0       -4.442078    1.182745    1.760616
     29          1           0       -3.936544   -0.505037    1.729321
     30          1           0       -6.393174   -0.291717    2.192971
     31          1           0       -6.090442   -1.183211    0.712057
     32          1           0       -6.901391    1.764847    0.908824
     33          1           0       -7.910061    0.450291    0.324564
     34          1           0       -6.905665    1.772764   -1.567529
     35          1           0       -6.411532    0.089318   -1.608146
     36          1           0       -4.759205    2.436184   -0.534202
     37          1           0       -4.449311    1.542911   -2.020987
     38          1           0        3.998734    0.511773    0.737551
     39          1           0        3.936999    0.504550   -1.729513
     40          1           0        4.442460   -1.183263   -1.760278
     41          1           0        4.759012   -2.436140    0.534941
     42          1           0        4.448826   -1.542471    2.021424
     43          1           0        6.905272   -1.772553    1.568579
     44          1           0        6.411209   -0.089074    1.608647
     45          1           0        6.090712    1.182872   -0.711954
     46          1           0        6.393727    0.290981   -2.192570
     47          1           0        7.910158   -0.450624   -0.323632
     48          1           0        6.901550   -1.765278   -0.907779
 ---------------------------------------------------------------------

 SCF Done:  E(UB3LYP) =  -6108.89891781     A.U. after   16 cycles

 The electronic state is 1-A.
 Alpha  occ. eigenvalues -- -482.83832-482.83832 -62.49109 -62.49109 -56.31153
 Alpha  occ. eigenvalues --  -56.31153 -56.30757 -56.30757 -56.30737 -56.30737
 Alpha  occ. eigenvalues --  -19.13012 -19.13012 -14.36874 -14.36873 -10.28862
 Alpha  occ. eigenvalues --  -10.28861 -10.27104 -10.27103 -10.23402 -10.23401
 Alpha  occ. eigenvalues --  -10.22180 -10.22180 -10.17472 -10.17472 -10.17199
 Alpha  occ. eigenvalues --  -10.17199 -10.16864 -10.16864 -10.16780 -10.16780
 Alpha  occ. eigenvalues --  -10.16510 -10.16510  -8.70085  -8.70085  -6.53243
 Alpha  occ. eigenvalues --   -6.53243  -6.51932  -6.51932  -6.51888  -6.51888
 Alpha  occ. eigenvalues --   -2.64331  -2.64331  -2.63962  -2.63961  -2.63930
 Alpha  occ. eigenvalues --   -2.63930  -2.62889  -2.62889  -2.62888  -2.62887
 Alpha  occ. eigenvalues --   -1.07375  -1.07094  -0.97657  -0.97634  -0.86727
 Alpha  occ. eigenvalues --   -0.84482  -0.83476  -0.82716  -0.78931  -0.76910
 Alpha  occ. eigenvalues --   -0.75090  -0.75033  -0.74825  -0.72093  -0.69001
 Alpha  occ. eigenvalues --   -0.64830  -0.63231  -0.62996  -0.62008  -0.61424
 Alpha  occ. eigenvalues --   -0.58168  -0.57884  -0.56594  -0.54908  -0.53872
 Alpha  occ. eigenvalues --   -0.53828  -0.50090  -0.48732  -0.47357  -0.47043
 Alpha  occ. eigenvalues --   -0.46714  -0.45798  -0.45236  -0.45117  -0.44656
 Alpha  occ. eigenvalues --   -0.44413  -0.44149  -0.43008  -0.42963  -0.41556
 Alpha  occ. eigenvalues --   -0.40815  -0.40769  -0.40024  -0.38867  -0.38765
 Alpha  occ. eigenvalues --   -0.38736  -0.37261  -0.36562  -0.35885  -0.35260
 Alpha  occ. eigenvalues --   -0.35123  -0.34714  -0.32967  -0.32888  -0.32679
 Alpha  occ. eigenvalues --   -0.32318  -0.32234  -0.32115  -0.30661  -0.30369
 Alpha  occ. eigenvalues --   -0.30297  -0.30034  -0.29252  -0.28385  -0.24995
 Alpha  occ. eigenvalues --   -0.22400
 Alpha virt. eigenvalues --   -0.11422  -0.02758  -0.02383  -0.00713  -0.00439
 Alpha virt. eigenvalues --   -0.00339   0.00364   0.00413   0.00599   0.01006
 Alpha virt. eigenvalues --    0.01044   0.01368   0.02039   0.02667   0.03260

  Beta  occ. eigenvalues -- -482.83832-482.83832 -62.49109 -62.49109 -56.31153
  Beta  occ. eigenvalues --  -56.31153 -56.30757 -56.30757 -56.30737 -56.30737
  Beta  occ. eigenvalues --  -19.13012 -19.13012 -14.36874 -14.36873 -10.28862
  Beta  occ. eigenvalues --  -10.28861 -10.27104 -10.27103 -10.23402 -10.23401
  Beta  occ. eigenvalues --  -10.22180 -10.22180 -10.17472 -10.17472 -10.17199
  Beta  occ. eigenvalues --  -10.17199 -10.16864 -10.16864 -10.16780 -10.16780
  Beta  occ. eigenvalues --  -10.16510 -10.16510  -8.70085  -8.70085  -6.53243
  Beta  occ. eigenvalues --   -6.53243  -6.51932  -6.51932  -6.51888  -6.51888
  Beta  occ. eigenvalues --   -2.64331  -2.64331  -2.63962  -2.63961  -2.63930
  Beta  occ. eigenvalues --   -2.63930  -2.62889  -2.62889  -2.62888  -2.62887
  Beta  occ. eigenvalues --   -1.07375  -1.07094  -0.97657  -0.97634  -0.86727
  Beta  occ. eigenvalues --   -0.84482  -0.83476  -0.82716  -0.78931  -0.76910
  Beta  occ. eigenvalues --   -0.75090  -0.75033  -0.74825  -0.72093  -0.69001
  Beta  occ. eigenvalues --   -0.64830  -0.63231  -0.62996  -0.62008  -0.61424
  Beta  occ. eigenvalues --   -0.58168  -0.57884  -0.56594  -0.54908  -0.53872
  Beta  occ. eigenvalues --   -0.53828  -0.50090  -0.48732  -0.47357  -0.47043
  Beta  occ. eigenvalues --   -0.46714  -0.45798  -0.45236  -0.45117  -0.44656
  Beta  occ. eigenvalues --   -0.44413  -0.44149  -0.43008  -0.42963  -0.41556
  Beta  occ. eigenvalues --   -0.40815  -0.40769  -0.40024  -0.38867  -0.38765
  Beta  occ. eigenvalues --   -0.38736  -0.37261  -0.36562  -0.35885  -0.35260
  Beta  occ. eigenvalues --   -0.35123  -0.34714  -0.32967  -0.32888  -0.32679
  Beta  occ. eigenvalues --   -0.32318  -0.32234  -0.32115  -0.30661  -0.30369
  Beta  occ. eigenvalues --   -0.30297  -0.30034  -0.29252  -0.28385  -0.24995
  Beta  occ. eigenvalues --   -0.22400
  Beta virt. eigenvalues --   -0.11422  -0.02758  -0.02383  -0.00713  -0.00439
  Beta virt. eigenvalues --   -0.00339   0.00364   0.00413   0.00599   0.01006
  Beta virt. eigenvalues --    0.01044   0.01368   0.02039   0.02667   0.03260

 Mulliken charges and spin densities:
               1          2
     1  C   -0.352366   0.000000
     2  C   -0.307140  -0.000000
     3  C    0.384620  -0.000000
     4  C   -0.352015   0.000000
     5  C   -0.307216   0.000000
     6  C    0.384420  -0.000000
     7  O   -0.277531  -0.000000
     8  O   -0.277523  -0.000000
     9  Br  -0.071002  -0.000000
    10  Br  -0.070980  -0.000000
    11  N    0.298709   0.000000
    12  N    0.298631   0.000000
    13  C   -0.359211  -0.000000
    14  C   -0.009419   0.000000
    15  C   -0.355596  -0.000000
    16  C   -0.388109   0.000000
    17  C   -0.444027  -0.000000
    18  C   -0.213813   0.000000
    19  C   -0.359179  -0.000000
    20  C   -0.009509   0.000000
    21  C   -0.213733  -0.000000
    22  C   -0.443997  -0.000000
    23  C   -0.355529  -0.000000
    24  C   -0.388133   0.000000
    25  H    0.362889   0.000000
    26  H    0.362903  -0.000000
    27  H    0.098215   0.000000
    28  H    0.172297  -0.000000
    29  H    0.154673  -0.000000
    30  H    0.180139   0.000000
    31  H    0.146940   0.000000
    32  H    0.132983  -0.000000
    33  H    0.177980  -0.000000
    34  H    0.192223   0.000000
    35  H    0.148357   0.000000
    36  H    0.137924  -0.000000
    37  H    0.190215  -0.000000
    38  H    0.098148   0.000000
    39  H    0.154704   0.000000
    40  H    0.172292   0.000000
    41  H    0.137929  -0.000000
    42  H    0.190215  -0.000000
    43  H    0.192216   0.000000
    44  H    0.148359   0.000000
    45  H    0.146939  -0.000000
    46  H    0.180139  -0.000000
    47  H    0.177981   0.000000
    48  H    0.132985  -0.000000
 Sum of Mulliken charges =  -0.00000   0.00000

 Dipole moment (field-independent basis, Debye):
    X=             -0.0000    Y=             -0.0003    Z=              0.0010  Tot=              0.0010
 Quadrupole moment (field-independent basis, Debye-Ang):
   XX=           -123.3191   YY=           -192.1529   ZZ=           -169.9254
   XY=            -10.0387   XZ=              1.0561   YZ=             -1.0270

 Normal termination of Gaussian 16 at Sun Jan 21 07:01:42 2024.
