 Gaussian 16, Revision A.03,
 Gaussian 16:  ES64L-G16RevA.03 25-Dec-2016

 ----------------------------------------------------------------------
 #P UB3LYP/6-311++G(d,p) nosym opt freq SCRF=(PCM,Solvent=n,n-DiMethylF
 ormamide)
 ----------------------------------------------------------------------

 --------
 Oxidized
 --------
 Symbolic Z-matrix:
 Charge =  0 Multiplicity = 1

 SCF Done:  E(UB3LYP) =  -669.270320981     A.U. after   16 cycles
 SCF Done:  E(UB3LYP) =  -669.271105031     A.U. after   13 cycles
 SCF Done:  E(UB3LYP) =  -669.271094568     A.U. after   14 cycles
 SCF Done:  E(UB3LYP) =  -669.271787985     A.U. after   13 cycles
 SCF Done:  E(UB3LYP) =  -669.271907934     A.U. after   13 cycles
 SCF Done:  E(UB3LYP) =  -669.271590566     A.U. after   14 cycles
 SCF Done:  E(UB3LYP) =  -669.272186213     A.U. after   13 cycles
 SCF Done:  E(UB3LYP) =  -669.272224967     A.U. after   13 cycles
 SCF Done:  E(UB3LYP) =  -669.272222309     A.U. after   12 cycles
 SCF Done:  E(UB3LYP) =  -669.272247715     A.U. after   12 cycles
 SCF Done:  E(UB3LYP) =  -669.272248607     A.U. after   10 cycles
 SCF Done:  E(UB3LYP) =  -669.272248683     A.U. after    9 cycles
 Optimization completed.
    -- Stationary point found.
 Normal termination of Gaussian 16 at Sun Feb 11 16:09:34 2024.

 ----------------------------------------------------------------------
 #P Geom=AllCheck Guess=TCheck SCRF=Check GenChk UB3LYP/6-311++G(d,p) F
 req
 ----------------------------------------------------------------------

 Structure from the checkpoint file:  "323.chk"
 --------
 Oxidized
 --------
 Charge =  0 Multiplicity = 1

                          Input orientation:
 ---------------------------------------------------------------------
 Center     Atomic      Atomic             Coordinates (Angstroms)
 Number     Number       Type             X           Y           Z
 ---------------------------------------------------------------------
      1          6           0       -1.666542    2.863282   -0.522503
      2          6           0       -2.867848    2.161779   -0.540244
      3          6           0       -2.845581    0.772624   -0.446575
      4          6           0       -0.451993    2.188895   -0.378663
      5          6           0       -0.426315    0.787857   -0.204659
      6          6           0       -1.638081    0.092910   -0.285252
      7          6           0        0.810976    2.949037   -0.542056
      8          6           0        2.099571    2.129019   -0.769432
      9          6           0        2.043346    0.738749   -0.467242
     10          6           0        0.885170    0.091726   -0.061492
     11          8           0        0.854234    4.165582   -0.537696
     12          8           0        3.126081    2.729600   -1.107181
     13          1           0       -1.649745    3.938418   -0.651352
     14          1           0       -3.806916    2.689004   -0.657575
     15          1           0       -3.768356    0.207564   -0.504731
     16          1           0       -1.653566   -0.986470   -0.246335
     17          1           0        2.995319    0.226896   -0.444058
     18          7           0        0.915617   -1.192717    0.382639
     19          6           0        2.120648   -2.000742    0.197617
     20          6           0        0.044784   -1.697207    1.455383
     21          1           0        2.507487   -1.879438   -0.813351
     22          1           0        1.852469   -3.046934    0.343097
     23          1           0        2.903450   -1.738997    0.919400
     24          1           0       -0.653473   -0.936625    1.788542
     25          1           0        0.674070   -1.974312    2.306474
     26          1           0       -0.504527   -2.583686    1.129287
 ---------------------------------------------------------------------

 SCF Done:  E(UB3LYP) =  -669.272248683     A.U. after    1 cycles

 Alpha  occ. eigenvalues --  -19.13804 -19.10965 -14.37361 -10.27863 -10.26105
 Alpha  occ. eigenvalues --  -10.25983 -10.22100 -10.21403 -10.21091 -10.20745
 Alpha  occ. eigenvalues --  -10.20089 -10.20023 -10.20005 -10.19682 -10.17636
 Alpha  occ. eigenvalues --   -1.07249  -1.03061  -0.98522  -0.89217  -0.82799
 Alpha  occ. eigenvalues --   -0.78547  -0.76818  -0.73409  -0.72844  -0.66859
 Alpha  occ. eigenvalues --   -0.64344  -0.61901  -0.58928  -0.54692  -0.53268
 Alpha  occ. eigenvalues --   -0.52520  -0.49164  -0.49000  -0.47793  -0.46600
 Alpha  occ. eigenvalues --   -0.45876  -0.44863  -0.44557  -0.43371  -0.42412
 Alpha  occ. eigenvalues --   -0.42234  -0.41459  -0.39892  -0.39223  -0.38412
 Alpha  occ. eigenvalues --   -0.37696  -0.36882  -0.34052  -0.30287  -0.28092
 Alpha  occ. eigenvalues --   -0.27505  -0.25487  -0.23156
 Alpha virt. eigenvalues --   -0.11839  -0.05537  -0.02204  -0.00947   0.00186
 Alpha virt. eigenvalues --    0.00839   0.01081   0.01913   0.02330   0.02678
 Alpha virt. eigenvalues --    0.03498   0.03917   0.04507   0.04815   0.04942

  Beta  occ. eigenvalues --  -19.13804 -19.10965 -14.37361 -10.27863 -10.26105
  Beta  occ. eigenvalues --  -10.25983 -10.22100 -10.21403 -10.21091 -10.20745
  Beta  occ. eigenvalues --  -10.20089 -10.20023 -10.20005 -10.19682 -10.17636
  Beta  occ. eigenvalues --   -1.07249  -1.03061  -0.98522  -0.89217  -0.82799
  Beta  occ. eigenvalues --   -0.78547  -0.76818  -0.73409  -0.72844  -0.66859
  Beta  occ. eigenvalues --   -0.64344  -0.61901  -0.58928  -0.54692  -0.53268
  Beta  occ. eigenvalues --   -0.52520  -0.49164  -0.49000  -0.47793  -0.46600
  Beta  occ. eigenvalues --   -0.45876  -0.44863  -0.44557  -0.43371  -0.42412
  Beta  occ. eigenvalues --   -0.42234  -0.41459  -0.39892  -0.39223  -0.38412
  Beta  occ. eigenvalues --   -0.37696  -0.36882  -0.34052  -0.30287  -0.28092
  Beta  occ. eigenvalues --   -0.27505  -0.25487  -0.23156
  Beta virt. eigenvalues --   -0.11839  -0.05537  -0.02204  -0.00947   0.00186
  Beta virt. eigenvalues --    0.00839   0.01081   0.01913   0.02330   0.02678
  Beta virt. eigenvalues --    0.03498   0.03917   0.04507   0.04815   0.04942

 Mulliken charges and spin densities:
               1          2
     1  C    0.093401  -0.000000
     2  C   -0.536255  -0.000000
     3  C   -0.026020   0.000000
     4  C    0.411576   0.000000
     5  C    0.251811   0.000000
     6  C    0.019987  -0.000000
     7  C   -0.152783   0.000000
     8  C   -0.089679   0.000000
     9  C   -0.217420   0.000000
    10  C   -0.541575  -0.000000
    11  O   -0.300817  -0.000000
    12  O   -0.408689   0.000000
    13  H    0.200809  -0.000000
    14  H    0.203339   0.000000
    15  H    0.217588   0.000000
    16  H    0.190263  -0.000000
    17  H    0.202279   0.000000
    18  N    0.212884   0.000000
    19  C   -0.394082   0.000000
    20  C   -0.440327   0.000000
    21  H    0.172587  -0.000000
    22  H    0.182425  -0.000000
    23  H    0.206914  -0.000000
    24  H    0.150621  -0.000000
    25  H    0.173202   0.000000
    26  H    0.217960   0.000000
 Sum of Mulliken charges =  -0.00000  -0.00000

 Dipole moment (field-independent basis, Debye):
    X=             -7.1641    Y=            -11.3317    Z=              3.5323  Tot=             13.8639
 Quadrupole moment (field-independent basis, Debye-Ang):
   XX=            -93.4490   YY=           -113.0227   ZZ=            -89.6398
   XY=            -29.5963   XZ=              9.8788   YZ=              4.2246

  Exact polarizability: 277.408  27.299 299.677 -12.697 -44.945 134.039
 Approx polarizability: 316.088  52.936 365.806 -18.613 -52.667 155.022

                      1                      2                      3
                      A                      A                      A
 Frequencies --     44.9300                79.7116               106.6300
 Red. masses --      8.3434                 3.0583                 3.4190
 Frc consts  --      0.0099                 0.0114                 0.0229
 IR Inten    --      0.5476                11.4504                 2.5045

                      4                      5                      6
                      A                      A                      A
 Frequencies --    131.5999               165.2345               184.1180
 Red. masses --      4.4043                 2.0208                 2.7383
 Frc consts  --      0.0449                 0.0325                 0.0547
 IR Inten    --      2.3623                 7.1578                19.4011

                      7                      8                      9
                      A                      A                      A
 Frequencies --    235.4016               263.7034               274.7126
 Red. masses --      1.3829                 1.7529                 3.8535
 Frc consts  --      0.0451                 0.0718                 0.1713
 IR Inten    --      2.4282                 7.2688                33.4541

                     10                     11                     12
                      A                      A                      A
 Frequencies --    284.3627               345.2348               368.0531
 Red. masses --      3.4616                 4.0079                12.9102
 Frc consts  --      0.1649                 0.2814                 1.0304
 IR Inten    --     12.7319                 6.6956                 8.9343

                     13                     14                     15
                      A                      A                      A
 Frequencies --    388.5593               404.6052               442.8464
 Red. masses --      3.8756                 4.1360                 6.1381
 Frc consts  --      0.3448                 0.3989                 0.7092
 IR Inten    --      2.2302                 0.3104                16.1975

                     16                     17                     18
                      A                      A                      A
 Frequencies --    464.9784               479.7074               508.2541
 Red. masses --      4.2158                 4.9741                 3.9938
 Frc consts  --      0.5370                 0.6744                 0.6079
 IR Inten    --      2.7853                 8.4989                12.4799

                     19                     20                     21
                      A                      A                      A
 Frequencies --    534.5439               642.9983               658.8862
 Red. masses --      4.2320                 5.6145                 3.5587
 Frc consts  --      0.7125                 1.3677                 0.9103
 IR Inten    --      6.6703                 2.9886                 8.3254

                     22                     23                     24
                      A                      A                      A
 Frequencies --    691.9406               715.9620               743.9734
 Red. masses --      5.8645                 6.8950                 3.0347
 Frc consts  --      1.6543                 2.0824                 0.9896
 IR Inten    --     14.4339                 9.5287                37.4145

                     25                     26                     27
                      A                      A                      A
 Frequencies --    777.6932               803.3969               812.2976
 Red. masses --      1.8777                 3.8326                 2.0903
 Frc consts  --      0.6691                 1.4575                 0.8126
 IR Inten    --     78.3914                14.5833                23.6655

                     28                     29                     30
                      A                      A                      A
 Frequencies --    843.5053               909.4247               915.1374
 Red. masses --      2.5449                 1.9697                 2.1381
 Frc consts  --      1.0668                 0.9598                 1.0550
 IR Inten    --     52.3425                 3.5736                18.9110

                     31                     32                     33
                      A                      A                      A
 Frequencies --    978.2951               995.0920              1018.8802
 Red. masses --      6.7486                 1.3943                 1.3270
 Frc consts  --      3.8054                 0.8135                 0.8116
 IR Inten    --     59.9455                 5.0434                 0.4640

                     34                     35                     36
                      A                      A                      A
 Frequencies --   1064.8065              1069.6455              1094.5263
 Red. masses --      2.3808                 1.6547                 2.4022
 Frc consts  --      1.5904                 1.1154                 1.6955
 IR Inten    --      1.9487                26.0143               105.6430

                     37                     38                     39
                      A                      A                      A
 Frequencies --   1118.1442              1139.7433              1151.1752
 Red. masses --      1.2405                 1.6255                 1.4132
 Frc consts  --      0.9138                 1.2441                 1.1034
 IR Inten    --      3.8659                 6.8213               160.5340

                     40                     41                     42
                      A                      A                      A
 Frequencies --   1185.4351              1198.3073              1223.4945
 Red. masses --      1.1296                 1.9131                 3.4104
 Frc consts  --      0.9352                 1.6186                 3.0079
 IR Inten    --      1.2854                79.7348                38.8859

                     43                     44                     45
                      A                      A                      A
 Frequencies --   1241.4807              1284.4801              1309.7721
 Red. masses --      2.5906                 1.8778                 2.3928
 Frc consts  --      2.3525                 1.8253                 2.4185
 IR Inten    --     84.3312                48.0496               379.1512

                     46                     47                     48
                      A                      A                      A
 Frequencies --   1342.5132              1374.2241              1419.1035
 Red. masses --      5.3116                 3.3827                 2.4493
 Frc consts  --      5.6405                 3.7638                 2.9062
 IR Inten    --     17.6786                58.6792               274.1819

                     49                     50                     51
                      A                      A                      A
 Frequencies --   1449.0084              1464.3731              1477.8818
 Red. masses --      1.1375                 1.6788                 1.7612
 Frc consts  --      1.4072                 2.1210                 2.2664
 IR Inten    --      0.0570               255.3760                 3.6345

                     52                     53                     54
                      A                      A                      A
 Frequencies --   1487.9536              1490.9134              1500.5110
 Red. masses --      1.0485                 1.0804                 1.0851
 Frc consts  --      1.3677                 1.4150                 1.4395
 IR Inten    --     37.9204                20.9603                10.4659

                     55                     56                     57
                      A                      A                      A
 Frequencies --   1509.7803              1514.6563              1563.6166
 Red. masses --      2.1825                 1.4559                 3.0096
 Frc consts  --      2.9311                 1.9680                 4.3353
 IR Inten    --     43.3363                24.3548              1264.1110

                     58                     59                     60
                      A                      A                      A
 Frequencies --   1615.7848              1623.5484              1636.2628
 Red. masses --      6.2564                 5.7448                10.3821
 Frc consts  --      9.6237                 8.9219                16.3773
 IR Inten    --    307.1248                10.8212               867.7582

                     61                     62                     63
                      A                      A                      A
 Frequencies --   1730.6282              3010.7002              3028.8641
 Red. masses --     12.6591                 1.0475                 1.0402
 Frc consts  --     22.3389                 5.5940                 5.6222
 IR Inten    --    326.0767                53.5370                92.5622

                     64                     65                     66
                      A                      A                      A
 Frequencies --   3081.2872              3099.0147              3136.8240
 Red. masses --      1.1031                 1.0869                 1.1054
 Frc consts  --      6.1705                 6.1503                 6.4085
 IR Inten    --     38.9309                24.1655                11.4656

                     67                     68                     69
                      A                      A                      A
 Frequencies --   3173.7386              3180.5369              3192.3575
 Red. masses --      1.0982                 1.0874                 1.0914
 Frc consts  --      6.5172                 6.4809                 6.5530
 IR Inten    --      9.6910                 3.2316                 8.4136

                     70                     71                     72
                      A                      A                      A
 Frequencies --   3202.4090              3208.6256              3223.5581
 Red. masses --      1.0956                 1.0892                 1.0923
 Frc consts  --      6.6198                 6.6069                 6.6876
 IR Inten    --     15.7212                 3.3671                 5.9093

 - Thermochemistry -
 -------------------
 Temperature   298.150 Kelvin.  Pressure   1.00000 Atm.
 Atom     1 has atomic number  6 and mass  12.00000

 Molecular mass:   201.07898 amu.
 Principal axes and moments of inertia in atomic units:
                           1         2         3
     Eigenvalues --  2465.923962819.720775066.12064
           X           -0.32372   0.94527   0.04083
           Y            0.91737   0.30302   0.25810
           Z           -0.23161  -0.12101   0.96525
 This molecule is an asymmetric top.
 Rotational symmetry number  1.
 Warning -- assumption of classical behavior for rotation
           may cause significant error
 Rotational temperatures (Kelvin)      0.03512     0.03072     0.01710
 Rotational constants (GHZ):           0.73187     0.64004     0.35624
 Zero-point vibrational energy     538525.0 (Joules/Mol)
                                  128.71057 (Kcal/Mol)
 Warning -- explicit consideration of  19 degrees of freedom as
           vibrations may cause significant error
 Vibrational temperatures:     64.64   114.69   153.42   189.34   237.74
          (Kelvin)            264.90   338.69   379.41   395.25   409.13
                              496.72   529.55   559.05   582.14   637.16
                              669.00   690.19   731.26   769.09   925.13
                              947.99   995.55  1030.11  1070.41  1118.93
                             1155.91  1168.72  1213.62  1308.46  1316.68
                             1407.55  1431.72  1465.94  1532.02  1538.98
                             1574.78  1608.76  1639.84  1656.28  1705.58
                             1724.10  1760.34  1786.21  1848.08  1884.47
                             1931.58  1977.20  2041.77  2084.80  2106.91
                             2126.34  2140.83  2145.09  2158.90  2172.24
                             2179.25  2249.70  2324.75  2335.92  2354.22
                             2489.99  4331.73  4357.86  4433.29  4458.79
                             4513.19  4566.30  4576.08  4593.09  4607.55
                             4616.50  4637.98

 Zero-point correction=                           0.205113 (Hartree/Particle)
 Thermal correction to Energy=                    0.217967
 Thermal correction to Enthalpy=                  0.218911
 Thermal correction to Gibbs Free Energy=         0.165846
 Sum of electronic and zero-point Energies=           -669.067135
 Sum of electronic and thermal Energies=              -669.054281
 Sum of electronic and thermal Enthalpies=            -669.053337
 Sum of electronic and thermal Free Energies=         -669.106403

                     E (Thermal)             CV                S
                      KCal/Mol        Cal/Mol-Kelvin    Cal/Mol-Kelvin
 Total                  136.777             49.799            111.687
 Electronic               0.000              0.000              0.000
 Translational            0.889              2.981             41.800
 Rotational               0.889              2.981             31.933
 Vibrational            134.999             43.837             37.954
 Vibration     1          0.595              1.979              5.029
 Vibration     2          0.600              1.963              3.898
 Vibration     3          0.606              1.944              3.329
 Vibration     4          0.612              1.922              2.923
 Vibration     5          0.624              1.885              2.489
 Vibration     6          0.631              1.861              2.286
 Vibration     7          0.655              1.787              1.837
 Vibration     8          0.670              1.739              1.637
 Vibration     9          0.677              1.720              1.566
 Vibration    10          0.683              1.703              1.507
 Vibration    11          0.724              1.585              1.188
 Vibration    12          0.741              1.538              1.088
 Vibration    13          0.757              1.495              1.006
 Vibration    14          0.770              1.460              0.946
 Vibration    15          0.802              1.377              0.818
 Vibration    16          0.822              1.328              0.752
 Vibration    17          0.836              1.295              0.711
 Vibration    18          0.863              1.232              0.638
 Vibration    19          0.890              1.174              0.577

 Optimization completed.
    -- Stationary point found.
 Normal termination of Gaussian 16 at Sun Feb 11 16:50:56 2024.
