 Gaussian 16, Revision A.03,
 Gaussian 16:  ES64L-G16RevA.03 25-Dec-2016

 ----------------------------------------------------------------
 #P UB3LYP/6-311++G(d,p) SCRF=(PCM,Solvent=n,n-DiMethylFormamide)
 ----------------------------------------------------------------

 -------
 Reduced
 -------
 Symbolic Z-matrix:
 Charge = -2 Multiplicity = 1

                         Standard orientation:
 ---------------------------------------------------------------------
 Center     Atomic      Atomic             Coordinates (Angstroms)
 Number     Number       Type             X           Y           Z
 ---------------------------------------------------------------------
      1          6           0        2.656307   -1.013900    0.087037
      2          6           0        2.540167   -2.390686    0.071066
      3          6           0        1.254360   -2.980619   -0.041532
      4          6           0        1.536891   -0.150600    0.011793
      5          6           0        0.216558   -0.755339   -0.040283
      6          6           0        0.133927   -2.168826   -0.097672
      7          6           0        1.762471    1.289533    0.004828
      8          6           0        0.542969    2.152985   -0.045250
      9          6           0       -0.732601    1.481653   -0.074766
     10          6           0       -0.924166    0.106723   -0.063561
     11          8           0        2.925825    1.782270    0.053070
     12          8           0        0.618178    3.414777   -0.042675
     13          1           0        3.627152   -0.532652    0.153723
     14          1           0        3.426848   -3.018772    0.128461
     15          1           0        1.143458   -4.061487   -0.086806
     16          1           0       -0.834920   -2.649366   -0.210057
     17          1           0       -1.587118    2.151163   -0.083544
     18          7           0       -2.219399   -0.475027   -0.162232
     19          6           0       -3.405449    0.281245    0.204308
     20          6           0       -4.669417   -0.557967    0.010735
     21          1           0       -2.239561   -1.390021    0.264127
     22          1           0       -3.458775    1.173588   -0.423045
     23          1           0       -3.364033    0.640472    1.251731
     24          1           0       -4.774307   -0.885008   -1.028511
     25          1           0       -5.564865    0.010805    0.283974
     26          1           0       -4.662219   -1.455109    0.642202
 ---------------------------------------------------------------------

 SCF Done:  E(UB3LYP) =  -669.515425609     A.U. after   20 cycles

 The electronic state is 1-A.
 Alpha  occ. eigenvalues --  -19.01555 -19.01029 -14.29224 -10.18632 -10.16305
 Alpha  occ. eigenvalues --  -10.16213 -10.15562 -10.15538 -10.14824 -10.14160
 Alpha  occ. eigenvalues --  -10.14115 -10.13739 -10.13609 -10.12521 -10.11601
 Alpha  occ. eigenvalues --   -0.94904  -0.92167  -0.90354  -0.82037  -0.76447
 Alpha  occ. eigenvalues --   -0.72907  -0.71398  -0.68729  -0.63446  -0.60573
 Alpha  occ. eigenvalues --   -0.57837  -0.55930  -0.52841  -0.49159  -0.46509
 Alpha  occ. eigenvalues --   -0.46326  -0.44984  -0.42481  -0.41155  -0.39814
 Alpha  occ. eigenvalues --   -0.39233  -0.37880  -0.37603  -0.36597  -0.36157
 Alpha  occ. eigenvalues --   -0.35658  -0.34928  -0.33747  -0.32737  -0.31406
 Alpha  occ. eigenvalues --   -0.30503  -0.29653  -0.27645  -0.22565  -0.22044
 Alpha  occ. eigenvalues --   -0.20601  -0.17812  -0.17507  -0.09770
 Alpha virt. eigenvalues --   -0.00536  -0.00186   0.00746   0.01443   0.02473
 Alpha virt. eigenvalues --    0.02674   0.02780   0.02953   0.04073   0.04871
 Alpha virt. eigenvalues --    0.05557   0.05602   0.06174   0.06438   0.06892

  Beta  occ. eigenvalues --  -19.01555 -19.01029 -14.29224 -10.18632 -10.16305
  Beta  occ. eigenvalues --  -10.16213 -10.15562 -10.15538 -10.14824 -10.14160
  Beta  occ. eigenvalues --  -10.14115 -10.13739 -10.13609 -10.12521 -10.11601
  Beta  occ. eigenvalues --   -0.94904  -0.92167  -0.90354  -0.82037  -0.76447
  Beta  occ. eigenvalues --   -0.72907  -0.71398  -0.68729  -0.63446  -0.60573
  Beta  occ. eigenvalues --   -0.57837  -0.55930  -0.52841  -0.49159  -0.46509
  Beta  occ. eigenvalues --   -0.46326  -0.44984  -0.42481  -0.41155  -0.39814
  Beta  occ. eigenvalues --   -0.39233  -0.37880  -0.37603  -0.36597  -0.36157
  Beta  occ. eigenvalues --   -0.35658  -0.34928  -0.33747  -0.32737  -0.31406
  Beta  occ. eigenvalues --   -0.30503  -0.29653  -0.27645  -0.22565  -0.22044
  Beta  occ. eigenvalues --   -0.20601  -0.17812  -0.17507  -0.09770
  Beta virt. eigenvalues --   -0.00536  -0.00186   0.00746   0.01443   0.02473
  Beta virt. eigenvalues --    0.02674   0.02780   0.02953   0.04073   0.04871
  Beta virt. eigenvalues --    0.05557   0.05602   0.06174   0.06438   0.06892

 Mulliken charges and spin densities:
               1          2
     1  C    0.088591  -0.000000
     2  C   -0.471086   0.000000
     3  C   -0.465324   0.000000
     4  C    0.435554   0.000000
     5  C    0.118957   0.000000
     6  C   -0.203245   0.000000
     7  C   -0.360136  -0.000000
     8  C   -0.284971  -0.000000
     9  C    0.126389  -0.000000
    10  C   -0.464072   0.000000
    11  O   -0.696332  -0.000000
    12  O   -0.679412  -0.000000
    13  H    0.140359   0.000000
    14  H    0.148024   0.000000
    15  H    0.150754   0.000000
    16  H    0.097253  -0.000000
    17  H    0.139395  -0.000000
    18  N   -0.031682  -0.000000
    19  C   -0.087350   0.000000
    20  C   -0.644594   0.000000
    21  H    0.237660  -0.000000
    22  H    0.135560   0.000000
    23  H    0.137135  -0.000000
    24  H    0.146186  -0.000000
    25  H    0.147790  -0.000000
    26  H    0.138598   0.000000
 Sum of Mulliken charges =  -2.00000   0.00000

 Dipole moment (field-independent basis, Debye):
    X=            -15.0075    Y=            -15.6406    Z=              1.0342  Tot=             21.7007
 Quadrupole moment (field-independent basis, Debye-Ang):
   XX=           -131.1748   YY=           -157.2498   ZZ=           -101.9183
   XY=            -21.7180   XZ=             -2.8568   YZ=             -1.1079

 Normal termination of Gaussian 16 at Sat Jan 13 19:20:53 2024.
