 Q-Chem 5.4, Q-Chem, Inc., Pleasanton, CA (2021)
 Q-Chem 5.4.0 for Intel X86 EM64T Linux

User input:
--------------------------------------------------------------
$molecule
0 1
C                 -1.6656700000      2.8687520000     -0.7049980000
C                 -2.8539220000      2.2217990000     -0.3807880000
C                 -2.8243350000      0.8891110000      0.0272830000
C                 -0.4474330000      2.1926290000     -0.6241570000
C                 -0.4153300000      0.8449410000     -0.2118100000
C                 -1.6144870000      0.2033940000      0.1119170000
C                  0.8091860000      2.9116110000     -0.9775670000
C                  2.1410530000      2.1145320000     -0.8713460000
C                  2.0612630000      0.7297200000     -0.4363230000
C                  0.8779510000      0.1363320000     -0.1290450000
O                  0.8225140000      4.0669530000     -1.3350900000
O                  3.1891160000      2.6638740000     -1.1508790000
O                  0.7479060000     -1.1398330000      0.2781690000
C                  1.9176150000     -1.9541470000      0.4060780000
C                  1.5490400000     -3.3289270000      0.8694710000
C                  0.3262700000     -3.7741010000      1.1361130000
H                 -1.6571020000      3.9036400000     -1.0251400000
H                 -3.7969640000      2.7519270000     -0.4454530000
H                 -3.7463050000      0.3786710000      0.2814550000
H                 -1.5956680000     -0.8298620000      0.4287090000
H                  3.0045940000      0.2054710000     -0.3738210000
H                  2.6081560000     -1.4873050000      1.1199900000
H                  2.4304300000     -2.0068620000     -0.5627930000
H                  2.4058860000     -3.9891380000      0.9827870000
H                 -0.5466260000     -3.1422030000      1.0332180000
H                  0.1667540000     -4.7930050000      1.4675290000
$end
$rem
MAX_SCF_CYCLES=200
BASIS  =  6-311++G(d,p)
GUI  =  2
JOB_TYPE  =  SP
METHOD  =  B3LYP
SOLVENT_METHOD = COSMO
$end
$solvent
dielectric 37.219
opticaldielectric 1.43
$end

--------------------------------------------------------------

             Standard Nuclear Orientation (Angstroms)
    I     Atom           X                Y                Z
 ----------------------------------------------------------------
    1      C       2.6341131988     1.4862614291    -0.0001584424
    2      C       2.1843653625     2.8028213430    -0.0001835138
    3      C       0.8149078755     3.0636676926    -0.0000839727
    4      C       1.7241748196     0.4280596052    -0.0000465647
    5      C       0.3389367613     0.6896683166    -0.0000295394
    6      C      -0.1033384248     2.0158477517    -0.0000163477
    7      C       2.2353757917    -0.9717970228     0.0001603044
    8      C       1.1813108493    -2.1161023250     0.0002663973
    9      C      -0.2217817602    -1.7357779437    -0.0002070164
   10      C      -0.6176129336    -0.4357494620    -0.0001288266
   11      O       3.4155350363    -1.2364469269     0.0003918593
   12      O       1.5562485785    -3.2727237282     0.0001571695
   13      O      -1.9006241359    -0.0292838404    -0.0001931827
   14      C      -2.9431633801    -1.0094872970    -0.0006987074
   15      C      -4.2846629777    -0.3454247381    -0.0000668453
   16      C      -4.5219795794     0.9615275196     0.0009057471
   17      H       3.6919001134     1.2525001710    -0.0001862587
   18      H       2.8956517029     3.6205115079    -0.0002769109
   19      H       0.4572792074     4.0870360601    -0.0000990779
   20      H      -1.1643590428     2.2221594890     0.0000372222
   21      H      -0.9270163142    -2.5550831794    -0.0004171965
   22      H      -2.8385534259    -1.6505776565     0.8839020939
   23      H      -2.8387837310    -1.6493705712    -0.8862061294
   24      H      -5.1135508854    -1.0495900776    -0.0004658528
   25      H      -3.7192040089     1.6877376212     0.0013082491
   26      H      -5.5365130626     1.3412233862     0.0012810587
 ----------------------------------------------------------------

    9    -727.2260574069      6.83e-06  Convergence criterion met
 Total energy in the final basis set =     -727.2260574069
    5    -727.2481969111      5.31e-06  Convergence criterion met
 Total energy in the final basis set =     -727.2481969111

                    Orbital Energies (a.u.)
 --------------------------------------------------------------

 Alpha MOs
 -- Occupied --
-19.1922 -19.1469 -19.1327 -10.2874 -10.2851 -10.2790 -10.2450 -10.2188
-10.2089 -10.1997 -10.1988 -10.1982 -10.1953 -10.1884 -10.1877 -10.1702
 -1.1097  -1.0875  -1.0580  -0.8962  -0.8392  -0.8061  -0.7811  -0.7669
 -0.7261  -0.6910  -0.6489  -0.6287  -0.6116  -0.5695  -0.5594  -0.5409
 -0.5265  -0.5015  -0.4939  -0.4803  -0.4699  -0.4643  -0.4587  -0.4580
 -0.4521  -0.4312  -0.4302  -0.4076  -0.4020  -0.3877  -0.3741  -0.3714
 -0.3678  -0.3604  -0.3165  -0.2990  -0.2817  -0.2750  -0.2667  -0.2560

          Ground-State Mulliken Net Atomic Charges

     Atom                 Charge (a.u.)
  ----------------------------------------
      1 C                     0.136633
      2 C                    -0.482065
      3 C                    -0.272993
      4 C                     0.408401
      5 C                     0.289879
      6 C                    -0.114340
      7 C                    -0.454476
      8 C                    -0.060578
      9 C                     0.121955
     10 C                    -0.021991
     11 O                    -0.292305
     12 O                    -0.367193
     13 O                    -0.069425
     14 C                     0.081895
     15 C                    -0.336755
     16 C                    -0.636276
     17 H                     0.209663
     18 H                     0.223278
     19 H                     0.244419
     20 H                     0.131144
     21 H                     0.271982
     22 H                     0.206687
     23 H                     0.206870
     24 H                     0.246165
     25 H                     0.143994
     26 H                     0.185434
  ----------------------------------------
  Sum of atomic charges =     0.000000

                    Cartesian Multipole Moments
 -----------------------------------------------------------------
    Charge (ESU x 10^10)
                 0.0000
    Dipole Moment (Debye)
         X      -7.1929      Y       6.6684      Z      -0.0012
       Tot       9.8085
    Quadrupole Moments (Debye-Ang)
        XX     -94.1079     XY      25.5136     YY     -96.6702
        XZ      -0.0006     YZ       0.0046     ZZ     -95.2894

 Total job time:  69.40s(wall), 300.59s(cpu)
        *  Thank you very much for using Q-Chem.  Have a nice day.  *
