 Q-Chem 5.4, Q-Chem, Inc., Pleasanton, CA (2021)
 Q-Chem 5.4.0 for Intel X86 EM64T Linux

User input:
--------------------------------------------------------------
$molecule
-2 1
C                  1.5166810000      0.9902200000     -3.0847590000
C                  0.2384000000      1.5525320000     -3.4357000000
C                 -0.9467230000      1.0095310000     -3.0017080000
C                 -1.0499390000     -0.1730940000     -2.1763180000
C                  0.1930740000     -0.7870960000     -1.8513170000
O                  2.6066790000      1.5826390000     -3.4002380000
O                 -2.2151290000     -0.6168710000     -1.8108570000
H                  0.2565860000      2.4591800000     -4.0393730000
C                  1.4548680000     -0.2445370000     -2.3060600000
C                  2.7151690000     -0.8605360000     -1.9697320000
C                  3.9460010000     -0.6218510000     -2.8439650000
C                  5.0951240000      0.0285270000     -2.3455760000
C                  4.0216580000     -1.2660210000     -4.0817280000
C                  6.2656520000      0.0190190000     -3.1024470000
C                  6.3345430000     -0.6298640000     -4.3405150000
C                  5.2002350000     -1.2726430000     -4.8296120000
O                  2.9277940000     -1.6671300000     -1.0340450000
C                  5.0175610000      0.7903670000     -1.0476630000
H                  3.1305910000     -1.7543430000     -4.4634900000
H                  7.1435010000      0.5405160000     -2.7231230000
H                  7.2613120000     -0.6258180000     -4.9097310000
H                  5.2281520000     -1.7757270000     -5.7932760000
C                  0.1056190000     -2.0845570000     -1.0822650000
H                 -1.8942770000      1.4750060000     -3.2768030000
H                  0.3828020000     -1.9694950000     -0.0247240000
H                  0.7793640000     -2.8503620000     -1.4810960000
H                 -0.9327820000     -2.4259850000     -1.1264400000
H                  4.2743520000      1.5882240000     -1.1520410000
H                  5.9852980000      1.2351560000     -0.7896190000
H                  4.6919610000      0.1399140000     -0.2314890000
$end

$rem
BASIS  =  6-311++G(d,p)
GUI  =  2
JOB_TYPE  =  SP
METHOD  =  B3LYP
SCF_CONVERGENCE  = 8
SOLVENT_METHOD = sm12
$end

$smx
solvent dimethylformamide
charges CM5
$end

--------------------------------------------------------------

             Standard Nuclear Orientation (Angstroms)
    I     Atom           X                Y                Z
 ----------------------------------------------------------------
    1      C       1.5166810000     0.9902200000    -3.0847590000
    2      C       0.2384000000     1.5525320000    -3.4357000000
    3      C      -0.9467230000     1.0095310000    -3.0017080000
    4      C      -1.0499390000    -0.1730940000    -2.1763180000
    5      C       0.1930740000    -0.7870960000    -1.8513170000
    6      O       2.6066790000     1.5826390000    -3.4002380000
    7      O      -2.2151290000    -0.6168710000    -1.8108570000
    8      H       0.2565860000     2.4591800000    -4.0393730000
    9      C       1.4548680000    -0.2445370000    -2.3060600000
   10      C       2.7151690000    -0.8605360000    -1.9697320000
   11      C       3.9460010000    -0.6218510000    -2.8439650000
   12      C       5.0951240000     0.0285270000    -2.3455760000
   13      C       4.0216580000    -1.2660210000    -4.0817280000
   14      C       6.2656520000     0.0190190000    -3.1024470000
   15      C       6.3345430000    -0.6298640000    -4.3405150000
   16      C       5.2002350000    -1.2726430000    -4.8296120000
   17      O       2.9277940000    -1.6671300000    -1.0340450000
   18      C       5.0175610000     0.7903670000    -1.0476630000
   19      H       3.1305910000    -1.7543430000    -4.4634900000
   20      H       7.1435010000     0.5405160000    -2.7231230000
   21      H       7.2613120000    -0.6258180000    -4.9097310000
   22      H       5.2281520000    -1.7757270000    -5.7932760000
   23      C       0.1056190000    -2.0845570000    -1.0822650000
   24      H      -1.8942770000     1.4750060000    -3.2768030000
   25      H       0.3828020000    -1.9694950000    -0.0247240000
   26      H       0.7793640000    -2.8503620000    -1.4810960000
   27      H      -0.9327820000    -2.4259850000    -1.1264400000
   28      H       4.2743520000     1.5882240000    -1.1520410000
   29      H       5.9852980000     1.2351560000    -0.7896190000
   30      H       4.6919610000     0.1399140000    -0.2314890000
 ----------------------------------------------------------------

   18    -804.6798272669      9.64e-09  Convergence criterion met
 Total energy in the final basis set =     -804.9603141582

                    Orbital Energies (a.u.)
 --------------------------------------------------------------

 Alpha MOs
 -- Occupied --
-19.0816 -19.0384 -19.0197 -10.2333 -10.2014 -10.1840 -10.1821 -10.1819
-10.1794 -10.1787 -10.1773 -10.1755 -10.1668 -10.1584 -10.1532 -10.1516
-10.1470 -10.1466  -1.0045  -0.9581  -0.9323  -0.8610  -0.8003  -0.7766
 -0.7593  -0.7479  -0.7045  -0.6872  -0.6481  -0.6275  -0.6018  -0.5852
 -0.5415  -0.5330  -0.4923  -0.4735  -0.4629  -0.4538  -0.4431  -0.4357
 -0.4205  -0.4189  -0.4115  -0.4085  -0.3941  -0.3890  -0.3781  -0.3686
 -0.3670  -0.3634  -0.3565  -0.3508  -0.3395  -0.3361  -0.3295  -0.3197
 -0.2614  -0.2521  -0.2423  -0.2304  -0.2263  -0.2033  -0.1973  -0.1339

          Ground-State Mulliken Net Atomic Charges

     Atom                 Charge (a.u.)
  ----------------------------------------
      1 C                    -1.100712
      2 C                    -0.481058
      3 C                     0.202950
      4 C                    -1.861306
      5 C                    -0.510506
      6 O                    -0.226379
      7 O                    -0.424389
      8 H                     0.168691
      9 C                    -0.656891
     10 C                    -2.793864
     11 C                    -0.069664
     12 C                     0.370079
     13 C                    -1.451562
     14 C                     2.295737
     15 C                     1.458280
     16 C                     0.804015
     17 O                    -0.216666
     18 C                     0.612121
     19 H                     0.075024
     20 H                     0.324452
     21 H                     0.439306
     22 H                     0.379270
     23 C                    -0.347367
     24 H                     0.136172
     25 H                     0.125370
     26 H                     0.151397
     27 H                     0.095782
     28 H                     0.076376
     29 H                     0.313454
     30 H                     0.111888
  ----------------------------------------
  Sum of atomic charges =    -2.000000

                    Cartesian Multipole Moments
 -----------------------------------------------------------------
    Charge (ESU x 10^10)
                -9.6064
    Dipole Moment (Debye)
         X      -7.3789      Y       1.7807      Z      21.8934
       Tot      23.1719
    Quadrupole Moments (Debye-Ang)
        XX    -187.0192     XY      -0.5213     YY    -137.3721
        XZ      25.2085     YZ      10.8719     ZZ    -176.3646

 Total job time:  896.45s(wall), 6986.25s(cpu)
        *  Thank you very much for using Q-Chem.  Have a nice day.  *
