 Q-Chem 5.4, Q-Chem, Inc., Pleasanton, CA (2021)
 Q-Chem 5.4.0 for Intel X86 EM64T Linux

User input:
--------------------------------------------------------------
$molecule
0 1
C                 -6.3733680000      0.9728590000     -1.7877950000
C                 -6.4883440000      1.2609390000     -3.1442460000
C                 -5.5355660000      0.7782260000     -4.0432480000
C                 -5.3021630000      0.2005070000     -1.3323880000
C                 -4.3420410000     -0.2866430000     -2.2344590000
C                 -4.4663540000      0.0069360000     -3.5912230000
C                 -5.1663740000     -0.1136030000      0.1014350000
C                 -4.0014680000     -0.9373070000      0.5356130000
C                 -3.0680530000     -1.4268420000     -0.3171590000
C                 -3.1854200000     -1.1195520000     -1.7580560000
O                 -5.9532900000      0.2605170000      0.9638300000
O                 -2.3595650000     -1.5365340000     -2.5582610000
O                 -3.9573760000     -1.1639180000      1.8584430000
C                 -1.8971980000     -2.2441130000      0.1502940000
H                 -7.1000560000      1.3357420000     -1.0712660000
H                 -7.3177030000      1.8601620000     -3.5017070000
H                 -5.6268120000      1.0039550000     -5.0996710000
H                 -3.7187050000     -0.3754330000     -4.2749590000
H                 -4.7412050000     -0.7201230000      2.2348030000
C                 -0.6510770000     -1.3816630000      0.4434200000
C                  0.5486420000     -2.2332580000      0.8985670000
C                  1.7798760000     -1.4075900000      1.1957120000
C                  2.6831120000     -1.0665070000      0.1823030000
C                  2.0400490000     -0.9313540000      2.4832300000
C                  3.1594700000     -0.1431520000      2.7466100000
C                  4.0625950000      0.1999730000      1.7360280000
C                  3.8005890000     -0.2795490000      0.4460380000
C                  5.2813520000      1.0523740000      2.0409280000
C                  6.6073210000      0.2988000000      1.7931880000
C                  5.2756530000      2.3936300000      1.2739750000
C                  6.4985460000      3.2553590000      1.6195010000
C                  7.8294030000      1.1618540000      2.1379160000
C                  7.8119340000      2.4976160000      1.3822840000
H                 -1.6499770000     -2.9716310000     -0.6269080000
H                 -2.1789980000     -2.7916310000      1.0534280000
H                 -0.8892200000     -0.6456990000      1.2181430000
H                 -0.3778580000     -0.8214990000     -0.4557990000
H                  0.7785220000     -2.9678560000      0.1188810000
H                  0.2656370000     -2.8020400000      1.7911990000
H                  2.5119350000     -1.4266800000     -0.8278740000
H                  1.3627300000     -1.1834700000      3.2938800000
H                  3.3364280000      0.2076750000      3.7589480000
H                  4.4784690000     -0.0423510000     -0.3672720000
H                  5.2435840000      1.2938020000      3.1117360000
H                  6.6605490000     -0.0001510000      0.7388530000
H                  6.6169640000     -0.6266330000      2.3779610000
H                  4.3514300000      2.9374160000      1.4944630000
H                  5.2675370000      2.1927830000      0.1953760000
H                  6.4413570000      3.5570890000      2.6736970000
H                  6.4815880000      4.1794770000      1.0321810000
H                  8.7495740000      0.6113830000      1.9155020000
H                  7.8392870000      1.3585170000      3.2181290000
H                  7.9287870000      2.3057520000      0.3074760000
H                  8.6654240000      3.1145360000      1.6824150000
$end

$rem
BASIS  =  6-311++G(d,p)
GUI  =  2
JOB_TYPE  =  SP
METHOD  =  B3LYP
SCF_CONVERGENCE  = 8
SOLVENT_METHOD = sm12
$end

$smx
solvent dimethylformamide
charges CM5
$end

--------------------------------------------------------------

             Standard Nuclear Orientation (Angstroms)
    I     Atom           X                Y                Z
 ----------------------------------------------------------------
    1      C      -6.3733680000     0.9728590000    -1.7877950000
    2      C      -6.4883440000     1.2609390000    -3.1442460000
    3      C      -5.5355660000     0.7782260000    -4.0432480000
    4      C      -5.3021630000     0.2005070000    -1.3323880000
    5      C      -4.3420410000    -0.2866430000    -2.2344590000
    6      C      -4.4663540000     0.0069360000    -3.5912230000
    7      C      -5.1663740000    -0.1136030000     0.1014350000
    8      C      -4.0014680000    -0.9373070000     0.5356130000
    9      C      -3.0680530000    -1.4268420000    -0.3171590000
   10      C      -3.1854200000    -1.1195520000    -1.7580560000
   11      O      -5.9532900000     0.2605170000     0.9638300000
   12      O      -2.3595650000    -1.5365340000    -2.5582610000
   13      O      -3.9573760000    -1.1639180000     1.8584430000
   14      C      -1.8971980000    -2.2441130000     0.1502940000
   15      H      -7.1000560000     1.3357420000    -1.0712660000
   16      H      -7.3177030000     1.8601620000    -3.5017070000
   17      H      -5.6268120000     1.0039550000    -5.0996710000
   18      H      -3.7187050000    -0.3754330000    -4.2749590000
   19      H      -4.7412050000    -0.7201230000     2.2348030000
   20      C      -0.6510770000    -1.3816630000     0.4434200000
   21      C       0.5486420000    -2.2332580000     0.8985670000
   22      C       1.7798760000    -1.4075900000     1.1957120000
   23      C       2.6831120000    -1.0665070000     0.1823030000
   24      C       2.0400490000    -0.9313540000     2.4832300000
   25      C       3.1594700000    -0.1431520000     2.7466100000
   26      C       4.0625950000     0.1999730000     1.7360280000
   27      C       3.8005890000    -0.2795490000     0.4460380000
   28      C       5.2813520000     1.0523740000     2.0409280000
   29      C       6.6073210000     0.2988000000     1.7931880000
   30      C       5.2756530000     2.3936300000     1.2739750000
   31      C       6.4985460000     3.2553590000     1.6195010000
   32      C       7.8294030000     1.1618540000     2.1379160000
   33      C       7.8119340000     2.4976160000     1.3822840000
   34      H      -1.6499770000    -2.9716310000    -0.6269080000
   35      H      -2.1789980000    -2.7916310000     1.0534280000
   36      H      -0.8892200000    -0.6456990000     1.2181430000
   37      H      -0.3778580000    -0.8214990000    -0.4557990000
   38      H       0.7785220000    -2.9678560000     0.1188810000
   39      H       0.2656370000    -2.8020400000     1.7911990000
   40      H       2.5119350000    -1.4266800000    -0.8278740000
   41      H       1.3627300000    -1.1834700000     3.2938800000
   42      H       3.3364280000     0.2076750000     3.7589480000
   43      H       4.4784690000    -0.0423510000    -0.3672720000
   44      H       5.2435840000     1.2938020000     3.1117360000
   45      H       6.6605490000    -0.0001510000     0.7388530000
   46      H       6.6169640000    -0.6266330000     2.3779610000
   47      H       4.3514300000     2.9374160000     1.4944630000
   48      H       5.2675370000     2.1927830000     0.1953760000
   49      H       6.4413570000     3.5570890000     2.6736970000
   50      H       6.4815880000     4.1794770000     1.0321810000
   51      H       8.7495740000     0.6113830000     1.9155020000
   52      H       7.8392870000     1.3585170000     3.2181290000
   53      H       7.9287870000     2.3057520000     0.3074760000
   54      H       8.6654240000     3.1145360000     1.6824150000
 ----------------------------------------------------------------

   15   -1194.3430062453      7.90e-09  Convergence criterion met
 Total energy in the final basis set =    -1194.3736929579

                    Orbital Energies (a.u.)
 --------------------------------------------------------------

 Alpha MOs
 -- Occupied --
-19.1793 -19.1488 -19.1264 -10.2926 -10.2786 -10.2678 -10.2110 -10.2096
-10.2048 -10.2009 -10.1990 -10.1973 -10.1971 -10.1831 -10.1821 -10.1795
-10.1784 -10.1762 -10.1758 -10.1757 -10.1753 -10.1737 -10.1734 -10.1666
-10.1664 -10.1648 -10.1647 -10.1639  -1.1093  -1.0670  -1.0597  -0.8923
 -0.8685  -0.8455  -0.8359  -0.8059  -0.7860  -0.7795  -0.7622  -0.7500
 -0.7436  -0.7322  -0.7031  -0.6797  -0.6556  -0.6378  -0.6184  -0.6119
 -0.6118  -0.6052  -0.5949  -0.5751  -0.5739  -0.5540  -0.5425  -0.5194
 -0.5056  -0.4970  -0.4844  -0.4785  -0.4730  -0.4727  -0.4642  -0.4564
 -0.4541  -0.4519  -0.4414  -0.4404  -0.4391  -0.4319  -0.4297  -0.4234
 -0.4199  -0.4143  -0.4062  -0.4019  -0.3939  -0.3864  -0.3808  -0.3806
 -0.3762  -0.3736  -0.3696  -0.3641  -0.3536  -0.3472  -0.3468  -0.3435
 -0.3391  -0.3336  -0.3201  -0.3057  -0.3039  -0.3023  -0.2894  -0.2794
 -0.2772  -0.2600  -0.2596  -0.2410

          Ground-State Mulliken Net Atomic Charges

     Atom                 Charge (a.u.)
  ----------------------------------------
      1 C                     0.435544
      2 C                     0.365117
      3 C                     0.355926
      4 C                     0.164414
      5 C                    -0.288847
      6 C                     0.005693
      7 C                    -0.845139
      8 C                    -0.655018
      9 C                     1.297792
     10 C                    -1.647854
     11 O                    -0.293516
     12 O                    -0.280723
     13 O                    -0.192130
     14 C                    -0.010717
     15 H                     0.226473
     16 H                     0.325305
     17 H                     0.315438
     18 H                     0.189994
     19 H                     0.294356
     20 C                    -0.484537
     21 C                     0.026042
     22 C                     0.790480
     23 C                    -0.623883
     24 C                    -0.662031
     25 C                    -0.592784
     26 C                     0.272127
     27 C                    -0.807520
     28 C                     0.307021
     29 C                    -0.362505
     30 C                    -0.364975
     31 C                    -0.269636
     32 C                    -0.261531
     33 C                    -0.351635
     34 H                     0.179114
     35 H                     0.234181
     36 H                     0.141866
     37 H                     0.117467
     38 H                     0.198576
     39 H                     0.193811
     40 H                     0.211657
     41 H                     0.219525
     42 H                     0.229117
     43 H                     0.222050
     44 H                     0.159601
     45 H                     0.105064
     46 H                     0.176269
     47 H                     0.173438
     48 H                     0.101921
     49 H                     0.118922
     50 H                     0.207888
     51 H                     0.208206
     52 H                     0.118520
     53 H                     0.097209
     54 H                     0.208857
  ----------------------------------------
  Sum of atomic charges =     0.000000

                    Cartesian Multipole Moments
 -----------------------------------------------------------------
    Charge (ESU x 10^10)
                 0.0000
    Dipole Moment (Debye)
         X      -1.9853      Y       1.8922      Z      -1.4799
       Tot       3.1164
    Quadrupole Moments (Debye-Ang)
        XX    -144.6685     XY      -3.6347     YY    -168.7495
        XZ      17.5280     YZ      -6.7320     ZZ    -156.0774

 Total job time:  3165.74s(wall), 21837.88s(cpu)
        *  Thank you very much for using Q-Chem.  Have a nice day.  *
