 Q-Chem 5.4, Q-Chem, Inc., Pleasanton, CA (2021)
 Q-Chem 5.4.0 for Intel X86 EM64T Linux

User input:
--------------------------------------------------------------
$molecule
0 1
C                 -2.8936440000      3.9400150000      0.4130980000
C                 -4.1745740000      3.4237290000      0.5461570000
C                 -4.3514820000      2.0383270000      0.5311460000
C                 -1.7903890000      3.0919100000      0.2709310000
C                 -1.9857700000      1.6999200000      0.2637880000
C                 -3.2729410000      1.1773430000      0.3942290000
C                 -0.4314080000      3.6833230000      0.1330320000
C                  0.7154830000      2.7365370000     -0.0120890000
C                  0.5201040000      1.3445400000     -0.0192360000
C                 -0.8389000000      0.7531350000      0.1185070000
C                  2.0026660000      3.2591090000     -0.1423890000
C                  3.0812230000      2.3981150000     -0.2791450000
C                  2.9043200000      1.0127230000     -0.2941710000
C                  1.6233670000      0.4964340000     -0.1612730000
O                 -0.2567640000      4.8908730000      0.1382550000
O                 -1.0135690000     -0.4544100000      0.1130650000
H                 -3.4194610000      0.1049290000      0.3913880000
H                  1.4557560000     -0.5733140000     -0.1678350000
H                 -2.7260260000      5.0097620000      0.4196350000
H                  2.1491900000      4.3315240000     -0.1395800000
H                  3.7552790000      0.3546870000     -0.4010390000
O                 -5.5935050000      1.4486730000      0.7355750000
O                  4.3233050000      2.9877260000     -0.4834000000
C                  5.4215340000      2.5972090000      0.2527800000
C                  6.6234450000      3.3943060000     -0.1706550000
O                  5.3849040000      1.7530380000      1.1027770000
H                 -5.0255120000      4.0817750000      0.6531210000
H                  6.4508430000      4.4545820000      0.0285280000
H                  6.7860500000      3.2858790000     -1.2450580000
H                  7.4965970000      3.0511250000      0.3796860000
C                 -6.6920080000      1.8394480000     -0.0000630000
C                 -7.8940240000      1.0430920000      0.4244600000
O                 -6.6555890000      2.6835750000     -0.8501120000
H                 -7.7195980000     -0.0181970000      0.2326420000
H                 -8.7660930000      1.3820190000     -0.1302090000
H                 -8.0598310000      1.1582300000      1.4977240000
$end
$rem
MAX_SCF_CYCLES=200
BASIS  =  6-311++G(d,p)
GUI  =  2
JOB_TYPE  =  SP
METHOD  =  B3LYP
SOLVENT_METHOD = PCM
$end
$pcm
theory = CPCM
$end
$solvent
dielectric 37.219
opticaldielectric 1.43
$end

--------------------------------------------------------------

             Standard Nuclear Orientation (Angstroms)
    I     Atom           X                Y                Z
 ----------------------------------------------------------------
    1      C      -2.8936440000     3.9400150000     0.4130980000
    2      C      -4.1745740000     3.4237290000     0.5461570000
    3      C      -4.3514820000     2.0383270000     0.5311460000
    4      C      -1.7903890000     3.0919100000     0.2709310000
    5      C      -1.9857700000     1.6999200000     0.2637880000
    6      C      -3.2729410000     1.1773430000     0.3942290000
    7      C      -0.4314080000     3.6833230000     0.1330320000
    8      C       0.7154830000     2.7365370000    -0.0120890000
    9      C       0.5201040000     1.3445400000    -0.0192360000
   10      C      -0.8389000000     0.7531350000     0.1185070000
   11      C       2.0026660000     3.2591090000    -0.1423890000
   12      C       3.0812230000     2.3981150000    -0.2791450000
   13      C       2.9043200000     1.0127230000    -0.2941710000
   14      C       1.6233670000     0.4964340000    -0.1612730000
   15      O      -0.2567640000     4.8908730000     0.1382550000
   16      O      -1.0135690000    -0.4544100000     0.1130650000
   17      H      -3.4194610000     0.1049290000     0.3913880000
   18      H       1.4557560000    -0.5733140000    -0.1678350000
   19      H      -2.7260260000     5.0097620000     0.4196350000
   20      H       2.1491900000     4.3315240000    -0.1395800000
   21      H       3.7552790000     0.3546870000    -0.4010390000
   22      O      -5.5935050000     1.4486730000     0.7355750000
   23      O       4.3233050000     2.9877260000    -0.4834000000
   24      C       5.4215340000     2.5972090000     0.2527800000
   25      C       6.6234450000     3.3943060000    -0.1706550000
   26      O       5.3849040000     1.7530380000     1.1027770000
   27      H      -5.0255120000     4.0817750000     0.6531210000
   28      H       6.4508430000     4.4545820000     0.0285280000
   29      H       6.7860500000     3.2858790000    -1.2450580000
   30      H       7.4965970000     3.0511250000     0.3796860000
   31      C      -6.6920080000     1.8394480000    -0.0000630000
   32      C      -7.8940240000     1.0430920000     0.4244600000
   33      O      -6.6555890000     2.6835750000    -0.8501120000
   34      H      -7.7195980000    -0.0181970000     0.2326420000
   35      H      -8.7660930000     1.3820190000    -0.1302090000
   36      H      -8.0598310000     1.1582300000     1.4977240000
 ----------------------------------------------------------------

    9   -1144.8657338542      4.46e-06  Convergence criterion met
 Total energy in the final basis set =    -1144.8657338542

                    Orbital Energies (a.u.)
 --------------------------------------------------------------

 Alpha MOs
 -- Occupied --
-19.1961 -19.1961 -19.1390 -19.1390 -19.1356 -19.1356 -10.3296 -10.3296
-10.2880 -10.2880 -10.2681 -10.2681 -10.2160 -10.2160 -10.2117 -10.2117
-10.2047 -10.2047 -10.2039 -10.2039 -10.2036 -10.2036 -10.1832 -10.1832
 -1.1359  -1.1359  -1.0714  -1.0697  -1.0575  -1.0575  -0.9017  -0.8906
 -0.8246  -0.7979  -0.7909  -0.7863  -0.7623  -0.7521  -0.7026  -0.6818
 -0.6719  -0.6383  -0.6290  -0.6056  -0.5828  -0.5700  -0.5338  -0.5243
 -0.5160  -0.5129  -0.5065  -0.5019  -0.5013  -0.4926  -0.4740  -0.4710
 -0.4609  -0.4605  -0.4595  -0.4583  -0.4555  -0.4410  -0.4323  -0.4244
 -0.4241  -0.4207  -0.4074  -0.4038  -0.4038  -0.3947  -0.3899  -0.3880
 -0.3768  -0.3709  -0.3497  -0.3467  -0.3095  -0.3095  -0.2935  -0.2903
 -0.2830  -0.2805  -0.2794  -0.2699

          Ground-State Mulliken Net Atomic Charges

     Atom                 Charge (a.u.)
  ----------------------------------------
      1 C                     0.180792
      2 C                     0.063916
      3 C                    -0.520031
      4 C                     0.378737
      5 C                     0.441079
      6 C                    -0.038484
      7 C                    -0.761869
      8 C                     0.440089
      9 C                     0.380628
     10 C                    -0.762543
     11 C                    -0.038369
     12 C                    -0.520674
     13 C                     0.064290
     14 C                     0.181454
     15 O                    -0.271748
     16 O                    -0.271696
     17 H                     0.227124
     18 H                     0.210589
     19 H                     0.210588
     20 H                     0.227151
     21 H                     0.261200
     22 O                    -0.034859
     23 O                    -0.034758
     24 C                     0.132454
     25 C                    -0.581272
     26 O                    -0.289874
     27 H                     0.261202
     28 H                     0.205602
     29 H                     0.206764
     30 H                     0.189219
     31 C                     0.132325
     32 C                    -0.580854
     33 O                    -0.289912
     34 H                     0.205256
     35 H                     0.189238
     36 H                     0.206953
  ----------------------------------------
  Sum of atomic charges =    -0.000292

                    Cartesian Multipole Moments
 -----------------------------------------------------------------
    Charge (ESU x 10^10)
                -0.0014
    Dipole Moment (Debye)
         X       0.0006      Y      -0.0011      Z       0.0032
       Tot       0.0034
    Quadrupole Moments (Debye-Ang)
        XX     -87.0549     XY      17.0169     YY    -145.4222
        XZ     -25.4776     YZ       5.2628     ZZ    -142.3491

 Total job time:  114.91s(wall), 670.13s(cpu)
        *  Thank you very much for using Q-Chem.  Have a nice day.  *
