 Gaussian 16, Revision A.03,
 Gaussian 16:  ES64L-G16RevA.03 25-Dec-2016

 --------------------------------------
 #P UB3LYP/6-311++G(d,p) nosym opt freq
 --------------------------------------

 -------
 Radical
 -------
 Symbolic Z-matrix:
 Charge = -1 Multiplicity = 2

 SCF Done:  E(UB3LYP) =  -798.800050382     A.U. after   24 cycles
 SCF Done:  E(UB3LYP) =  -798.800050726     A.U. after   11 cycles
 SCF Done:  E(UB3LYP) =  -798.800051130     A.U. after   11 cycles
 SCF Done:  E(UB3LYP) =  -798.800051574     A.U. after   11 cycles
 SCF Done:  E(UB3LYP) =  -798.800055638     A.U. after   13 cycles
 SCF Done:  E(UB3LYP) =  -798.800055275     A.U. after   15 cycles
 SCF Done:  E(UB3LYP) =  -798.800063651     A.U. after   14 cycles
 SCF Done:  E(UB3LYP) =  -798.766155339     A.U. after   18 cycles
 SCF Done:  E(UB3LYP) =  -798.800100933     A.U. after   13 cycles
 SCF Done:  E(UB3LYP) =  -798.799635219     A.U. after   19 cycles
 SCF Done:  E(UB3LYP) =  -798.800583579     A.U. after   14 cycles
 SCF Done:  E(UB3LYP) =  -798.800591327     A.U. after   13 cycles
 SCF Done:  E(UB3LYP) =  -798.800597205     A.U. after   14 cycles
 SCF Done:  E(UB3LYP) =  -798.800599003     A.U. after   12 cycles
 SCF Done:  E(UB3LYP) =  -798.800600062     A.U. after   13 cycles
 SCF Done:  E(UB3LYP) =  -798.800600162     A.U. after   12 cycles
 SCF Done:  E(UB3LYP) =  -798.800600212     A.U. after   10 cycles
 SCF Done:  E(UB3LYP) =  -798.800600268     A.U. after   12 cycles
 SCF Done:  E(UB3LYP) =  -798.800600298     A.U. after   10 cycles
 Optimization completed.
    -- Stationary point found.
 Normal termination of Gaussian 16 at Mon Jan 15 18:47:55 2024.

 ----------------------------------------------------------------------
 #P Geom=AllCheck Guess=TCheck SCRF=Check GenChk UB3LYP/6-311++G(d,p) F
 req
 ----------------------------------------------------------------------

 Structure from the checkpoint file:  "275-rad.chk"
 -------
 Radical
 -------
 Charge = -1 Multiplicity = 2

                          Input orientation:
 ---------------------------------------------------------------------
 Center     Atomic      Atomic             Coordinates (Angstroms)
 Number     Number       Type             X           Y           Z
 ---------------------------------------------------------------------
      1          6           0        0.252777   -0.576230   -0.076031
      2          6           0       -0.322508   -1.741675   -0.536748
      3          6           0       -1.749184   -1.905644   -0.613050
      4          8           0       -2.282993   -2.963255   -1.033506
      5          6           0       -2.570609   -0.758829   -0.168578
      6          6           0       -3.973143   -0.844329   -0.212705
      7          6           0       -4.768702    0.212706    0.196904
      8          6           0       -4.170465    1.398727    0.667685
      9          6           0       -2.793158    1.505959    0.720152
     10          6           0       -1.966927    0.438340    0.306495
     11          6           0       -0.520193    0.571251    0.369339
     12          8           0        0.071070    1.617839    0.784303
     13          1           0        0.295965   -2.569191   -0.854483
     14          1           0       -4.403437   -1.769502   -0.579424
     15          1           0       -5.850756    0.129425    0.156221
     16          1           0       -4.792735    2.228845    0.989617
     17          1           0       -2.309514    2.407455    1.078626
     18          7           0        1.627928   -0.315704    0.027387
     19          6           0        2.707104   -1.099129   -0.266623
     20          7           0        3.927755   -0.461530   -0.002938
     21          6           0        5.149786   -1.043257   -0.528306
     22          8           0        2.668443   -2.247790   -0.689456
     23          1           0        1.757700    0.616522    0.421392
     24          1           0        3.900891    0.546652    0.037272
     25          1           0        5.134284   -2.116517   -0.343241
     26          1           0        6.007503   -0.606337   -0.010716
     27          1           0        5.272267   -0.891950   -1.610073
 ---------------------------------------------------------------------

 SCF Done:  E(UB3LYP) =  -798.800600298     A.U. after    1 cycles

 Alpha  occ. eigenvalues --  -18.97892 -18.95463 -18.94059 -14.23686 -14.22796
 Alpha  occ. eigenvalues --  -10.19214 -10.11549 -10.09657 -10.09187 -10.08732
 Alpha  occ. eigenvalues --  -10.05867 -10.05723 -10.05224 -10.05156 -10.05028
 Alpha  occ. eigenvalues --  -10.04846 -10.02899  -0.94565  -0.88095  -0.86470
 Alpha  occ. eigenvalues --   -0.83228  -0.80577  -0.73706  -0.67839  -0.63080
 Alpha  occ. eigenvalues --   -0.63010  -0.60200  -0.55641  -0.51758  -0.49988
 Alpha  occ. eigenvalues --   -0.47577  -0.45383  -0.44060  -0.40945  -0.37658
 Alpha  occ. eigenvalues --   -0.37395  -0.36362  -0.34881  -0.33531  -0.32665
 Alpha  occ. eigenvalues --   -0.31794  -0.31192  -0.30357  -0.30113  -0.28804
 Alpha  occ. eigenvalues --   -0.28774  -0.27357  -0.26398  -0.24937  -0.23608
 Alpha  occ. eigenvalues --   -0.23348  -0.21715  -0.19660  -0.17284  -0.15916
 Alpha  occ. eigenvalues --   -0.14156  -0.13544  -0.12639  -0.10768  -0.10440
 Alpha  occ. eigenvalues --   -0.02284
 Alpha virt. eigenvalues --    0.06285   0.08264   0.08678   0.08818   0.09912
 Alpha virt. eigenvalues --    0.10227   0.10318   0.11307   0.12102   0.13149
 Alpha virt. eigenvalues --    0.13840   0.14627   0.14873   0.15358   0.15759

  Beta  occ. eigenvalues --  -18.97869 -18.94821 -18.93434 -14.23680 -14.22788
  Beta  occ. eigenvalues --  -10.19210 -10.11550 -10.09411 -10.09119 -10.08645
  Beta  occ. eigenvalues --  -10.05863 -10.05637 -10.05191 -10.05125 -10.05067
  Beta  occ. eigenvalues --  -10.04729 -10.02762  -0.94528  -0.87094  -0.85397
  Beta  occ. eigenvalues --   -0.83119  -0.80437  -0.73503  -0.67392  -0.62951
  Beta  occ. eigenvalues --   -0.62826  -0.60057  -0.54934  -0.51469  -0.49832
  Beta  occ. eigenvalues --   -0.47504  -0.45225  -0.43852  -0.40790  -0.37498
  Beta  occ. eigenvalues --   -0.37262  -0.36247  -0.34623  -0.33468  -0.32635
  Beta  occ. eigenvalues --   -0.31480  -0.31001  -0.30278  -0.30086  -0.28536
  Beta  occ. eigenvalues --   -0.27627  -0.26780  -0.26104  -0.23459  -0.23384
  Beta  occ. eigenvalues --   -0.21902  -0.21533  -0.18488  -0.17216  -0.15842
  Beta  occ. eigenvalues --   -0.12955  -0.12139  -0.12057  -0.09848  -0.09609
  Beta virt. eigenvalues --    0.04243   0.06287   0.08258   0.08763   0.09393
  Beta virt. eigenvalues --    0.09950   0.10221   0.11242   0.11324   0.12101
  Beta virt. eigenvalues --    0.13157   0.13920   0.14677   0.14882   0.15452

 Mulliken charges and spin densities:
               1          2
     1  C    0.616650   0.055689
     2  C    0.230030   0.105334
     3  C   -0.435990   0.034219
     4  O   -0.386084   0.228090
     5  C    0.812637   0.094478
     6  C    0.104264  -0.011699
     7  C   -0.293935   0.069044
     8  C   -0.359928   0.004140
     9  C    0.044080   0.066938
    10  C   -0.187299  -0.024807
    11  C   -1.488297   0.149692
    12  O   -0.405919   0.242777
    13  H    0.244528  -0.009171
    14  H    0.149735  -0.000554
    15  H    0.124361  -0.005088
    16  H    0.121625  -0.000787
    17  H    0.158891  -0.003497
    18  N   -0.272438  -0.001042
    19  C    0.013736   0.001789
    20  N   -0.135960   0.001024
    21  C   -0.261392  -0.001480
    22  O   -0.379406   0.007026
    23  H    0.340119  -0.003630
    24  H    0.209540   0.000674
    25  H    0.176794   0.000088
    26  H    0.115176  -0.000138
    27  H    0.144481   0.000892
 Sum of Mulliken charges =  -1.00000   1.00000

 Dipole moment (field-independent basis, Debye):
    X=              5.8395    Y=              6.3556    Z=              1.1182  Tot=              8.7031
 Quadrupole moment (field-independent basis, Debye-Ang):
   XX=           -119.3801   YY=           -135.5017   ZZ=           -109.8868
   XY=             -2.0667   XZ=             -3.0713   YZ=            -11.0677

  Exact polarizability: 300.441 -12.166 195.130  -6.882  38.627 113.088
 Approx polarizability: 399.789  11.863 355.466   4.666  80.483 182.363

                      1                      2                      3
                      A                      A                      A
 Frequencies --     31.9806                50.5474                86.5924
 Red. masses --      5.1010                 3.0595                 2.7961
 Frc consts  --      0.0031                 0.0046                 0.0124
 IR Inten    --      1.1267                 5.7099                 2.6484

                      4                      5                      6
                      A                      A                      A
 Frequencies --     93.7353                98.6890               137.6205
 Red. masses --      5.0518                 1.7329                 4.0384
 Frc consts  --      0.0262                 0.0099                 0.0451
 IR Inten    --      3.9502                 3.9856                 1.0505

                      7                      8                      9
                      A                      A                      A
 Frequencies --    139.4057               181.2287               238.7995
 Red. masses --      4.1002                 6.9055                 5.1870
 Frc consts  --      0.0469                 0.1336                 0.1743
 IR Inten    --      8.3494                 1.2005                 1.5516

                     10                     11                     12
                      A                      A                      A
 Frequencies --    248.3850               254.0404               286.1353
 Red. masses --      5.5384                 5.8551                 5.4223
 Frc consts  --      0.2013                 0.2226                 0.2616
 IR Inten    --      0.2466                 1.4793                15.1060

                     13                     14                     15
                      A                      A                      A
 Frequencies --    346.2506               381.1302               395.7531
 Red. masses --      4.5313                 9.3879                 4.8222
 Frc consts  --      0.3201                 0.8035                 0.4450
 IR Inten    --     39.0560                 7.6553                 0.2587

                     16                     17                     18
                      A                      A                      A
 Frequencies --    445.0169               452.2500               471.8098
 Red. masses --      2.9229                 1.8679                 9.7262
 Frc consts  --      0.3410                 0.2251                 1.2756
 IR Inten    --     18.8107                47.6059                 3.0618

                     19                     20                     21
                      A                      A                      A
 Frequencies --    493.9277               510.1646               579.3779
 Red. masses --      6.0225                 3.8535                 6.5664
 Frc consts  --      0.8657                 0.5909                 1.2987
 IR Inten    --      4.4163                 1.2038                16.4865

                     22                     23                     24
                      A                      A                      A
 Frequencies --    653.2640               664.9058               697.3406
 Red. masses --      5.5429                 3.5940                 5.4615
 Frc consts  --      1.3937                 0.9362                 1.5648
 IR Inten    --      2.7584                 3.5921                21.9442

                     25                     26                     27
                      A                      A                      A
 Frequencies --    710.0251               714.9339               728.5464
 Red. masses --      2.4405                 1.9777                 5.5415
 Frc consts  --      0.7249                 0.5956                 1.7330
 IR Inten    --     91.8745                19.6741                22.2868

                     28                     29                     30
                      A                      A                      A
 Frequencies --    757.5121               770.8762               777.7508
 Red. masses --      4.6575                 1.8250                 2.4383
 Frc consts  --      1.5747                 0.6390                 0.8690
 IR Inten    --      5.3466                50.8678                 0.8913

                     31                     32                     33
                      A                      A                      A
 Frequencies --    785.7777               838.1181               866.7896
 Red. masses --      4.1238                 4.1498                 1.4482
 Frc consts  --      1.5002                 1.7175                 0.6411
 IR Inten    --      1.1672                 1.9390                 0.2636

                     34                     35                     36
                      A                      A                      A
 Frequencies --    884.0138               960.3945               973.1735
 Red. masses --      1.4367                 4.0539                 1.3245
 Frc consts  --      0.6615                 2.2030                 0.7391
 IR Inten    --     29.1028                40.6750                 1.6570

                     37                     38                     39
                      A                      A                      A
 Frequencies --    980.0464              1003.2804              1038.6633
 Red. masses --      1.2893                 5.4542                 2.1076
 Frc consts  --      0.7296                 3.2346                 1.3397
 IR Inten    --      1.0223                 4.4306                23.1810

                     40                     41                     42
                      A                      A                      A
 Frequencies --   1095.0224              1124.9607              1137.9649
 Red. masses --      2.9080                 3.0616                 1.5320
 Frc consts  --      2.0544                 2.2828                 1.1689
 IR Inten    --      5.7276                 3.9802                22.8715

                     43                     44                     45
                      A                      A                      A
 Frequencies --   1144.0239              1156.2519              1158.6343
 Red. masses --      1.6308                 1.3638                 1.4657
 Frc consts  --      1.2575                 1.0743                 1.1592
 IR Inten    --     93.9514                20.4072                54.9428

                     46                     47                     48
                      A                      A                      A
 Frequencies --   1210.3165              1222.2410              1240.8570
 Red. masses --      2.2696                 2.2743                 2.7158
 Frc consts  --      1.9588                 2.0017                 2.4637
 IR Inten    --     29.7799               225.5424                26.4100

                     49                     50                     51
                      A                      A                      A
 Frequencies --   1249.7948              1291.9307              1352.8205
 Red. masses --      2.4063                 1.8637                 9.9756
 Frc consts  --      2.2145                 1.8328                10.7565
 IR Inten    --     32.3541                70.2983                11.2216

                     52                     53                     54
                      A                      A                      A
 Frequencies --   1392.3975              1441.1094              1463.3295
 Red. masses --      3.0495                 1.1704                 3.0716
 Frc consts  --      3.4834                 1.4321                 3.8753
 IR Inten    --     19.4729                29.7854               176.4205

                     55                     56                     57
                      A                      A                      A
 Frequencies --   1472.7795              1480.6720              1500.3628
 Red. masses --      2.7512                 1.1790                 1.2698
 Frc consts  --      3.5160                 1.5229                 1.6841
 IR Inten    --     51.7278               139.6651                10.5509

                     58                     59                     60
                      A                      A                      A
 Frequencies --   1511.5478              1533.1303              1543.9493
 Red. masses --      4.9247                 1.4807                 3.9105
 Frc consts  --      6.6294                 2.0506                 5.4922
 IR Inten    --    404.1424               237.0704               244.7461

                     61                     62                     63
                      A                      A                      A
 Frequencies --   1555.7105              1564.0165              1617.6026
 Red. masses --      3.7890                 2.5568                 6.6977
 Frc consts  --      5.4030                 3.6850                10.3257
 IR Inten    --    426.1646               613.0716                 0.2134

                     64                     65                     66
                      A                      A                      A
 Frequencies --   1632.3556              1734.2095              2976.9712
 Red. masses --      6.4845                 7.6758                 1.0563
 Frc consts  --     10.1802                13.6013                 5.5157
 IR Inten    --     14.7777               322.7390               140.9252

                     67                     68                     69
                      A                      A                      A
 Frequencies --   3063.1220              3126.9047              3133.0437
 Red. masses --      1.0820                 1.0977                 1.0846
 Frc consts  --      5.9814                 6.3236                 6.2728
 IR Inten    --     59.9886                 7.8442                16.0030

                     70                     71                     72
                      A                      A                      A
 Frequencies --   3152.3492              3180.0767              3182.8796
 Red. masses --      1.0911                 1.0914                 1.0929
 Frc consts  --      6.3880                 6.5027                 6.5236
 IR Inten    --     50.2717                13.1952                26.3911

                     73                     74                     75
                      A                      A                      A
 Frequencies --   3219.3486              3442.3359              3603.6627
 Red. masses --      1.0901                 1.0759                 1.0763
 Frc consts  --      6.6565                 7.5114                 8.2348
 IR Inten    --      1.4071               116.7825                10.0477

 - Thermochemistry -
 -------------------
 Temperature   298.150 Kelvin.  Pressure   1.00000 Atm.
 Atom     1 has atomic number  6 and mass  12.00000

 Molecular mass:   230.06914 amu.
 Principal axes and moments of inertia in atomic units:
                           1         2         3
     Eigenvalues --  1594.102247113.770028689.46870
           X            0.98666   0.16264   0.00643
           Y           -0.14923   0.91964  -0.36330
           Z           -0.06500   0.35750   0.93165
 This molecule is an asymmetric top.
 Rotational symmetry number  1.
 Warning -- assumption of classical behavior for rotation
           may cause significant error
 Rotational temperatures (Kelvin)      0.05433     0.01218     0.00997
 Rotational constants (GHZ):           1.13214     0.25370     0.20769
 Zero-point vibrational energy     530166.6 (Joules/Mol)
                                  126.71287 (Kcal/Mol)
 Warning -- explicit consideration of  21 degrees of freedom as
           vibrations may cause significant error
 Vibrational temperatures:     46.01    72.73   124.59   134.86   141.99
          (Kelvin)            198.01   200.57   260.75   343.58   357.37
                              365.51   411.68   498.18   548.36   569.40
                              640.28   650.69   678.83   710.65   734.01
                              833.60   939.90   956.65  1003.32  1021.57
                             1028.63  1048.22  1089.89  1109.12  1119.01
                             1130.56  1205.87  1247.12  1271.90  1381.79
                             1400.18  1410.07  1443.50  1494.40  1575.49
                             1618.57  1637.28  1646.00  1663.59  1667.02
                             1741.38  1758.53  1785.32  1798.18  1858.80
                             1946.41  2003.35  2073.44  2105.40  2119.00
                             2130.36  2158.69  2174.78  2205.83  2221.40
                             2238.32  2250.27  2327.37  2348.60  2495.14
                             4283.20  4407.15  4498.92  4507.75  4535.53
                             4575.42  4579.45  4631.92  4952.75  5184.87

 Zero-point correction=                           0.201930 (Hartree/Particle)
 Thermal correction to Energy=                    0.216631
 Thermal correction to Enthalpy=                  0.217575
 Thermal correction to Gibbs Free Energy=         0.158507
 Sum of electronic and zero-point Energies=           -798.598670
 Sum of electronic and thermal Energies=              -798.583969
 Sum of electronic and thermal Enthalpies=            -798.583025
 Sum of electronic and thermal Free Energies=         -798.642094

                     E (Thermal)             CV                S
                      KCal/Mol        Cal/Mol-Kelvin    Cal/Mol-Kelvin
 Total                  135.938             55.588            124.321
 Electronic               0.000              0.000              1.377
 Translational            0.889              2.981             42.202
 Rotational               0.889              2.981             32.955
 Vibrational            134.161             49.627             47.787
 Vibration     1          0.594              1.983              5.703
 Vibration     2          0.595              1.977              4.796
 Vibration     3          0.601              1.959              3.736
 Vibration     4          0.603              1.954              3.581
 Vibration     5          0.604              1.950              3.480
 Vibration     6          0.614              1.916              2.837
 Vibration     7          0.615              1.914              2.812
 Vibration     8          0.630              1.865              2.316
 Vibration     9          0.657              1.781              1.812
 Vibration    10          0.662              1.765              1.742
 Vibration    11          0.665              1.756              1.702
 Vibration    12          0.684              1.699              1.497
 Vibration    13          0.724              1.583              1.183
 Vibration    14          0.751              1.510              1.035
 Vibration    15          0.762              1.479              0.978
 Vibration    16          0.804              1.372              0.811
 Vibration    17          0.811              1.356              0.789
 Vibration    18          0.829              1.313              0.732
 Vibration    19          0.850              1.263              0.673
 Vibration    20          0.865              1.227              0.633
 Vibration    21          0.936              1.076              0.487

 Optimization completed.
    -- Stationary point found.
 Normal termination of Gaussian 16 at Mon Jan 15 19:34:59 2024.
