 Q-Chem 5.4, Q-Chem, Inc., Pleasanton, CA (2021)
 Q-Chem 5.4.0 for Intel X86 EM64T Linux

User input:
--------------------------------------------------------------
$molecule
-1 2
C                  0.2527770000     -0.5762300000     -0.0760310000
C                 -0.3225080000     -1.7416750000     -0.5367480000
C                 -1.7491840000     -1.9056440000     -0.6130500000
O                 -2.2829930000     -2.9632550000     -1.0335060000
C                 -2.5706090000     -0.7588290000     -0.1685780000
C                 -3.9731430000     -0.8443290000     -0.2127050000
C                 -4.7687020000      0.2127060000      0.1969040000
C                 -4.1704650000      1.3987270000      0.6676850000
C                 -2.7931580000      1.5059590000      0.7201520000
C                 -1.9669270000      0.4383400000      0.3064950000
C                 -0.5201930000      0.5712510000      0.3693390000
O                  0.0710700000      1.6178390000      0.7843030000
H                  0.2959650000     -2.5691910000     -0.8544830000
H                 -4.4034370000     -1.7695020000     -0.5794240000
H                 -5.8507560000      0.1294250000      0.1562210000
H                 -4.7927350000      2.2288450000      0.9896170000
H                 -2.3095140000      2.4074550000      1.0786260000
N                  1.6279280000     -0.3157040000      0.0273870000
C                  2.7071040000     -1.0991290000     -0.2666230000
N                  3.9277550000     -0.4615300000     -0.0029380000
C                  5.1497860000     -1.0432570000     -0.5283060000
O                  2.6684430000     -2.2477900000     -0.6894560000
H                  1.7577000000      0.6165220000      0.4213920000
H                  3.9008910000      0.5466520000      0.0372720000
H                  5.1342840000     -2.1165170000     -0.3432410000
H                  6.0075030000     -0.6063370000     -0.0107160000
H                  5.2722670000     -0.8919500000     -1.6100730000
$end
$rem
MAX_SCF_CYCLES=200
BASIS  =  6-311++G(d,p)
GUI  =  2
JOB_TYPE  =  SP
METHOD  =  B3LYP
SOLVENT_METHOD = PCM
$end
$pcm
theory = CPCM
$end
$solvent
dielectric 37.219
opticaldielectric 1.43
$end

--------------------------------------------------------------

             Standard Nuclear Orientation (Angstroms)
    I     Atom           X                Y                Z
 ----------------------------------------------------------------
    1      C       0.2527770000    -0.5762300000    -0.0760310000
    2      C      -0.3225080000    -1.7416750000    -0.5367480000
    3      C      -1.7491840000    -1.9056440000    -0.6130500000
    4      O      -2.2829930000    -2.9632550000    -1.0335060000
    5      C      -2.5706090000    -0.7588290000    -0.1685780000
    6      C      -3.9731430000    -0.8443290000    -0.2127050000
    7      C      -4.7687020000     0.2127060000     0.1969040000
    8      C      -4.1704650000     1.3987270000     0.6676850000
    9      C      -2.7931580000     1.5059590000     0.7201520000
   10      C      -1.9669270000     0.4383400000     0.3064950000
   11      C      -0.5201930000     0.5712510000     0.3693390000
   12      O       0.0710700000     1.6178390000     0.7843030000
   13      H       0.2959650000    -2.5691910000    -0.8544830000
   14      H      -4.4034370000    -1.7695020000    -0.5794240000
   15      H      -5.8507560000     0.1294250000     0.1562210000
   16      H      -4.7927350000     2.2288450000     0.9896170000
   17      H      -2.3095140000     2.4074550000     1.0786260000
   18      N       1.6279280000    -0.3157040000     0.0273870000
   19      C       2.7071040000    -1.0991290000    -0.2666230000
   20      N       3.9277550000    -0.4615300000    -0.0029380000
   21      C       5.1497860000    -1.0432570000    -0.5283060000
   22      O       2.6684430000    -2.2477900000    -0.6894560000
   23      H       1.7577000000     0.6165220000     0.4213920000
   24      H       3.9008910000     0.5466520000     0.0372720000
   25      H       5.1342840000    -2.1165170000    -0.3432410000
   26      H       6.0075030000    -0.6063370000    -0.0107160000
   27      H       5.2722670000    -0.8919500000    -1.6100730000
 ----------------------------------------------------------------

    9    -798.8893808639      3.92e-06  Convergence criterion met
 Total energy in the final basis set =     -798.8893808639

                    Orbital Energies (a.u.)
 --------------------------------------------------------------

 Alpha MOs
 -- Occupied --
-19.0942 -19.0860 -19.0772 -14.3436 -14.3289 -10.3033 -10.2269 -10.2267
-10.2163 -10.1913 -10.1765 -10.1741 -10.1733 -10.1724 -10.1714 -10.1705
-10.1572  -1.0590  -1.0117  -1.0027  -0.9425  -0.9071  -0.8594  -0.8018
 -0.7520  -0.7444  -0.7056  -0.6738  -0.6312  -0.6209  -0.5803  -0.5692
 -0.5571  -0.5240  -0.4959  -0.4880  -0.4651  -0.4613  -0.4461  -0.4394
 -0.4323  -0.4269  -0.4230  -0.4168  -0.4078  -0.4032  -0.3914  -0.3855
 -0.3826  -0.3570  -0.3562  -0.3393  -0.3207  -0.2847  -0.2697  -0.2604
 -0.2586  -0.2584  -0.2427  -0.2295  -0.1537

 Beta MOs
 -- Occupied --
-19.0939 -19.0799 -19.0720 -14.3433 -14.3288 -10.3032 -10.2254 -10.2241
-10.2150 -10.1913 -10.1763 -10.1732 -10.1731 -10.1717 -10.1709 -10.1707
-10.1563  -1.0585  -1.0015  -0.9935  -0.9407  -0.9063  -0.8573  -0.7974
 -0.7499  -0.7427  -0.7031  -0.6672  -0.6290  -0.6192  -0.5786  -0.5676
 -0.5557  -0.5221  -0.4941  -0.4848  -0.4636  -0.4596  -0.4449  -0.4390
 -0.4300  -0.4227  -0.4169  -0.4126  -0.4046  -0.3979  -0.3887  -0.3853
 -0.3597  -0.3548  -0.3500  -0.3382  -0.3079  -0.2841  -0.2616  -0.2529
 -0.2520  -0.2495  -0.2378  -0.2211

          Ground-State Mulliken Net Atomic Charges

     Atom                 Charge (a.u.)    Spin (a.u.)
  --------------------------------------------------------
      1 C                     0.466876       0.090960
      2 C                     0.158657       0.059619
      3 C                    -0.230755       0.078171
      4 O                    -0.510276       0.188381
      5 C                     0.660504       0.071019
      6 C                     0.140986       0.001563
      7 C                    -0.381115       0.062126
      8 C                    -0.456051       0.002289
      9 C                     0.083368       0.075198
     10 C                    -0.302961      -0.039338
     11 C                    -1.157004       0.174214
     12 O                    -0.490315       0.234936
     13 H                     0.233877      -0.006822
     14 H                     0.164761      -0.000739
     15 H                     0.199909      -0.004264
     16 H                     0.198577      -0.000774
     17 H                     0.178410      -0.003852
     18 N                    -0.279492       0.007308
     19 C                     0.115836       0.000694
     20 N                    -0.194996       0.004395
     21 C                    -0.293197      -0.001098
     22 O                    -0.473614       0.007630
     23 H                     0.384164      -0.002847
     24 H                     0.278845       0.000271
     25 H                     0.172285       0.000123
     26 H                     0.159837      -0.000001
     27 H                     0.172885       0.000842
  --------------------------------------------------------
  Sum of atomic charges =    -1.000000

                    Cartesian Multipole Moments
 -----------------------------------------------------------------
    Charge (ESU x 10^10)
                -4.8032
    Dipole Moment (Debye)
         X       6.2154      Y       8.9218      Z       1.7717
       Tot      11.0167
    Quadrupole Moments (Debye-Ang)
        XX     -99.1217     XY      -5.6256     YY    -140.3246
        XZ      -5.6787     YZ     -12.4962     ZZ    -110.0132

 Total job time:  59.37s(wall), 370.10s(cpu)
        *  Thank you very much for using Q-Chem.  Have a nice day.  *
