 Q-Chem 5.4, Q-Chem, Inc., Pleasanton, CA (2021)
 Q-Chem 5.4.0 for Intel X86 EM64T Linux

User input:
--------------------------------------------------------------
$molecule
0 1
C                  5.9185980000     -5.2161530000      1.0702950000
C                  6.7932460000     -5.0767610000     -0.0024560000
C                  6.5647820000     -4.0977170000     -0.9716780000
C                  4.8089460000     -4.3748170000      1.1785850000
C                  4.5795520000     -3.3916600000      0.2053270000
C                  5.4613790000     -3.2567220000     -0.8694140000
C                  3.8861660000     -4.5421550000      2.3351060000
C                  2.7072990000     -3.6129120000      2.4069370000
C                  2.4862860000     -2.6654140000      1.4690950000
C                  3.4052140000     -2.4805880000      0.2944470000
O                  4.0648210000     -5.3859690000      3.1878040000
O                  3.1872180000     -1.6238960000     -0.5359680000
H                  6.0772580000     -5.9686560000      1.8325990000
H                  7.6537660000     -5.7305880000     -0.0846730000
H                  5.2657660000     -2.4911650000     -1.6098150000
Cl                 1.6657180000     -3.8422050000      3.7623040000
H                  7.2479180000     -3.9913990000     -1.8064030000
Cl                 1.1402190000     -1.5890260000      1.5322060000
$end

$rem
BASIS  =  6-311++G(d,p)
GUI  =  2
JOB_TYPE  =  SP
METHOD  =  B3LYP
SCF_CONVERGENCE  = 8
SOLVENT_METHOD = sm12
$end

$smx
solvent dimethylformamide
charges CM5
$end

--------------------------------------------------------------

             Standard Nuclear Orientation (Angstroms)
    I     Atom           X                Y                Z
 ----------------------------------------------------------------
    1      C       5.9185980000    -5.2161530000     1.0702950000
    2      C       6.7932460000    -5.0767610000    -0.0024560000
    3      C       6.5647820000    -4.0977170000    -0.9716780000
    4      C       4.8089460000    -4.3748170000     1.1785850000
    5      C       4.5795520000    -3.3916600000     0.2053270000
    6      C       5.4613790000    -3.2567220000    -0.8694140000
    7      C       3.8861660000    -4.5421550000     2.3351060000
    8      C       2.7072990000    -3.6129120000     2.4069370000
    9      C       2.4862860000    -2.6654140000     1.4690950000
   10      C       3.4052140000    -2.4805880000     0.2944470000
   11      O       4.0648210000    -5.3859690000     3.1878040000
   12      O       3.1872180000    -1.6238960000    -0.5359680000
   13      H       6.0772580000    -5.9686560000     1.8325990000
   14      H       7.6537660000    -5.7305880000    -0.0846730000
   15      H       5.2657660000    -2.4911650000    -1.6098150000
   16      Cl      1.6657180000    -3.8422050000     3.7623040000
   17      H       7.2479180000    -3.9913990000    -1.8064030000
   18      Cl      1.1402190000    -1.5890260000     1.5322060000
 ----------------------------------------------------------------

   14   -1454.4927504475      8.90e-09  Convergence criterion met
 Total energy in the final basis set =    -1454.5105206677

                    Orbital Energies (a.u.)
 --------------------------------------------------------------

 Alpha MOs
 -- Occupied --
********-101.5834 -19.1476 -19.1476 -10.3027 -10.3027 -10.2842 -10.2835
-10.2191 -10.2186 -10.2045 -10.2045 -10.2028 -10.2022  -9.4980  -9.4980
 -7.2629  -7.2629  -7.2531  -7.2531  -7.2518  -7.2517  -1.0860  -1.0840
 -0.9374  -0.8968  -0.8831  -0.8242  -0.7866  -0.7682  -0.7055  -0.6569
 -0.6418  -0.6030  -0.5700  -0.5372  -0.5135  -0.4964  -0.4786  -0.4729
 -0.4683  -0.4581  -0.4568  -0.4505  -0.4378  -0.4099  -0.3914  -0.3793
 -0.3770  -0.3624  -0.3524  -0.3304  -0.3041  -0.2990  -0.2940  -0.2848
 -0.2803

          Ground-State Mulliken Net Atomic Charges

     Atom                 Charge (a.u.)
  ----------------------------------------
      1 C                     0.196317
      2 C                     0.482054
      3 C                     0.481774
      4 C                     0.215431
      5 C                     0.218057
      6 C                     0.195095
      7 C                    -2.146125
      8 C                     0.471710
      9 C                     0.474430
     10 C                    -2.147543
     11 O                    -0.200806
     12 O                    -0.200738
     13 H                     0.209326
     14 H                     0.334914
     15 H                     0.209271
     16 Cl                    0.435742
     17 H                     0.334912
     18 Cl                    0.436179
  ----------------------------------------
  Sum of atomic charges =     0.000000

                    Cartesian Multipole Moments
 -----------------------------------------------------------------
    Charge (ESU x 10^10)
                -0.0000
    Dipole Moment (Debye)
         X       3.8285      Y      -1.3567      Z      -2.2722
       Tot       4.6542
    Quadrupole Moments (Debye-Ang)
        XX     -52.7411     XY     -21.6129     YY     -88.4213
        XZ     -12.4658     YZ      15.0437     ZZ    -100.8121

 Total job time:  196.48s(wall), 1509.58s(cpu)
        *  Thank you very much for using Q-Chem.  Have a nice day.  *
