 Gaussian 16, Revision A.03,
 Gaussian 16:  ES64L-G16RevA.03 25-Dec-2016

 --------------------------------------
 #P UB3LYP/6-311++G(d,p) nosym opt freq
 --------------------------------------

 --------
 Oxidized
 --------
 Symbolic Z-matrix:
 Charge =  0 Multiplicity = 1

 SCF Done:  E(UB3LYP) =  -1454.49417562     A.U. after   15 cycles
 Optimization completed.
    -- Stationary point found.
 Normal termination of Gaussian 16 at Sun Jan  7 20:13:19 2024.

 ----------------------------------------------------------------------
 #P Geom=AllCheck Guess=TCheck SCRF=Check GenChk UB3LYP/6-311++G(d,p) F
 req
 ----------------------------------------------------------------------

 Structure from the checkpoint file:  "231.chk"
 --------
 Oxidized
 --------
 Charge =  0 Multiplicity = 1

                          Input orientation:
 ---------------------------------------------------------------------
 Center     Atomic      Atomic             Coordinates (Angstroms)
 Number     Number       Type             X           Y           Z
 ---------------------------------------------------------------------
      1          6           0        5.918598   -5.216153    1.070295
      2          6           0        6.793246   -5.076761   -0.002456
      3          6           0        6.564782   -4.097717   -0.971678
      4          6           0        4.808946   -4.374817    1.178585
      5          6           0        4.579552   -3.391660    0.205327
      6          6           0        5.461379   -3.256722   -0.869414
      7          6           0        3.886166   -4.542155    2.335106
      8          6           0        2.707299   -3.612912    2.406937
      9          6           0        2.486286   -2.665414    1.469095
     10          6           0        3.405214   -2.480588    0.294447
     11          8           0        4.064821   -5.385969    3.187804
     12          8           0        3.187218   -1.623896   -0.535968
     13          1           0        6.077258   -5.968656    1.832599
     14          1           0        7.653766   -5.730588   -0.084673
     15          1           0        5.265766   -2.491165   -1.609815
     16         17           0        1.665718   -3.842205    3.762304
     17          1           0        7.247918   -3.991399   -1.806403
     18         17           0        1.140219   -1.589026    1.532206
 ---------------------------------------------------------------------

 SCF Done:  E(UB3LYP) =  -1454.49417562     A.U. after    2 cycles

 Alpha  occ. eigenvalues -- -101.58275-101.58275 -19.15006 -19.15005 -10.30492
 Alpha  occ. eigenvalues --  -10.30491 -10.28487 -10.28414 -10.22723 -10.22672
 Alpha  occ. eigenvalues --  -10.21659 -10.21608 -10.21502 -10.21500  -9.49725
 Alpha  occ. eigenvalues --   -9.49724  -7.26216  -7.26216  -7.25241  -7.25241
 Alpha  occ. eigenvalues --   -7.25099  -7.25099  -1.08802  -1.08587  -0.93785
 Alpha  occ. eigenvalues --   -0.90605  -0.88256  -0.83032  -0.79654  -0.77394
 Alpha  occ. eigenvalues --   -0.71027  -0.66497  -0.64843  -0.61001  -0.57532
 Alpha  occ. eigenvalues --   -0.54546  -0.51796  -0.50421  -0.48072  -0.47631
 Alpha  occ. eigenvalues --   -0.47586  -0.46834  -0.45861  -0.45554  -0.43901
 Alpha  occ. eigenvalues --   -0.41467  -0.40446  -0.38902  -0.38429  -0.36127
 Alpha  occ. eigenvalues --   -0.35158  -0.32959  -0.30536  -0.30491  -0.29544
 Alpha  occ. eigenvalues --   -0.29496  -0.28391
 Alpha virt. eigenvalues --   -0.14171  -0.07275  -0.05302  -0.02477  -0.01559
 Alpha virt. eigenvalues --    0.00653   0.00658   0.00827   0.02222   0.02761
 Alpha virt. eigenvalues --    0.03786   0.03925   0.04055   0.04312   0.06064

  Beta  occ. eigenvalues -- -101.58275-101.58275 -19.15006 -19.15005 -10.30492
  Beta  occ. eigenvalues --  -10.30491 -10.28487 -10.28414 -10.22723 -10.22672
  Beta  occ. eigenvalues --  -10.21659 -10.21608 -10.21502 -10.21500  -9.49725
  Beta  occ. eigenvalues --   -9.49724  -7.26216  -7.26216  -7.25241  -7.25241
  Beta  occ. eigenvalues --   -7.25099  -7.25099  -1.08802  -1.08587  -0.93785
  Beta  occ. eigenvalues --   -0.90605  -0.88256  -0.83032  -0.79654  -0.77394
  Beta  occ. eigenvalues --   -0.71027  -0.66497  -0.64843  -0.61001  -0.57532
  Beta  occ. eigenvalues --   -0.54546  -0.51796  -0.50421  -0.48072  -0.47631
  Beta  occ. eigenvalues --   -0.47586  -0.46834  -0.45861  -0.45554  -0.43901
  Beta  occ. eigenvalues --   -0.41467  -0.40446  -0.38902  -0.38429  -0.36127
  Beta  occ. eigenvalues --   -0.35158  -0.32959  -0.30536  -0.30491  -0.29544
  Beta  occ. eigenvalues --   -0.29496  -0.28391
  Beta virt. eigenvalues --   -0.14171  -0.07275  -0.05302  -0.02477  -0.01559
  Beta virt. eigenvalues --    0.00653   0.00658   0.00827   0.02222   0.02761
  Beta virt. eigenvalues --    0.03786   0.03925   0.04055   0.04312   0.06064

 Mulliken charges and spin densities:
               1          2
     1  C    0.037913  -0.000000
     2  C   -0.347043  -0.000000
     3  C   -0.347115   0.000000
     4  C    0.546067   0.000000
     5  C    0.546193   0.000000
     6  C    0.037964  -0.000000
     7  C   -1.678769  -0.000000
     8  C    0.712500   0.000000
     9  C    0.712556   0.000000
    10  C   -1.678831  -0.000000
    11  O   -0.155596   0.000000
    12  O   -0.155600  -0.000000
    13  H    0.194278  -0.000000
    14  H    0.184468   0.000000
    15  H    0.194281  -0.000000
    16  Cl   0.506143  -0.000000
    17  H    0.184471   0.000000
    18  Cl   0.506121   0.000000
 Sum of Mulliken charges =  -0.00000  -0.00000

 Dipole moment (field-independent basis, Debye):
    X=              2.8922    Y=             -1.0243    Z=             -1.7165  Tot=              3.5157
 Quadrupole moment (field-independent basis, Debye-Ang):
   XX=            -62.1004   YY=            -90.6473   ZZ=            -99.8446
   XY=            -16.2844   XZ=            -10.0421   YZ=             12.5968

  Exact polarizability: 158.992 -42.158 134.226 -38.255 -33.678 152.387
 Approx polarizability: 233.111 -68.243 248.464 -39.256 -95.664 271.681

                      1                      2                      3
                      A                      A                      A
 Frequencies --     45.2692                69.1925               118.3248
 Red. masses --     11.2022                15.8503                 4.9635
 Frc consts  --      0.0135                 0.0447                 0.0409
 IR Inten    --      4.0709                 0.0000                 0.0000

                      4                      5                      6
                      A                      A                      A
 Frequencies --    162.2307               209.6944               214.8684
 Red. masses --      7.9606                30.2909                 8.8750
 Frc consts  --      0.1234                 0.7848                 0.2414
 IR Inten    --      1.8776                 0.0199                 0.5061

                      7                      8                      9
                      A                      A                      A
 Frequencies --    268.8248               285.7799               335.6564
 Red. masses --      7.8222                 9.3169                13.6881
 Frc consts  --      0.3331                 0.4483                 0.9086
 IR Inten    --      1.3487                 0.6326                 0.1436

                     10                     11                     12
                      A                      A                      A
 Frequencies --    356.3509               389.8807               425.2311
 Red. masses --     16.2430                11.9922                 6.9125
 Frc consts  --      1.2153                 1.0740                 0.7364
 IR Inten    --      1.3593                13.4198                 0.0000

                     13                     14                     15
                      A                      A                      A
 Frequencies --    431.7567               482.2437               515.6984
 Red. masses --      3.3809                13.4424                 5.9348
 Frc consts  --      0.3713                 1.8419                 0.9299
 IR Inten    --      0.8350                 9.6452                 0.0000

                     16                     17                     18
                      A                      A                      A
 Frequencies --    557.4770               652.8914               691.1207
 Red. masses --      8.8342                 7.2519                 5.0663
 Frc consts  --      1.6176                 1.8213                 1.4258
 IR Inten    --      0.3145                26.0205                 0.0000

                     19                     20                     21
                      A                      A                      A
 Frequencies --    707.4814               725.9447               780.7927
 Red. masses --      8.3440                 2.6817                 7.1840
 Frc consts  --      2.4607                 0.8327                 2.5804
 IR Inten    --      0.0000                59.8481                 0.0000

                     22                     23                     24
                      A                      A                      A
 Frequencies --    808.0001               827.7502               857.7676
 Red. masses --      1.7574                 9.2802                 9.0195
 Frc consts  --      0.6760                 3.7463                 3.9100
 IR Inten    --     20.9431               136.7147                 1.1165

                     25                     26                     27
                      A                      A                      A
 Frequencies --    885.3421               916.2769              1003.8561
 Red. masses --      9.1390                 1.3451                 1.3811
 Frc consts  --      4.2206                 0.6654                 0.8200
 IR Inten    --     32.4597                 0.0000                 1.7804

                     28                     29                     30
                      A                      A                      A
 Frequencies --   1021.1741              1048.0185              1103.5541
 Red. masses --      1.3293                 2.9426                 3.0724
 Frc consts  --      0.8167                 1.9042                 2.2046
 IR Inten    --      0.0000                 2.5226                 1.8570

                     31                     32                     33
                      A                      A                      A
 Frequencies --   1105.4950              1143.4408              1185.8613
 Red. masses --      3.6800                 2.6473                 1.1238
 Frc consts  --      2.6498                 2.0393                 0.9311
 IR Inten    --     29.7593               151.5640                 4.3917

                     34                     35                     36
                      A                      A                      A
 Frequencies --   1245.9218              1277.0884              1304.9044
 Red. masses --      2.3978                 5.3919                 2.0507
 Frc consts  --      2.1930                 5.1812                 2.0573
 IR Inten    --     36.8933               346.4931                 5.7684

                     37                     38                     39
                      A                      A                      A
 Frequencies --   1361.5029              1481.6174              1508.1919
 Red. masses --      7.6004                 2.3287                 2.5967
 Frc consts  --      8.3009                 3.0118                 3.4800
 IR Inten    --      3.1569                 0.7697                 5.0142

                     40                     41                     42
                      A                      A                      A
 Frequencies --   1592.1193              1625.4233              1627.9294
 Red. masses --      9.7863                 7.6704                 5.7542
 Frc consts  --     14.6158                11.9400                 8.9847
 IR Inten    --    140.4083                32.4265                53.7324

                     43                     44                     45
                      A                      A                      A
 Frequencies --   1736.3220              1741.7304              3174.6200
 Red. masses --     13.0468                12.7918                 1.0873
 Frc consts  --     23.1747                22.8636                 6.4562
 IR Inten    --      6.9430               386.0181                 2.7733

                     46                     47                     48
                      A                      A                      A
 Frequencies --   3188.3303              3202.4808              3205.0940
 Red. masses --      1.0918                 1.0928                 1.0954
 Frc consts  --      6.5393                 6.6031                 6.6296
 IR Inten    --      6.4860                 0.0052                 8.2477

 - Thermochemistry -
 -------------------
 Temperature   298.150 Kelvin.  Pressure   1.00000 Atm.
 Atom     1 has atomic number  6 and mass  12.00000

 Molecular mass:   225.95883 amu.
 Principal axes and moments of inertia in atomic units:
                           1         2         3
     Eigenvalues --  1997.970854016.756576014.72729
           X            0.82234  -0.16356   0.54499
           Y           -0.29172   0.70115   0.65061
           Z           -0.48853  -0.69400   0.52886
 This molecule is an asymmetric top.
 Rotational symmetry number  1.
 Warning -- assumption of classical behavior for rotation
           may cause significant error
 Rotational temperatures (Kelvin)      0.04335     0.02156     0.01440
 Rotational constants (GHZ):           0.90329     0.44930     0.30005
 Zero-point vibrational energy     296712.9 (Joules/Mol)
                                   70.91609 (Kcal/Mol)
 Warning -- explicit consideration of  16 degrees of freedom as
           vibrations may cause significant error
 Vibrational temperatures:     65.13    99.55   170.24   233.41   301.70
          (Kelvin)            309.15   386.78   411.17   482.93   512.71
                              560.95   611.81   621.20   693.84   741.97
                              802.08   939.37   994.37  1017.91  1044.47
                             1123.39  1162.53  1190.95  1234.14  1273.81
                             1318.32  1444.33  1469.24  1507.86  1587.77
                             1590.56  1645.16  1706.19  1792.60  1837.45
                             1877.47  1958.90  2131.72  2169.95  2290.70
                             2338.62  2342.23  2498.18  2505.96  4567.57
                             4587.30  4607.66  4611.42

 Zero-point correction=                           0.113012 (Hartree/Particle)
 Thermal correction to Energy=                    0.124162
 Thermal correction to Enthalpy=                  0.125106
 Thermal correction to Gibbs Free Energy=         0.074605
 Sum of electronic and zero-point Energies=          -1454.381164
 Sum of electronic and thermal Energies=             -1454.370013
 Sum of electronic and thermal Enthalpies=           -1454.369069
 Sum of electronic and thermal Free Energies=        -1454.419571

                     E (Thermal)             CV                S
                      KCal/Mol        Cal/Mol-Kelvin    Cal/Mol-Kelvin
 Total                   77.913             41.795            106.289
 Electronic               0.000              0.000              0.000
 Translational            0.889              2.981             42.148
 Rotational               0.889              2.981             32.246
 Vibrational             76.135             35.833             31.896
 Vibration     1          0.595              1.979              5.014
 Vibration     2          0.598              1.969              4.176
 Vibration     3          0.608              1.934              3.128
 Vibration     4          0.622              1.889              2.524
 Vibration     5          0.642              1.826              2.046
 Vibration     6          0.645              1.818              2.002
 Vibration     7          0.673              1.730              1.604
 Vibration     8          0.684              1.700              1.499
 Vibration     9          0.717              1.604              1.233
 Vibration    10          0.732              1.562              1.138
 Vibration    11          0.758              1.492              1.001
 Vibration    12          0.787              1.415              0.874
 Vibration    13          0.793              1.401              0.853
 Vibration    14          0.838              1.289              0.704
 Vibration    15          0.871              1.215              0.620
 Vibration    16          0.913              1.123              0.529

 Optimization completed.
    -- Stationary point found.
 Normal termination of Gaussian 16 at Sun Jan  7 20:24:10 2024.
