 Gaussian 16, Revision A.03,
 Gaussian 16:  ES64L-G16RevA.03 25-Dec-2016

 ----------------------------------------------------------------
 #P UB3LYP/6-311++G(d,p) SCRF=(PCM,Solvent=n,n-DiMethylFormamide)
 ----------------------------------------------------------------

 -------
 Reduced
 -------
 Symbolic Z-matrix:
 Charge = -2 Multiplicity = 1

                         Standard orientation:
 ---------------------------------------------------------------------
 Center     Atomic      Atomic             Coordinates (Angstroms)
 Number     Number       Type             X           Y           Z
 ---------------------------------------------------------------------
      1          6           0        6.825326    0.073695   -0.988705
      2          6           0        7.461025   -1.150296   -1.064564
      3          6           0        6.813835   -2.315178   -0.585079
      4          6           0        5.525891    0.198908   -0.436751
      5          6           0        4.865768   -0.985808    0.049786
      6          6           0        5.541675   -2.216204   -0.042618
      7          6           0        4.876046    1.475823   -0.360524
      8          6           0        3.564588    1.479022    0.216742
      9          6           0        2.896863    0.361328    0.701661
     10          6           0        3.518278   -0.937605    0.634282
     11          8           0        5.366313    2.605158   -0.760380
     12          8           0        2.938367   -1.987161    1.061354
     13          1           0        7.302109    0.979263   -1.349774
     14          1           0        8.458556   -1.220294   -1.493014
     15          1           0        7.311787   -3.279876   -0.643779
     16          1           0        5.018865   -3.090549    0.331648
     17          6           0        1.521205    0.474403    1.308227
     18          8           0        3.001707    2.732113    0.259752
     19          1           0        1.388230    1.475089    1.735372
     20          1           0        1.447595   -0.260819    2.117753
     21          1           0        3.729269    3.263721   -0.144894
     22          6           0        0.375297    0.203648    0.312179
     23          6           0       -1.014953    0.292365    0.954156
     24          6           0       -2.174959    0.043121   -0.018709
     25          1           0        0.521643   -0.793738   -0.116303
     26          1           0        0.443472    0.922168   -0.513896
     27          1           0       -1.139192    1.284416    1.411322
     28          1           0       -1.075510   -0.431451    1.778419
     29          1           0       -2.055599   -0.948612   -0.474593
     30          1           0       -2.113607    0.764675   -0.844476
     31          6           0       -3.562043    0.137691    0.630515
     32          6           0       -4.727231   -0.098408   -0.339247
     33          6           0       -6.111208    0.001799    0.315049
     34          6           0       -7.277998   -0.227951   -0.654356
     35          6           0       -8.660051   -0.125444    0.003212
     36          6           0       -9.826533   -0.351717   -0.967567
     37          6           0      -11.205214   -0.246293   -0.308962
     38          1           0       -3.675633    1.127313    1.093594
     39          1           0       -3.625087   -0.588412    1.452206
     40          1           0       -4.617232   -1.088522   -0.801304
     41          1           0       -4.664060    0.626779   -1.161571
     42          1           0       -6.219525    0.990786    0.780155
     43          1           0       -6.176141   -0.725340    1.135487
     44          1           0       -7.171708   -1.217233   -1.119088
     45          1           0       -7.213983    0.499523   -1.474519
     46          1           0       -8.767980    0.862771    0.469285
     47          1           0       -8.728005   -0.853737    0.821982
     48          1           0       -9.721058   -1.339987   -1.433221
     49          1           0       -9.759143    0.375299   -1.787057
     50          1           0      -11.326034   -0.987133    0.489773
     51          1           0      -12.012627   -0.412664   -1.030239
     52          1           0      -11.364139    0.744279    0.132564
 ---------------------------------------------------------------------

 SCF Done:  E(UB3LYP) =  -1043.33513789     A.U. after   17 cycles

 The electronic state is 1-A.
 Alpha  occ. eigenvalues --  -19.10827 -19.02137 -19.01349 -10.17117 -10.16804
 Alpha  occ. eigenvalues --  -10.16032 -10.15769 -10.15741 -10.15701 -10.15647
 Alpha  occ. eigenvalues --  -10.15634 -10.15543 -10.15420 -10.15371 -10.15050
 Alpha  occ. eigenvalues --  -10.14497 -10.14435 -10.14120 -10.14084 -10.14009
 Alpha  occ. eigenvalues --  -10.13815 -10.13068 -10.12684 -10.11862  -1.02280
 Alpha  occ. eigenvalues --   -0.93759  -0.92909  -0.82030  -0.80822  -0.79421
 Alpha  occ. eigenvalues --   -0.77693  -0.76012  -0.73924  -0.71765  -0.71484
 Alpha  occ. eigenvalues --   -0.68922  -0.65933  -0.63109  -0.61453  -0.58971
 Alpha  occ. eigenvalues --   -0.57817  -0.57355  -0.56873  -0.56463  -0.54972
 Alpha  occ. eigenvalues --   -0.53071  -0.49895  -0.48131  -0.46858  -0.46607
 Alpha  occ. eigenvalues --   -0.45038  -0.44051  -0.43038  -0.42679  -0.42131
 Alpha  occ. eigenvalues --   -0.41867  -0.41463  -0.40272  -0.39797  -0.39644
 Alpha  occ. eigenvalues --   -0.38926  -0.38401  -0.37219  -0.36739  -0.36662
 Alpha  occ. eigenvalues --   -0.36019  -0.35358  -0.34706  -0.34601  -0.34311
 Alpha  occ. eigenvalues --   -0.33570  -0.33298  -0.32869  -0.32296  -0.32144
 Alpha  occ. eigenvalues --   -0.31763  -0.31636  -0.31580  -0.31304  -0.30764
 Alpha  occ. eigenvalues --   -0.30471  -0.29846  -0.29404  -0.28774  -0.22590
 Alpha  occ. eigenvalues --   -0.22027  -0.20987  -0.19159  -0.18762  -0.10123
 Alpha virt. eigenvalues --   -0.00276  -0.00151   0.00079   0.00620   0.00868
 Alpha virt. eigenvalues --    0.01064   0.01400   0.01685   0.01990   0.02408
 Alpha virt. eigenvalues --    0.02517   0.02580   0.03476   0.03594   0.03909

  Beta  occ. eigenvalues --  -19.10827 -19.02137 -19.01349 -10.17117 -10.16804
  Beta  occ. eigenvalues --  -10.16032 -10.15769 -10.15741 -10.15701 -10.15647
  Beta  occ. eigenvalues --  -10.15634 -10.15543 -10.15420 -10.15371 -10.15050
  Beta  occ. eigenvalues --  -10.14497 -10.14435 -10.14120 -10.14084 -10.14009
  Beta  occ. eigenvalues --  -10.13815 -10.13068 -10.12684 -10.11862  -1.02280
  Beta  occ. eigenvalues --   -0.93759  -0.92909  -0.82030  -0.80822  -0.79421
  Beta  occ. eigenvalues --   -0.77693  -0.76012  -0.73924  -0.71765  -0.71484
  Beta  occ. eigenvalues --   -0.68922  -0.65933  -0.63109  -0.61453  -0.58971
  Beta  occ. eigenvalues --   -0.57817  -0.57355  -0.56873  -0.56463  -0.54972
  Beta  occ. eigenvalues --   -0.53071  -0.49895  -0.48131  -0.46858  -0.46607
  Beta  occ. eigenvalues --   -0.45038  -0.44051  -0.43038  -0.42679  -0.42131
  Beta  occ. eigenvalues --   -0.41867  -0.41463  -0.40272  -0.39797  -0.39644
  Beta  occ. eigenvalues --   -0.38926  -0.38401  -0.37219  -0.36739  -0.36662
  Beta  occ. eigenvalues --   -0.36019  -0.35358  -0.34706  -0.34601  -0.34311
  Beta  occ. eigenvalues --   -0.33570  -0.33298  -0.32869  -0.32296  -0.32144
  Beta  occ. eigenvalues --   -0.31763  -0.31636  -0.31580  -0.31304  -0.30764
  Beta  occ. eigenvalues --   -0.30471  -0.29846  -0.29404  -0.28774  -0.22590
  Beta  occ. eigenvalues --   -0.22027  -0.20987  -0.19159  -0.18762  -0.10123
  Beta virt. eigenvalues --   -0.00276  -0.00151   0.00079   0.00620   0.00868
  Beta virt. eigenvalues --    0.01064   0.01400   0.01685   0.01990   0.02408
  Beta virt. eigenvalues --    0.02517   0.02580   0.03476   0.03594   0.03909

 Mulliken charges and spin densities:
               1          2
     1  C   -0.089165   0.000000
     2  C   -0.391765   0.000000
     3  C   -0.500761  -0.000000
     4  C    0.498764   0.000000
     5  C   -0.088889  -0.000000
     6  C    0.006798   0.000000
     7  C   -1.000581  -0.000000
     8  C   -0.652983  -0.000000
     9  C    2.038709   0.000000
    10  C   -0.752249   0.000000
    11  O   -0.729283   0.000000
    12  O   -0.639524  -0.000000
    13  H    0.139518  -0.000000
    14  H    0.152739   0.000000
    15  H    0.146984  -0.000000
    16  H    0.140678  -0.000000
    17  C   -0.359815  -0.000000
    18  O   -0.338398   0.000000
    19  H    0.202099   0.000000
    20  H    0.173979   0.000000
    21  H    0.275992   0.000000
    22  C   -0.888329   0.000000
    23  C   -0.327445  -0.000000
    24  C   -0.053325  -0.000000
    25  H    0.178013   0.000000
    26  H    0.153081  -0.000000
    27  H    0.103433  -0.000000
    28  H    0.110679  -0.000000
    29  H    0.123547  -0.000000
    30  H    0.123193  -0.000000
    31  C    0.035560  -0.000000
    32  C    0.046799  -0.000000
    33  C   -0.043057  -0.000000
    34  C   -0.292895   0.000000
    35  C   -0.489435  -0.000000
    36  C   -0.283814   0.000000
    37  C   -0.697250  -0.000000
    38  H    0.130054   0.000000
    39  H    0.131337   0.000000
    40  H    0.129440   0.000000
    41  H    0.128575   0.000000
    42  H    0.128193   0.000000
    43  H    0.128069   0.000000
    44  H    0.127054   0.000000
    45  H    0.126647   0.000000
    46  H    0.123830   0.000000
    47  H    0.124263   0.000000
    48  H    0.131244  -0.000000
    49  H    0.130937   0.000000
    50  H    0.140274  -0.000000
    51  H    0.148152   0.000000
    52  H    0.140326  -0.000000
 Sum of Mulliken charges =  -2.00000  -0.00000

 Dipole moment (field-independent basis, Debye):
    X=            -40.9307    Y=             -1.9761    Z=             -1.0792  Tot=             40.9926
 Quadrupole moment (field-independent basis, Debye-Ang):
   XX=           -361.5606   YY=           -199.9944   ZZ=           -168.8960
   XY=            -18.4244   XZ=              6.6602   YZ=             10.3120

 Normal termination of Gaussian 16 at Sun Jan 21 09:26:07 2024.
