 Q-Chem 5.4, Q-Chem, Inc., Pleasanton, CA (2021)
 Q-Chem 5.4.0 for Intel X86 EM64T Linux

User input:
--------------------------------------------------------------
$molecule
-2 1
C                  7.2407880000      1.1961570000      0.1847870000
C                  8.3663610000      1.0312620000      1.0848680000
C                  8.9766880000     -0.2001620000      1.2654550000
C                  8.5280410000     -1.3895980000      0.5624140000
C                  7.3942580000     -1.2267830000     -0.3326990000
C                  6.7928940000      0.0092290000     -0.5176780000
O                  6.6677460000      2.3264920000      0.0097020000
O                  9.1021150000     -2.5211340000      0.7225750000
C                  5.6299660000      0.2087050000     -1.4771900000
C                  6.9145010000     -2.4665630000     -1.0513340000
C                  8.8464560000      2.2596810000      1.8192660000
C                 10.1450710000     -0.3593620000      2.2084950000
C                  4.2886550000      0.1314870000     -0.7924710000
H                  5.6903770000     -0.4931440000     -2.3122300000
H                  5.7265130000      1.2251060000     -1.8796040000
H                  7.4549790000     -3.3288310000     -0.6575500000
H                  7.1028310000     -2.4180660000     -2.1341520000
H                  5.8379580000     -2.6267190000     -0.9206540000
H                  8.2474470000      3.1163640000      1.5059940000
H                  9.9050810000      2.4737300000      1.6156890000
H                  8.7558890000      2.1501140000      2.9094900000
H                  9.8925620000     -0.0485610000      3.2319030000
H                 11.0076080000      0.2504190000      1.9028620000
H                 10.4486590000     -1.4073190000      2.2226900000
C                  3.2063100000     -0.5925820000     -1.1176670000
C                  3.1359800000     -1.5350370000     -2.2976250000
C                  1.9449470000     -0.5131670000     -0.2783200000
C                  0.7278430000      0.1019620000     -0.9986850000
C                 -0.5283790000      0.1526920000     -0.1181280000
C                 -1.8092740000      0.6620680000     -0.8116890000
C                 -3.0388650000      0.4317620000      0.0915580000
C                 -4.4027900000      0.6928430000     -0.5641270000
C                 -5.5842250000      0.3560730000      0.3569370000
C                 -6.9866470000      0.5230400000     -0.2652110000
C                 -8.0557720000     -0.0759890000      0.6720250000
C                 -9.4758870000     -0.1628170000      0.0940590000
C                 -1.6791540000      2.1330600000     -1.2368610000
C                -10.4615750000     -0.8500690000      1.0491060000
C                -11.8906840000     -1.0461390000      0.5049200000
C                -12.6135230000      0.2827090000      0.2382180000
C                -12.7098970000     -1.9270370000      1.4592940000
H                  4.2242450000      0.7729250000      0.0845370000
H                  4.1101730000     -1.6883810000     -2.7612520000
H                  2.4539900000     -1.1666660000     -3.0749420000
H                  2.7545770000     -2.5169970000     -1.9868140000
H                  2.1536670000      0.0715350000      0.6238340000
H                  1.6685320000     -1.5237380000      0.0617730000
H                  0.5014980000     -0.4767130000     -1.9029670000
H                  1.0025570000      1.1071310000     -1.3350690000
H                 -0.3290930000      0.7767000000      0.7643820000
H                 -0.7223560000     -0.8574550000      0.2657070000
H                 -1.9523800000      0.0592610000     -1.7210070000
H                 -2.9424090000      1.0586030000      0.9892510000
H                 -3.0166400000     -0.6065970000      0.4463090000
H                 -4.4809620000      0.0926510000     -1.4810730000
H                 -4.4665780000      1.7389300000     -0.8770230000
H                 -5.5234290000      0.9726130000      1.2647310000
H                 -5.4770270000     -0.6838630000      0.6917730000
C                 -7.2877760000      1.9881300000     -0.6181290000
H                 -8.0784810000      0.5065850000      1.6037660000
H                 -7.7360510000     -1.0866110000      0.9577210000
H                 -9.4457270000     -0.7172920000     -0.8537090000
H                 -9.8397710000      0.8392460000     -0.1504610000
H                 -0.8208590000      2.2861020000     -1.8948320000
H                 -1.5424820000      2.7757830000     -0.3591410000
H                 -2.5665240000      2.4827500000     -1.7709090000
H                -10.5150550000     -0.2834020000      1.9888890000
H                -10.0580260000     -1.8361660000      1.3161590000
H                -11.8094640000     -1.5805610000     -0.4518040000
H                -12.1006800000      0.8898340000     -0.5149950000
H                -12.6894670000      0.8817090000      1.1533090000
H                -13.6332280000      0.1076600000     -0.1229280000
H                -12.2328670000     -2.9030920000      1.6100700000
H                -13.7189200000     -2.1066020000      1.0730370000
H                -12.8143920000     -1.4520890000      2.4421580000
H                 -7.0042530000     -0.0591150000     -1.1983770000
H                 -7.2917020000      2.6112180000      0.2841220000
H                 -8.2637090000      2.0978870000     -1.0980490000
H                 -6.5437980000      2.4017950000     -1.3044800000
$end

$rem
MAX_SCF_CYCLES = 200
BASIS  =  6-311++G(d,p)
GUI  =  2
JOB_TYPE  =  SP
METHOD  =  B3LYP
THRESH = 14
SCF_CONVERGENCE  = 8
SOLVENT_METHOD = sm12
$end

$smx
solvent dimethylformamide
charges chelpg
$end

--------------------------------------------------------------

             Standard Nuclear Orientation (Angstroms)
    I     Atom           X                Y                Z
 ----------------------------------------------------------------
    1      C       7.2407880000     1.1961570000     0.1847870000
    2      C       8.3663610000     1.0312620000     1.0848680000
    3      C       8.9766880000    -0.2001620000     1.2654550000
    4      C       8.5280410000    -1.3895980000     0.5624140000
    5      C       7.3942580000    -1.2267830000    -0.3326990000
    6      C       6.7928940000     0.0092290000    -0.5176780000
    7      O       6.6677460000     2.3264920000     0.0097020000
    8      O       9.1021150000    -2.5211340000     0.7225750000
    9      C       5.6299660000     0.2087050000    -1.4771900000
   10      C       6.9145010000    -2.4665630000    -1.0513340000
   11      C       8.8464560000     2.2596810000     1.8192660000
   12      C      10.1450710000    -0.3593620000     2.2084950000
   13      C       4.2886550000     0.1314870000    -0.7924710000
   14      H       5.6903770000    -0.4931440000    -2.3122300000
   15      H       5.7265130000     1.2251060000    -1.8796040000
   16      H       7.4549790000    -3.3288310000    -0.6575500000
   17      H       7.1028310000    -2.4180660000    -2.1341520000
   18      H       5.8379580000    -2.6267190000    -0.9206540000
   19      H       8.2474470000     3.1163640000     1.5059940000
   20      H       9.9050810000     2.4737300000     1.6156890000
   21      H       8.7558890000     2.1501140000     2.9094900000
   22      H       9.8925620000    -0.0485610000     3.2319030000
   23      H      11.0076080000     0.2504190000     1.9028620000
   24      H      10.4486590000    -1.4073190000     2.2226900000
   25      C       3.2063100000    -0.5925820000    -1.1176670000
   26      C       3.1359800000    -1.5350370000    -2.2976250000
   27      C       1.9449470000    -0.5131670000    -0.2783200000
   28      C       0.7278430000     0.1019620000    -0.9986850000
   29      C      -0.5283790000     0.1526920000    -0.1181280000
   30      C      -1.8092740000     0.6620680000    -0.8116890000
   31      C      -3.0388650000     0.4317620000     0.0915580000
   32      C      -4.4027900000     0.6928430000    -0.5641270000
   33      C      -5.5842250000     0.3560730000     0.3569370000
   34      C      -6.9866470000     0.5230400000    -0.2652110000
   35      C      -8.0557720000    -0.0759890000     0.6720250000
   36      C      -9.4758870000    -0.1628170000     0.0940590000
   37      C      -1.6791540000     2.1330600000    -1.2368610000
   38      C     -10.4615750000    -0.8500690000     1.0491060000
   39      C     -11.8906840000    -1.0461390000     0.5049200000
   40      C     -12.6135230000     0.2827090000     0.2382180000
   41      C     -12.7098970000    -1.9270370000     1.4592940000
   42      H       4.2242450000     0.7729250000     0.0845370000
   43      H       4.1101730000    -1.6883810000    -2.7612520000
   44      H       2.4539900000    -1.1666660000    -3.0749420000
   45      H       2.7545770000    -2.5169970000    -1.9868140000
   46      H       2.1536670000     0.0715350000     0.6238340000
   47      H       1.6685320000    -1.5237380000     0.0617730000
   48      H       0.5014980000    -0.4767130000    -1.9029670000
   49      H       1.0025570000     1.1071310000    -1.3350690000
   50      H      -0.3290930000     0.7767000000     0.7643820000
   51      H      -0.7223560000    -0.8574550000     0.2657070000
   52      H      -1.9523800000     0.0592610000    -1.7210070000
   53      H      -2.9424090000     1.0586030000     0.9892510000
   54      H      -3.0166400000    -0.6065970000     0.4463090000
   55      H      -4.4809620000     0.0926510000    -1.4810730000
   56      H      -4.4665780000     1.7389300000    -0.8770230000
   57      H      -5.5234290000     0.9726130000     1.2647310000
   58      H      -5.4770270000    -0.6838630000     0.6917730000
   59      C      -7.2877760000     1.9881300000    -0.6181290000
   60      H      -8.0784810000     0.5065850000     1.6037660000
   61      H      -7.7360510000    -1.0866110000     0.9577210000
   62      H      -9.4457270000    -0.7172920000    -0.8537090000
   63      H      -9.8397710000     0.8392460000    -0.1504610000
   64      H      -0.8208590000     2.2861020000    -1.8948320000
   65      H      -1.5424820000     2.7757830000    -0.3591410000
   66      H      -2.5665240000     2.4827500000    -1.7709090000
   67      H     -10.5150550000    -0.2834020000     1.9888890000
   68      H     -10.0580260000    -1.8361660000     1.3161590000
   69      H     -11.8094640000    -1.5805610000    -0.4518040000
   70      H     -12.1006800000     0.8898340000    -0.5149950000
   71      H     -12.6894670000     0.8817090000     1.1533090000
   72      H     -13.6332280000     0.1076600000    -0.1229280000
   73      H     -12.2328670000    -2.9030920000     1.6100700000
   74      H     -13.7189200000    -2.1066020000     1.0730370000
   75      H     -12.8143920000    -1.4520890000     2.4421580000
   76      H      -7.0042530000    -0.0591150000    -1.1983770000
   77      H      -7.2917020000     2.6112180000     0.2841220000
   78      H      -8.2637090000     2.0978870000    -1.0980490000
   79      H      -6.5437980000     2.4017950000    -1.3044800000
 ----------------------------------------------------------------

   53   -1284.7560119192      6.84e-09  Convergence criterion met
 Total energy in the final basis set =    -1285.0446140158

                    Orbital Energies (a.u.)
 --------------------------------------------------------------

 Alpha MOs
 -- Occupied --
-19.0058 -19.0055 -10.1705 -10.1683 -10.1672 -10.1653 -10.1650 -10.1626
-10.1607 -10.1594 -10.1589 -10.1578 -10.1571 -10.1570 -10.1569 -10.1566
-10.1566 -10.1564 -10.1563 -10.1558 -10.1556 -10.1553 -10.1539 -10.1535
-10.1529 -10.1529 -10.1504 -10.1250 -10.1247 -10.1244 -10.1228  -0.9298
 -0.9269  -0.8236  -0.8182  -0.8095  -0.7998  -0.7896  -0.7730  -0.7613
 -0.7445  -0.7262  -0.7162  -0.7094  -0.6857  -0.6825  -0.6803  -0.6755
 -0.6680  -0.6507  -0.6215  -0.6083  -0.5984  -0.5859  -0.5701  -0.5594
 -0.5556  -0.5480  -0.5175  -0.5143  -0.5028  -0.4781  -0.4765  -0.4738
 -0.4653  -0.4562  -0.4484  -0.4421  -0.4392  -0.4347  -0.4291  -0.4245
 -0.4217  -0.4199  -0.4134  -0.4105  -0.4086  -0.4022  -0.3951  -0.3916
 -0.3910  -0.3866  -0.3861  -0.3835  -0.3814  -0.3779  -0.3766  -0.3764
 -0.3685  -0.3666  -0.3640  -0.3585  -0.3575  -0.3520  -0.3494  -0.3443
 -0.3429  -0.3410  -0.3381  -0.3321  -0.3280  -0.3266  -0.3230  -0.3191
 -0.3170  -0.3163  -0.3146  -0.3118  -0.3105  -0.3066  -0.3053  -0.3033
 -0.2983  -0.2872  -0.2312  -0.2115  -0.1985  -0.1911  -0.1798  -0.1010

         Ground-State ChElPG Net Atomic Charges

     Atom                 Charge (a.u.)
  ----------------------------------------
      1 C                     0.468347
      2 C                    -0.288601
      3 C                    -0.007622
      4 C                     0.128320
      5 C                     0.031360
      6 C                    -0.625976
      7 O                    -0.799454
      8 O                    -0.766144
      9 C                     0.745110
     10 C                     0.048236
     11 C                     0.167104
     12 C                     0.108585
     13 C                    -0.528159
     14 H                    -0.123525
     15 H                    -0.196668
     16 H                    -0.059445
     17 H                    -0.062929
     18 H                    -0.006582
     19 H                    -0.082076
     20 H                    -0.069846
     21 H                    -0.082264
     22 H                    -0.062692
     23 H                    -0.088852
     24 H                    -0.064850
     25 C                     0.169226
     26 C                    -0.288623
     27 C                    -0.091619
     28 C                     0.190638
     29 C                    -0.148126
     30 C                     0.381198
     31 C                    -0.134163
     32 C                     0.151673
     33 C                    -0.180775
     34 C                     0.374336
     35 C                    -0.076413
     36 C                     0.078316
     37 C                    -0.343776
     38 C                    -0.167929
     39 C                     0.562897
     40 C                    -0.370193
     41 C                    -0.364188
     42 H                     0.177425
     43 H                     0.087151
     44 H                     0.021392
     45 H                     0.064951
     46 H                     0.011407
     47 H                     0.020271
     48 H                    -0.014145
     49 H                    -0.038350
     50 H                     0.022807
     51 H                    -0.016419
     52 H                    -0.087551
     53 H                    -0.001256
     54 H                     0.016712
     55 H                    -0.048817
     56 H                     0.022625
     57 H                     0.022280
     58 H                     0.017200
     59 C                    -0.396260
     60 H                    -0.005375
     61 H                    -0.002288
     62 H                    -0.041010
     63 H                     0.027897
     64 H                     0.066741
     65 H                     0.072912
     66 H                     0.035510
     67 H                     0.013515
     68 H                     0.025647
     69 H                    -0.104305
     70 H                     0.050604
     71 H                     0.068419
     72 H                     0.061590
     73 H                     0.049838
     74 H                     0.063483
     75 H                     0.062390
     76 H                    -0.064071
     77 H                     0.081362
     78 H                     0.063250
     79 H                     0.068617
  ----------------------------------------
  Sum of atomic charges =    -2.000000

                    Cartesian Multipole Moments
 -----------------------------------------------------------------
    Charge (ESU x 10^10)
                -9.6064
    Dipole Moment (Debye)
         X     -75.0641      Y       0.7713      Z      -3.6976
       Tot      75.1591
    Quadrupole Moments (Debye-Ang)
        XX    -843.2847     XY      25.4522     YY    -262.9631
        XZ     -40.2587     YZ       3.3112     ZZ    -225.5443

 Total job time:  4148.99s(wall), 26365.36s(cpu)
        *  Thank you very much for using Q-Chem.  Have a nice day.  *
