 Q-Chem 5.4, Q-Chem, Inc., Pleasanton, CA (2021)
 Q-Chem 5.4.0 for Intel X86 EM64T Linux

User input:
--------------------------------------------------------------
$molecule
0 1
N                 -2.7984350000     -2.0085050000      0.5223000000
C                 -2.4843030000     -0.7165100000      0.2495820000
C                 -3.5309810000      0.2262600000      0.1045150000
C                 -3.2733210000      1.5520220000     -0.1727480000
C                 -1.9587880000      2.0043170000     -0.3193840000
C                 -0.9109050000      1.1052170000     -0.1832200000
C                  0.4714640000      1.6268230000     -0.3467820000
O                  0.6821630000      2.8041750000     -0.5922150000
C                  1.6085830000      0.6680340000     -0.2026620000
C                  2.8940300000      1.1843790000     -0.3615440000
C                  3.9967560000      0.3516310000     -0.2412180000
C                  3.8123890000     -0.9966230000      0.0380350000
C                  2.5298090000     -1.5217260000      0.1986010000
Cl                 2.4780700000     -3.2385860000      0.5466770000
C                  1.3887950000     -0.6995430000      0.0818330000
C                 -0.0149930000     -1.2085490000      0.2437840000
O                 -0.2157270000     -2.3979630000      0.4911470000
C                 -1.1357170000     -0.2642270000      0.1014880000
H                 -3.7611740000     -2.2812090000      0.6193330000
H                 -2.0484630000     -2.6792410000      0.6254870000
H                 -4.5541410000     -0.1178860000      0.2169410000
H                 -4.0996320000      2.2462500000     -0.2772020000
H                 -1.7346860000      3.0397560000     -0.5369210000
H                  2.9982520000      2.2394770000     -0.5782350000
H                  4.9998290000      0.7435060000     -0.3630780000
H                  4.6611250000     -1.6612790000      0.1354870000
$end

$rem
BASIS  =  6-311++G(d,p)
GUI  =  2
JOB_TYPE  =  SP
METHOD  =  B3LYP
SCF_CONVERGENCE  = 8
SOLVENT_METHOD = sm12
$end

$smx
solvent dimethylformamide
charges CM5
$end

--------------------------------------------------------------

             Standard Nuclear Orientation (Angstroms)
    I     Atom           X                Y                Z
 ----------------------------------------------------------------
    1      N      -2.7984350000    -2.0085050000     0.5223000000
    2      C      -2.4843030000    -0.7165100000     0.2495820000
    3      C      -3.5309810000     0.2262600000     0.1045150000
    4      C      -3.2733210000     1.5520220000    -0.1727480000
    5      C      -1.9587880000     2.0043170000    -0.3193840000
    6      C      -0.9109050000     1.1052170000    -0.1832200000
    7      C       0.4714640000     1.6268230000    -0.3467820000
    8      O       0.6821630000     2.8041750000    -0.5922150000
    9      C       1.6085830000     0.6680340000    -0.2026620000
   10      C       2.8940300000     1.1843790000    -0.3615440000
   11      C       3.9967560000     0.3516310000    -0.2412180000
   12      C       3.8123890000    -0.9966230000     0.0380350000
   13      C       2.5298090000    -1.5217260000     0.1986010000
   14      Cl      2.4780700000    -3.2385860000     0.5466770000
   15      C       1.3887950000    -0.6995430000     0.0818330000
   16      C      -0.0149930000    -1.2085490000     0.2437840000
   17      O      -0.2157270000    -2.3979630000     0.4911470000
   18      C      -1.1357170000    -0.2642270000     0.1014880000
   19      H      -3.7611740000    -2.2812090000     0.6193330000
   20      H      -2.0484630000    -2.6792410000     0.6254870000
   21      H      -4.5541410000    -0.1178860000     0.2169410000
   22      H      -4.0996320000     2.2462500000    -0.2772020000
   23      H      -1.7346860000     3.0397560000    -0.5369210000
   24      H       2.9982520000     2.2394770000    -0.5782350000
   25      H       4.9998290000     0.7435060000    -0.3630780000
   26      H       4.6611250000    -1.6612790000     0.1354870000
 ----------------------------------------------------------------

   15   -1203.9457484032      7.04e-09  Convergence criterion met
 Total energy in the final basis set =    -1203.9693767580

                    Orbital Energies (a.u.)
 --------------------------------------------------------------

 Alpha MOs
 -- Occupied --
******** -19.1252 -19.1226 -14.3326 -10.2814 -10.2788 -10.2619 -10.2478
-10.2224 -10.2130 -10.2052 -10.2048 -10.2022 -10.2021 -10.1982 -10.1960
-10.1920 -10.1859  -9.4733  -7.2380  -7.2285  -7.2273  -1.0618  -1.0598
 -0.9429  -0.9115  -0.8713  -0.8562  -0.8124  -0.7739  -0.7623  -0.7543
 -0.6886  -0.6675  -0.6532  -0.6122  -0.5880  -0.5746  -0.5567  -0.5283
 -0.5097  -0.5039  -0.4929  -0.4765  -0.4733  -0.4586  -0.4551  -0.4500
 -0.4462  -0.4307  -0.4190  -0.4125  -0.3994  -0.3918  -0.3823  -0.3786
 -0.3756  -0.3467  -0.3325  -0.3278  -0.2912  -0.2819  -0.2784  -0.2666
 -0.2641  -0.2251

          Ground-State Mulliken Net Atomic Charges

     Atom                 Charge (a.u.)
  ----------------------------------------
      1 N                    -0.300208
      2 C                     0.021952
      3 C                     1.343202
      4 C                     0.269853
      5 C                    -0.178612
      6 C                     0.210306
      7 C                    -1.966962
      8 O                    -0.254815
      9 C                     0.039460
     10 C                     0.497212
     11 C                     0.229471
     12 C                     0.871089
     13 C                     0.450912
     14 Cl                    0.356965
     15 C                    -0.781431
     16 C                    -2.067341
     17 O                    -0.189755
     18 C                    -0.921237
     19 H                     0.438611
     20 H                     0.301358
     21 H                     0.318812
     22 H                     0.321938
     23 H                     0.152856
     24 H                     0.195639
     25 H                     0.358975
     26 H                     0.281749
  ----------------------------------------
  Sum of atomic charges =     0.000000

                    Cartesian Multipole Moments
 -----------------------------------------------------------------
    Charge (ESU x 10^10)
                 0.0000
    Dipole Moment (Debye)
         X      -2.2671      Y      -0.4371      Z       0.1849
       Tot       2.3163
    Quadrupole Moments (Debye-Ang)
        XX     -73.2938     XY       4.9429     YY    -119.8702
        XZ      -2.7288     YZ       1.0107     ZZ    -113.8512

 Total job time:  533.51s(wall), 4156.01s(cpu)
        *  Thank you very much for using Q-Chem.  Have a nice day.  *
