 Q-Chem 5.4, Q-Chem, Inc., Pleasanton, CA (2021)
 Q-Chem 5.4.0 for Intel X86 EM64T Linux

User input:
--------------------------------------------------------------
$molecule
-1 2
C                 -2.8513680000      3.9619570000      0.4908780000
C                 -4.1315660000      3.4670770000      0.6250900000
C                 -4.3220160000      2.0745840000      0.5698810000
C                 -1.7423700000      3.1072860000      0.3062140000
C                 -1.9604300000      1.7002900000      0.2561460000
C                 -3.2759410000      1.2056790000      0.3938190000
C                 -0.4058550000      3.6888630000      0.1780050000
C                  0.6902000000      2.7361540000     -0.0042100000
C                  0.4721540000      1.3291670000     -0.0542790000
C                 -0.8643520000      0.7475740000      0.0739060000
C                  2.0057420000      3.2307930000     -0.1419040000
C                  3.0517540000      2.3618710000     -0.3179660000
C                  2.8613250000      0.9693650000     -0.3731500000
C                  1.5811560000      0.4744600000     -0.2389320000
O                 -0.2087990000      4.9280000000      0.2220860000
O                 -1.0614170000     -0.4915480000      0.0297880000
H                 -3.4310540000      0.1341820000      0.3660900000
H                  1.3886560000     -0.5913380000     -0.2736040000
H                 -2.6589170000      5.0277640000      0.5255670000
H                  2.1608080000      4.3022950000     -0.1141890000
H                  3.7085670000      0.3086230000     -0.5104420000
O                 -5.6044570000      1.5209910000      0.8053310000
O                  4.3343710000      2.9151920000     -0.5534490000
C                  5.3536210000      2.6766330000      0.3042790000
C                  6.5957150000      3.4003970000     -0.1647990000
O                  5.2837810000      1.9966830000      1.2957720000
H                 -4.9787470000      4.1278870000      0.7623610000
H                  6.4197620000      4.4788310000     -0.1452980000
H                  6.8262340000      3.1253400000     -1.1962820000
H                  7.4302830000      3.1507380000      0.4877310000
C                 -6.6245790000      1.7611610000     -0.0508900000
C                 -7.8661800000      1.0365520000      0.4181560000
O                 -6.5558020000      2.4429790000     -1.0411770000
H                 -7.6904180000     -0.0418650000      0.3959600000
H                 -8.7015250000      1.2877930000     -0.2327730000
H                 -8.0953560000      1.3092800000      1.4505510000
$end

$rem
BASIS  =  6-311++G(d,p)
GUI  =  2
JOB_TYPE  =  SP
METHOD  =  B3LYP
SCF_CONVERGENCE  = 8
SOLVENT_METHOD = sm12
$end

$smx
solvent dimethylformamide
charges CM5
$end

--------------------------------------------------------------

             Standard Nuclear Orientation (Angstroms)
    I     Atom           X                Y                Z
 ----------------------------------------------------------------
    1      C      -2.8513680000     3.9619570000     0.4908780000
    2      C      -4.1315660000     3.4670770000     0.6250900000
    3      C      -4.3220160000     2.0745840000     0.5698810000
    4      C      -1.7423700000     3.1072860000     0.3062140000
    5      C      -1.9604300000     1.7002900000     0.2561460000
    6      C      -3.2759410000     1.2056790000     0.3938190000
    7      C      -0.4058550000     3.6888630000     0.1780050000
    8      C       0.6902000000     2.7361540000    -0.0042100000
    9      C       0.4721540000     1.3291670000    -0.0542790000
   10      C      -0.8643520000     0.7475740000     0.0739060000
   11      C       2.0057420000     3.2307930000    -0.1419040000
   12      C       3.0517540000     2.3618710000    -0.3179660000
   13      C       2.8613250000     0.9693650000    -0.3731500000
   14      C       1.5811560000     0.4744600000    -0.2389320000
   15      O      -0.2087990000     4.9280000000     0.2220860000
   16      O      -1.0614170000    -0.4915480000     0.0297880000
   17      H      -3.4310540000     0.1341820000     0.3660900000
   18      H       1.3886560000    -0.5913380000    -0.2736040000
   19      H      -2.6589170000     5.0277640000     0.5255670000
   20      H       2.1608080000     4.3022950000    -0.1141890000
   21      H       3.7085670000     0.3086230000    -0.5104420000
   22      O      -5.6044570000     1.5209910000     0.8053310000
   23      O       4.3343710000     2.9151920000    -0.5534490000
   24      C       5.3536210000     2.6766330000     0.3042790000
   25      C       6.5957150000     3.4003970000    -0.1647990000
   26      O       5.2837810000     1.9966830000     1.2957720000
   27      H      -4.9787470000     4.1278870000     0.7623610000
   28      H       6.4197620000     4.4788310000    -0.1452980000
   29      H       6.8262340000     3.1253400000    -1.1962820000
   30      H       7.4302830000     3.1507380000     0.4877310000
   31      C      -6.6245790000     1.7611610000    -0.0508900000
   32      C      -7.8661800000     1.0365520000     0.4181560000
   33      O      -6.5558020000     2.4429790000    -1.0411770000
   34      H      -7.6904180000    -0.0418650000     0.3959600000
   35      H      -8.7015250000     1.2877930000    -0.2327730000
   36      H      -8.0953560000     1.3092800000     1.4505510000
 ----------------------------------------------------------------

   16   -1144.9089442157      7.22e-09  Convergence criterion met
 Total energy in the final basis set =    -1145.0009563967

                    Orbital Energies (a.u.)
 --------------------------------------------------------------

 Alpha MOs
 -- Occupied --
-19.1836 -19.1836 -19.1208 -19.1208 -19.0787 -19.0787 -10.3138 -10.3138
-10.2439 -10.2439 -10.2283 -10.2283 -10.1868 -10.1868 -10.1838 -10.1838
-10.1833 -10.1833 -10.1815 -10.1814 -10.1807 -10.1807 -10.1775 -10.1775
 -1.1217  -1.1216  -1.0377  -1.0377  -1.0062  -1.0039  -0.8733  -0.8660
 -0.8030  -0.7785  -0.7707  -0.7630  -0.7472  -0.7342  -0.6825  -0.6632
 -0.6479  -0.6215  -0.6049  -0.5832  -0.5586  -0.5451  -0.5100  -0.5020
 -0.4977  -0.4965  -0.4905  -0.4877  -0.4807  -0.4718  -0.4601  -0.4468
 -0.4412  -0.4368  -0.4297  -0.4271  -0.4199  -0.4148  -0.4123  -0.4094
 -0.4047  -0.3914  -0.3883  -0.3853  -0.3834  -0.3730  -0.3691  -0.3663
 -0.3500  -0.3444  -0.3287  -0.3257  -0.2920  -0.2916  -0.2724  -0.2654
 -0.2643  -0.2525  -0.2490  -0.2404  -0.1466

 Beta MOs
 -- Occupied --
-19.1836 -19.1836 -19.1208 -19.1208 -19.0728 -19.0728 -10.3137 -10.3137
-10.2434 -10.2434 -10.2269 -10.2269 -10.1863 -10.1863 -10.1833 -10.1833
-10.1828 -10.1828 -10.1814 -10.1814 -10.1800 -10.1800 -10.1775 -10.1775
 -1.1215  -1.1215  -1.0376  -1.0376  -0.9960  -0.9935  -0.8709  -0.8649
 -0.7996  -0.7775  -0.7694  -0.7607  -0.7465  -0.7330  -0.6763  -0.6620
 -0.6463  -0.6197  -0.6040  -0.5819  -0.5558  -0.5436  -0.5092  -0.5013
 -0.4976  -0.4962  -0.4898  -0.4873  -0.4782  -0.4711  -0.4595  -0.4460
 -0.4409  -0.4363  -0.4247  -0.4204  -0.4179  -0.4143  -0.4096  -0.4039
 -0.4037  -0.3899  -0.3879  -0.3848  -0.3706  -0.3683  -0.3648  -0.3599
 -0.3479  -0.3383  -0.3282  -0.3198  -0.2918  -0.2913  -0.2643  -0.2552
 -0.2484  -0.2467  -0.2435  -0.2349

          Ground-State Mulliken Net Atomic Charges

     Atom                 Charge (a.u.)    Spin (a.u.)
  --------------------------------------------------------
      1 C                     0.121735       0.027976
      2 C                     1.610833       0.037086
      3 C                     1.032023       0.035596
      4 C                    -0.959530       0.033867
      5 C                    -1.120019       0.059215
      6 C                     0.029417       0.019187
      7 C                    -2.046475       0.070564
      8 C                    -1.120738       0.059229
      9 C                    -0.959365       0.033889
     10 C                    -2.046007       0.070558
     11 C                     0.028954       0.019167
     12 C                     1.031182       0.035633
     13 C                     1.612732       0.037107
     14 C                     0.122762       0.027954
     15 O                    -0.307826       0.222664
     16 O                    -0.307786       0.222648
     17 H                     0.187256      -0.001745
     18 H                     0.183786      -0.001332
     19 H                     0.183764      -0.001334
     20 H                     0.187160      -0.001745
     21 H                     0.312602      -0.002919
     22 O                     0.102060       0.000770
     23 O                     0.102185       0.000769
     24 C                    -0.179661      -0.000054
     25 C                     0.139263      -0.000296
     26 O                    -0.317210      -0.000680
     27 H                     0.312445      -0.002918
     28 H                     0.230861       0.000035
     29 H                     0.245010       0.000086
     30 H                     0.234829      -0.000039
     31 C                    -0.179046      -0.000054
     32 C                     0.139326      -0.000295
     33 O                    -0.317269      -0.000672
     34 H                     0.230850       0.000035
     35 H                     0.234871      -0.000039
     36 H                     0.245027       0.000086
  --------------------------------------------------------
  Sum of atomic charges =    -1.000000

                    Cartesian Multipole Moments
 -----------------------------------------------------------------
    Charge (ESU x 10^10)
                -4.8032
    Dipole Moment (Debye)
         X       3.0513      Y     -10.6585      Z      -0.6067
       Tot      11.1032
    Quadrupole Moments (Debye-Ang)
        XX    -139.3464     XY      18.5112     YY    -189.1712
        XZ     -22.2998     YZ       1.4104     ZZ    -150.9500

 Total job time:  1276.05s(wall), 9856.77s(cpu)
        *  Thank you very much for using Q-Chem.  Have a nice day.  *
