 Gaussian 16, Revision A.03,
 Gaussian 16:  ES64L-G16RevA.03 25-Dec-2016

 --------------------------------------
 #P UB3LYP/6-311++G(d,p) nosym opt freq
 --------------------------------------

 -------
 Radical
 -------
 Symbolic Z-matrix:
 Charge = -1 Multiplicity = 2

 SCF Done:  E(UB3LYP) =  -1352.21983045     A.U. after   25 cycles
 SCF Done:  E(UB3LYP) =  -1352.23228852     A.U. after   19 cycles
 SCF Done:  E(UB3LYP) =  -1352.23404324     A.U. after   19 cycles
 SCF Done:  E(UB3LYP) =  -1352.23473467     A.U. after   19 cycles
 SCF Done:  E(UB3LYP) =  -1352.23532230     A.U. after   22 cycles
 SCF Done:  E(UB3LYP) =  -1352.23551976     A.U. after   23 cycles
 SCF Done:  E(UB3LYP) =  -1352.23565000     A.U. after   16 cycles
 SCF Done:  E(UB3LYP) =  -1352.23566850     A.U. after   15 cycles
 SCF Done:  E(UB3LYP) =  -1352.23567537     A.U. after   14 cycles
 SCF Done:  E(UB3LYP) =  -1352.23567897     A.U. after   13 cycles
 SCF Done:  E(UB3LYP) =  -1352.23568029     A.U. after   12 cycles
 SCF Done:  E(UB3LYP) =  -1352.23568234     A.U. after   13 cycles
 SCF Done:  E(UB3LYP) =  -1352.23568483     A.U. after   12 cycles
 SCF Done:  E(UB3LYP) =  -1352.23568570     A.U. after   13 cycles
 SCF Done:  E(UB3LYP) =  -1352.23568639     A.U. after   12 cycles
 SCF Done:  E(UB3LYP) =  -1352.23568660     A.U. after   12 cycles
 SCF Done:  E(UB3LYP) =  -1352.23568663     A.U. after   11 cycles
 Optimization completed.
    -- Stationary point found.
 Normal termination of Gaussian 16 at Thu Dec 21 22:07:45 2023.

 ----------------------------------------------------------------------
 #P Geom=AllCheck Guess=TCheck SCRF=Check GenChk UB3LYP/6-311++G(d,p) F
 req
 ----------------------------------------------------------------------

 Structure from the checkpoint file:  "215-rad.chk"
 -------
 Radical
 -------
 Charge = -1 Multiplicity = 2

                          Input orientation:
 ---------------------------------------------------------------------
 Center     Atomic      Atomic             Coordinates (Angstroms)
 Number     Number       Type             X           Y           Z
 ---------------------------------------------------------------------
      1          6           0        5.019158   -2.396469    0.572236
      2          6           0        5.823552   -1.707093   -0.314657
      3          6           0        5.237628   -0.897377   -1.309016
      4          6           0        3.614073   -2.305061    0.501641
      5          6           0        3.022416   -1.489056   -0.500042
      6          6           0        3.863029   -0.793844   -1.395503
      7          6           0        2.801377   -3.057665    1.469626
      8          6           0        1.348237   -2.912796    1.334792
      9          6           0        0.757578   -2.089959    0.324257
     10          6           0        1.565848   -1.347328   -0.633302
     11          6           0        0.516156   -3.608237    2.227177
     12          6           0       -0.653910   -1.996585    0.257341
     13          6           0       -1.465100   -2.677605    1.133278
     14          8           0        3.319466   -3.776268    2.349047
     15          8           0        1.051900   -0.625551   -1.523127
     16          1           0        5.440011   -3.026437    1.347219
     17          1           0        6.904086   -1.787669   -0.247133
     18          1           0        5.868699   -0.354900   -2.006569
     19          1           0       -2.543350   -2.595069    1.088732
     20          1           0        3.386769   -0.178732   -2.149934
     21          1           0        0.977667   -4.224923    2.988257
     22          1           0       -1.074096   -1.361146   -0.513041
     23          6           0       -0.857683   -3.488342    2.125624
     24         16           0       -1.886533   -4.398429    3.229508
     25          8           0       -1.171136   -4.794473    4.441107
     26          8           0       -3.200130   -3.764840    3.363257
     27          8           0       -2.107684   -5.777281    2.316979
     28          6           0       -2.923117   -6.789865    2.929152
     29          1           0       -2.472350   -7.136513    3.862595
     30          1           0       -2.957299   -7.606367    2.208689
     31          1           0       -3.933013   -6.414160    3.114168
 ---------------------------------------------------------------------

 SCF Done:  E(UB3LYP) =  -1352.23568663     A.U. after    2 cycles

 Alpha  occ. eigenvalues --  -88.98038 -19.07579 -19.02914 -19.02906 -18.96950
 Alpha  occ. eigenvalues --  -18.96458 -10.14940 -10.12157 -10.11383 -10.10942
 Alpha  occ. eigenvalues --  -10.08708 -10.08521 -10.07677 -10.07576 -10.07361
 Alpha  occ. eigenvalues --  -10.07336 -10.07290 -10.07088 -10.07035 -10.06969
 Alpha  occ. eigenvalues --  -10.06859  -8.04157  -6.00546  -6.00357  -6.00186
 Alpha  occ. eigenvalues --   -1.04865  -0.94599  -0.92025  -0.89829  -0.89044
 Alpha  occ. eigenvalues --   -0.77013  -0.75460  -0.69898  -0.66889  -0.65316
 Alpha  occ. eigenvalues --   -0.64875  -0.63562  -0.57803  -0.55702  -0.53175
 Alpha  occ. eigenvalues --   -0.50808  -0.49147  -0.46393  -0.45307  -0.43405
 Alpha  occ. eigenvalues --   -0.42288  -0.40052  -0.39525  -0.37517  -0.37101
 Alpha  occ. eigenvalues --   -0.36347  -0.35988  -0.35472  -0.33345  -0.32299
 Alpha  occ. eigenvalues --   -0.31902  -0.31654  -0.31193  -0.30479  -0.30348
 Alpha  occ. eigenvalues --   -0.28884  -0.27261  -0.27063  -0.26065  -0.25521
 Alpha  occ. eigenvalues --   -0.24988  -0.24736  -0.24182  -0.23377  -0.22884
 Alpha  occ. eigenvalues --   -0.22516  -0.20076  -0.16739  -0.16357  -0.15304
 Alpha  occ. eigenvalues --   -0.15143  -0.13620  -0.12726  -0.03694
 Alpha virt. eigenvalues --    0.04081   0.06205   0.06911   0.07405   0.09125
 Alpha virt. eigenvalues --    0.09370   0.09440   0.10111   0.10531   0.10982
 Alpha virt. eigenvalues --    0.11496   0.12589   0.13122   0.13615   0.14035

  Beta  occ. eigenvalues --  -88.98036 -19.07569 -19.02905 -19.02902 -18.96425
  Beta  occ. eigenvalues --  -18.95804 -10.14935 -10.12072 -10.11260 -10.10855
  Beta  occ. eigenvalues --  -10.08761 -10.08419 -10.07654 -10.07527 -10.07353
  Beta  occ. eigenvalues --  -10.07242 -10.07127 -10.07036 -10.07006 -10.06943
  Beta  occ. eigenvalues --  -10.06852  -8.04155  -6.00536  -6.00355  -6.00187
  Beta  occ. eigenvalues --   -1.04841  -0.94576  -0.92011  -0.88938  -0.87921
  Beta  occ. eigenvalues --   -0.76776  -0.75326  -0.69521  -0.66684  -0.65151
  Beta  occ. eigenvalues --   -0.64734  -0.63420  -0.57362  -0.55340  -0.52977
  Beta  occ. eigenvalues --   -0.50638  -0.49087  -0.46291  -0.45096  -0.43238
  Beta  occ. eigenvalues --   -0.42217  -0.39919  -0.39506  -0.37426  -0.36927
  Beta  occ. eigenvalues --   -0.36233  -0.35862  -0.35423  -0.33320  -0.32262
  Beta  occ. eigenvalues --   -0.31765  -0.31137  -0.30550  -0.30243  -0.29938
  Beta  occ. eigenvalues --   -0.28474  -0.26894  -0.25964  -0.25494  -0.24909
  Beta  occ. eigenvalues --   -0.24835  -0.24647  -0.23495  -0.23057  -0.22869
  Beta  occ. eigenvalues --   -0.22153  -0.20050  -0.15959  -0.14725  -0.14553
  Beta  occ. eigenvalues --   -0.14031  -0.13097  -0.12149
  Beta virt. eigenvalues --    0.02157   0.04796   0.06530   0.07399   0.07696
  Beta virt. eigenvalues --    0.09151   0.09432   0.09570   0.10110   0.10538
  Beta virt. eigenvalues --    0.10999   0.11494   0.12821   0.13427   0.13637

 Mulliken charges and spin densities:
               1          2
     1  C    0.021091   0.003034
     2  C   -0.375110   0.039454
     3  C   -0.414967   0.015722
     4  C    0.401743   0.035332
     5  C    0.481298   0.017414
     6  C    0.045264   0.030148
     7  C   -0.893359   0.039697
     8  C    0.443452   0.084721
     9  C    0.793335   0.118390
    10  C   -0.605794   0.062604
    11  C    0.110420  -0.031107
    12  C   -0.050966   0.013035
    13  C   -0.391309   0.088745
    14  O   -0.327408   0.194956
    15  O   -0.348154   0.244930
    16  H    0.158762  -0.000657
    17  H    0.132309  -0.003152
    18  H    0.131325  -0.001591
    19  H    0.206862  -0.005787
    20  H    0.161731  -0.002494
    21  H    0.229902   0.001578
    22  H    0.162896  -0.000673
    23  C   -1.204237   0.041025
    24  S    0.226302   0.009888
    25  O   -0.183707   0.003393
    26  O   -0.198701  -0.001439
    27  O   -0.048951   0.000146
    28  C   -0.132409   0.001311
    29  H    0.159023   0.000275
    30  H    0.153534   0.000838
    31  H    0.155823   0.000265
 Sum of Mulliken charges =  -1.00000   1.00000

 Dipole moment (field-independent basis, Debye):
    X=             -5.6237    Y=             11.8019    Z=             -6.6347  Tot=             14.6605
 Quadrupole moment (field-independent basis, Debye-Ang):
   XX=           -165.3431   YY=           -168.0934   ZZ=           -173.8990
   XY=             17.5103   XZ=              2.3679   YZ=             32.4172

  Exact polarizability: 384.218  58.599 200.781 -65.631 -84.284 222.588
 Approx polarizability: 575.540  28.545 313.654 -44.948-141.938 376.408

                      1                      2                      3
                      A                      A                      A
 Frequencies --     20.1574                34.7317                51.4542
 Red. masses --      4.9780                 6.3869                 3.2731
 Frc consts  --      0.0012                 0.0045                 0.0051
 IR Inten    --      2.3931                 1.7773                 1.4978

                      4                      5                      6
                      A                      A                      A
 Frequencies --     70.7430               108.2627               117.8542
 Red. masses --      6.4326                 8.1479                 4.1436
 Frc consts  --      0.0190                 0.0563                 0.0339
 IR Inten    --      3.8604                 0.3086                 0.7568

                      7                      8                      9
                      A                      A                      A
 Frequencies --    140.8824               144.9840               164.0320
 Red. masses --      5.0393                 1.1699                 7.6791
 Frc consts  --      0.0589                 0.0145                 0.1217
 IR Inten    --      1.9574                 0.7793                 4.4872

                     10                     11                     12
                      A                      A                      A
 Frequencies --    207.9336               215.7864               231.8910
 Red. masses --      6.5454                 7.0117                 8.5830
 Frc consts  --      0.1667                 0.1924                 0.2719
 IR Inten    --      2.1239                 4.4538                 1.9432

                     13                     14                     15
                      A                      A                      A
 Frequencies --    260.8728               287.0015               336.6601
 Red. masses --      4.9752                 7.9230                 5.6181
 Frc consts  --      0.1995                 0.3845                 0.3752
 IR Inten    --     12.0266                 1.0389                 0.3884

                     16                     17                     18
                      A                      A                      A
 Frequencies --    368.0462               379.8256               405.4423
 Red. masses --      7.4612                10.6000                 7.6080
 Frc consts  --      0.5955                 0.9010                 0.7369
 IR Inten    --      6.6553                 3.6667                 0.4025

                     19                     20                     21
                      A                      A                      A
 Frequencies --    423.5503               433.8792               452.2094
 Red. masses --      3.4572                 6.4950                 9.0795
 Frc consts  --      0.3654                 0.7204                 1.0939
 IR Inten    --      1.5544                 1.2243                16.6962

                     22                     23                     24
                      A                      A                      A
 Frequencies --    467.0826               478.7965               481.4612
 Red. masses --      3.2612                 9.7861                 8.9943
 Frc consts  --      0.4192                 1.3218                 1.2284
 IR Inten    --      0.1320                 4.4451                 5.5424

                     25                     26                     27
                      A                      A                      A
 Frequencies --    499.8056               530.3463               606.2405
 Red. masses --      9.7459                 5.3302                 8.6750
 Frc consts  --      1.4344                 0.8833                 1.8785
 IR Inten    --      9.1000                17.5853               145.8468

                     28                     29                     30
                      A                      A                      A
 Frequencies --    636.0420               637.1931               655.7764
 Red. masses --      5.9777                 6.9735                 6.1423
 Frc consts  --      1.4248                 1.6682                 1.5563
 IR Inten    --    109.1678                12.8114                58.5285

                     31                     32                     33
                      A                      A                      A
 Frequencies --    671.4859               694.7609               709.4896
 Red. masses --      7.7062                 6.5045                 2.4299
 Frc consts  --      2.0472                 1.8499                 0.7207
 IR Inten    --    283.6412                 5.3142                57.7391

                     34                     35                     36
                      A                      A                      A
 Frequencies --    719.0768               732.5051               783.7109
 Red. masses --      7.6052                 4.8010                 1.6603
 Frc consts  --      2.3169                 1.5178                 0.6008
 IR Inten    --    128.1934                 7.0018                12.6014

                     37                     38                     39
                      A                      A                      A
 Frequencies --    809.2553               827.6865               830.6906
 Red. masses --      2.6739                 6.4701                 1.9496
 Frc consts  --      1.0317                 2.6115                 0.7926
 IR Inten    --      6.9816                38.0020                13.4890

                     40                     41                     42
                      A                      A                      A
 Frequencies --    881.9293               935.0127               960.7420
 Red. masses --      1.5283                 6.6656                 1.5579
 Frc consts  --      0.7004                 3.4334                 0.8472
 IR Inten    --      0.2189                 9.1897                 9.5237

                     43                     44                     45
                      A                      A                      A
 Frequencies --    966.6979               987.1293               990.7145
 Red. masses --      4.5296                 1.3528                 1.2753
 Frc consts  --      2.4940                 0.7767                 0.7375
 IR Inten    --     54.7167                 1.3764                 0.0651

                     46                     47                     48
                      A                      A                      A
 Frequencies --    992.9983              1005.4150              1041.6565
 Red. masses --      1.3257                 8.9508                 2.0067
 Frc consts  --      0.7702                 5.3309                 1.2829
 IR Inten    --      2.4218               356.6993                34.8734

                     49                     50                     51
                      A                      A                      A
 Frequencies --   1060.9531              1100.4014              1110.6757
 Red. masses --      2.3340                 6.5725                 2.1221
 Frc consts  --      1.5479                 4.6891                 1.5424
 IR Inten    --     63.4412               546.6229                19.8897

                     52                     53                     54
                      A                      A                      A
 Frequencies --   1135.2319              1149.8049              1167.4352
 Red. masses --      1.9941                 1.4981                 1.2694
 Frc consts  --      1.5141                 1.1669                 1.0193
 IR Inten    --     58.7161                25.8469                 1.5522

                     55                     56                     57
                      A                      A                      A
 Frequencies --   1179.8706              1184.4082              1196.2890
 Red. masses --      2.9748                 1.3465                 2.3747
 Frc consts  --      2.4399                 1.1129                 2.0023
 IR Inten    --     66.7774                21.1258                 0.9665

                     58                     59                     60
                      A                      A                      A
 Frequencies --   1217.8028              1231.1395              1259.4504
 Red. masses --      2.0233                 2.0009                 1.8082
 Frc consts  --      1.7679                 1.7869                 1.6898
 IR Inten    --     31.7572                26.7174               108.8916

                     61                     62                     63
                      A                      A                      A
 Frequencies --   1277.0371              1328.6831              1357.7618
 Red. masses --     14.2506                 2.3041                10.4835
 Frc consts  --     13.6927                 2.3966                11.3868
 IR Inten    --    119.6123                13.5374                 4.6162

                     64                     65                     66
                      A                      A                      A
 Frequencies --   1368.6059              1407.0045              1455.4464
 Red. masses --     10.1519                 3.3468                 1.1381
 Frc consts  --     11.2035                 3.9036                 1.4205
 IR Inten    --    107.8047               210.9587                 4.3829

                     67                     68                     69
                      A                      A                      A
 Frequencies --   1460.6128              1478.7142              1482.3090
 Red. masses --      2.4356                 3.2576                 1.0571
 Frc consts  --      3.0614                 4.1967                 1.3685
 IR Inten    --     42.9103                64.6171                 5.8178

                     70                     71                     72
                      A                      A                      A
 Frequencies --   1484.6153              1506.4062              1512.4931
 Red. masses --      2.6425                 1.0493                 6.0133
 Frc consts  --      3.4316                 1.4029                 8.1049
 IR Inten    --     34.9049                10.8581               358.8771

                     73                     74                     75
                      A                      A                      A
 Frequencies --   1539.8845              1558.3248              1597.6249
 Red. masses --      6.7446                 6.5301                 7.1805
 Frc consts  --      9.4229                 9.3429                10.7983
 IR Inten    --    208.9068                17.7670               159.4408

                     76                     77                     78
                      A                      A                      A
 Frequencies --   1622.9289              1638.6270              3024.5789
 Red. masses --      7.2434                 7.1892                 1.0297
 Frc consts  --     11.2406                11.3735                 5.5501
 IR Inten    --     10.5752                38.8947                89.0265

                     79                     80                     81
                      A                      A                      A
 Frequencies --   3095.2089              3127.6592              3139.9178
 Red. masses --      1.1072                 1.1037                 1.0851
 Frc consts  --      6.2499                 6.3613                 6.3031
 IR Inten    --     19.0579                16.0432                15.1594

                     82                     83                     84
                      A                      A                      A
 Frequencies --   3158.4718              3185.1247              3185.9317
 Red. masses --      1.0913                 1.0870                 1.0916
 Frc consts  --      6.4145                 6.4970                 6.5279
 IR Inten    --     48.5075                 4.5310                 8.0445

                     85                     86                     87
                      A                      A                      A
 Frequencies --   3188.4397              3202.6695              3204.2214
 Red. masses --      1.0930                 1.0939                 1.0907
 Frc consts  --      6.5469                 6.6110                 6.5978
 IR Inten    --     29.5263                 3.4913                 4.6104

 - Thermochemistry -
 -------------------
 Temperature   298.150 Kelvin.  Pressure   1.00000 Atm.
 Atom     1 has atomic number  6 and mass  12.00000

 Molecular mass:   302.02490 amu.
 Principal axes and moments of inertia in atomic units:
                           1         2         3
     Eigenvalues --  2389.13170********************
           X            0.78614   0.61803  -0.00539
           Y            0.42341  -0.53219   0.73314
           Z           -0.45024   0.57863   0.68005
 This molecule is an asymmetric top.
 Rotational symmetry number  1.
 Warning -- assumption of classical behavior for rotation
           may cause significant error
 Rotational temperatures (Kelvin)      0.03625     0.00696     0.00614
 Rotational constants (GHZ):           0.75540     0.14511     0.12799
 Zero-point vibrational energy     574044.0 (Joules/Mol)
                                  137.19982 (Kcal/Mol)
 Warning -- explicit consideration of  27 degrees of freedom as
           vibrations may cause significant error
 Vibrational temperatures:     29.00    49.97    74.03   101.78   155.77
          (Kelvin)            169.57   202.70   208.60   236.01   299.17
                              310.47   333.64   375.34   412.93   484.38
                              529.54   546.48   583.34   609.39   624.26
                              650.63   672.03   688.88   692.72   719.11
                              763.05   872.24   915.12   916.78   943.52
                              966.12   999.61  1020.80  1034.59  1053.91
                             1127.59  1164.34  1190.86  1195.18  1268.90
                             1345.27  1382.29  1390.86  1420.26  1425.42
                             1428.70  1446.57  1498.71  1526.47  1583.23
                             1598.01  1633.35  1654.31  1679.68  1697.57
                             1704.10  1721.19  1752.15  1771.34  1812.07
                             1837.37  1911.68  1953.52  1969.12  2024.37
                             2094.06  2101.50  2127.54  2132.71  2136.03
                             2167.38  2176.14  2215.55  2242.08  2298.63
                             2335.03  2357.62  4351.69  4453.32  4500.00
                             4517.64  4544.34  4582.68  4583.85  4587.45
                             4607.93  4610.16

 Zero-point correction=                           0.218642 (Hartree/Particle)
 Thermal correction to Energy=                    0.236186
 Thermal correction to Enthalpy=                  0.237130
 Thermal correction to Gibbs Free Energy=         0.170969
 Sum of electronic and zero-point Energies=          -1352.017045
 Sum of electronic and thermal Energies=             -1351.999500
 Sum of electronic and thermal Enthalpies=           -1351.998556
 Sum of electronic and thermal Free Energies=        -1352.064718

                     E (Thermal)             CV                S
                      KCal/Mol        Cal/Mol-Kelvin    Cal/Mol-Kelvin
 Total                  148.209             67.358            139.248
 Electronic               0.000              0.000              1.377
 Translational            0.889              2.981             43.013
 Rotational               0.889              2.981             34.393
 Vibrational            146.432             61.397             60.465
 Vibration     1          0.593              1.986              6.619
 Vibration     2          0.594              1.983              5.539
 Vibration     3          0.596              1.977              4.761
 Vibration     4          0.598              1.968              4.133
 Vibration     5          0.606              1.943              3.300
 Vibration     6          0.608              1.934              3.135
 Vibration     7          0.615              1.912              2.792
 Vibration     8          0.616              1.908              2.737
 Vibration     9          0.623              1.887              2.503
 Vibration    10          0.641              1.829              2.062
 Vibration    11          0.645              1.817              1.994
 Vibration    12          0.653              1.792              1.864
 Vibration    13          0.669              1.744              1.656
 Vibration    14          0.684              1.698              1.492
 Vibration    15          0.717              1.602              1.228
 Vibration    16          0.741              1.538              1.088
 Vibration    17          0.750              1.513              1.040
 Vibration    18          0.770              1.458              0.943
 Vibration    19          0.786              1.419              0.880
 Vibration    20          0.795              1.396              0.846
 Vibration    21          0.811              1.356              0.789
 Vibration    22          0.824              1.323              0.746
 Vibration    23          0.835              1.297              0.713
 Vibration    24          0.838              1.291              0.706
 Vibration    25          0.855              1.250              0.659
 Vibration    26          0.885              1.183              0.586
 Vibration    27          0.965              1.019              0.439

                           ! Non-Optimized Parameters !
 Normal termination of Gaussian 16 at Thu Dec 21 23:46:11 2023.
