 Q-Chem 5.4, Q-Chem, Inc., Pleasanton, CA (2021)
 Q-Chem 5.4.0 for Intel X86 EM64T Linux

User input:
--------------------------------------------------------------
$molecule
-2 1
C                  4.8442370000     -2.8655350000     -0.3520580000
C                  5.5803240000     -1.9750800000     -1.1008990000
C                  4.9917370000     -0.7469320000     -1.5200780000
C                  3.4969770000     -2.5991900000      0.0212990000
C                  2.8985410000     -1.3540140000     -0.4015160000
C                  3.6888670000     -0.4606580000     -1.1688120000
C                  2.7661050000     -3.5339430000      0.8057930000
C                  1.4200180000     -3.1973520000      1.1370560000
C                  0.7931760000     -1.9663430000      0.6923220000
C                  1.5415210000     -0.9890190000     -0.0665040000
C                  0.6798940000     -4.1193020000      1.9730200000
C                 -0.6116970000     -3.8248330000      2.3555570000
C                 -0.5935520000     -1.7122910000      1.0555470000
C                 -1.2081120000     -2.6298350000      1.8772650000
O                  3.3144840000     -4.6695800000      1.2229300000
O                  1.0654010000      0.1633020000     -0.4346970000
O                  1.2780590000     -5.2586020000      2.3828080000
Br                -3.0685550000     -2.3063120000      2.4370020000
N                 -1.2519110000     -0.5964840000      0.5196450000
H                  5.2676900000     -3.8066850000     -0.0168300000
H                  6.6088270000     -2.2066180000     -1.3726280000
H                  5.5687040000     -0.0404910000     -2.1139580000
H                  3.2128080000      0.4668660000     -1.4698050000
H                 -1.1532580000     -4.5060330000      2.9988850000
H                  2.2598070000     -5.1817640000      1.9396270000
H                 -0.5450100000      0.0461540000      0.1210230000
H                 -1.9264100000     -0.1833970000      1.1494250000
$end
$rem
MAX_SCF_CYCLES=200
BASIS  =  6-311++G(d,p)
GUI  =  2
JOB_TYPE  =  SP
METHOD  =  B3LYP
SOLVENT_METHOD = COSMO
$end
$solvent
dielectric 37.219
opticaldielectric 1.43
$end

--------------------------------------------------------------

             Standard Nuclear Orientation (Angstroms)
    I     Atom           X                Y                Z
 ----------------------------------------------------------------
    1      C       4.1626956749    -0.8723332299    -0.0166054623
    2      C       5.1861544008     0.0483222999     0.0039530806
    3      C       4.8849311855     1.4408691444     0.0278499602
    4      C       2.7958016504    -0.4760438058    -0.0167901492
    5      C       2.4880037506     0.9353285682     0.0087033035
    6      C       3.5686744923     1.8534902527     0.0326438465
    7      C       1.7604999435    -1.4514554608    -0.0262962719
    8      C       0.4154456990    -0.9762705514    -0.0289924750
    9      C       0.0891832601     0.4377969295    -0.0372606052
   10      C       1.1332154606     1.4367354373     0.0185780944
   11      C      -0.6475849260    -1.9587541100     0.0071059249
   12      C      -1.9651296788    -1.5539361124     0.0452119962
   13      C      -1.3108111637     0.8362740544    -0.0641112972
   14      C      -2.2526187112    -0.1654075055     0.0024022582
   15      O       2.0313371772    -2.7518505521    -0.0225546882
   16      O       0.9107908908     2.7158172963     0.0862311475
   17      O      -0.3283589845    -3.2708839645     0.0190267174
   18      Br     -4.1601208133     0.3248923923     0.0186052778
   19      N      -1.6377625905     2.1917292746    -0.2107288203
   20      H       4.3627208438    -1.9387301584    -0.0321328736
   21      H       6.2227135150    -0.2845549127     0.0022559871
   22      H       5.6903685134     2.1727920663     0.0420910018
   23      H       3.3061294555     2.9061839969     0.0535175824
   24      H      -2.7556877959    -2.2913257681     0.0948812162
   25      H       0.7511810017    -3.2508373579     0.0007465549
   26      H      -0.7928517708     2.7592288766    -0.0218848893
   27      H      -2.4769260614     2.4615469036     0.2844638040
 ----------------------------------------------------------------

   11   -3393.1394356055      5.80e-06  Convergence criterion met
 Total energy in the final basis set =    -3393.1394356055
    5   -3393.3931066394      9.96e-06  Convergence criterion met
 Total energy in the final basis set =    -3393.3931066394

                    Orbital Energies (a.u.)
 --------------------------------------------------------------

 Alpha MOs
 -- Occupied --
******** -62.4716 -56.2917 -56.2883 -56.2882 -19.0969 -19.0561 -19.0402
-14.2842 -10.2086 -10.1992 -10.1973 -10.1955 -10.1915 -10.1584 -10.1574
-10.1557 -10.1550 -10.1549 -10.1539 -10.1510 -10.1490 -10.1486  -8.6801
 -6.5105  -6.4991  -6.4990  -2.6216  -2.6183  -2.6182  -2.6092  -2.6092
 -1.0202  -0.9608  -0.9574  -0.8932  -0.8378  -0.8193  -0.7891  -0.7514
 -0.7343  -0.7134  -0.7004  -0.6498  -0.6144  -0.6043  -0.5642  -0.5482
 -0.5263  -0.5028  -0.4899  -0.4760  -0.4535  -0.4439  -0.4344  -0.4258
 -0.4084  -0.4067  -0.4001  -0.3951  -0.3820  -0.3773  -0.3721  -0.3654
 -0.3551  -0.3369  -0.3327  -0.3302  -0.3253  -0.3147  -0.2951  -0.2859
 -0.2685  -0.2410  -0.2386  -0.2331  -0.2240  -0.2166  -0.1864  -0.1228

          Ground-State Mulliken Net Atomic Charges

     Atom                 Charge (a.u.)
  ----------------------------------------
      1 C                    -0.076082
      2 C                    -0.499460
      3 C                    -0.554899
      4 C                     0.048500
      5 C                    -0.033338
      6 C                     0.003945
      7 C                    -0.170151
      8 C                     0.544037
      9 C                     0.459896
     10 C                    -0.240227
     11 C                    -0.330081
     12 C                    -0.174288
     13 C                    -0.902982
     14 C                     0.549928
     15 O                    -0.688698
     16 O                    -0.641397
     17 O                    -0.539857
     18 Br                   -0.283203
     19 N                    -0.392206
     20 H                     0.168818
     21 H                     0.186430
     22 H                     0.185998
     23 H                     0.164868
     24 H                     0.213332
     25 H                     0.420681
     26 H                     0.322101
     27 H                     0.258333
  ----------------------------------------
  Sum of atomic charges =    -2.000000

                    Cartesian Multipole Moments
 -----------------------------------------------------------------
    Charge (ESU x 10^10)
                -9.6064
    Dipole Moment (Debye)
         X      -5.6518      Y       3.0658      Z       1.1087
       Tot       6.5246
    Quadrupole Moments (Debye-Ang)
        XX    -172.1007     XY       2.3593     YY    -186.1337
        XZ      -2.9761     YZ       2.6204     ZZ    -135.7468

 Total job time:  185.19s(wall), 600.95s(cpu)
        *  Thank you very much for using Q-Chem.  Have a nice day.  *
