 Gaussian 16, Revision A.03,
 Gaussian 16:  ES64L-G16RevA.03 25-Dec-2016

 ----------------------------------------------------------------------
 #P UB3LYP/6-311++G(d,p) nosym opt freq SCRF=(PCM,Solvent=n,n-DiMethylF
 ormamide)
 ----------------------------------------------------------------------

 --------
 Oxidized
 --------
 Symbolic Z-matrix:
 Charge =  0 Multiplicity = 1

 SCF Done:  E(UB3LYP) =  -8338.13622171     A.U. after   16 cycles
 SCF Done:  E(UB3LYP) =  -8338.13627019     A.U. after   12 cycles
 SCF Done:  E(UB3LYP) =  -8338.13624833     A.U. after   11 cycles
 SCF Done:  E(UB3LYP) =  -8338.13626196     A.U. after   11 cycles
 SCF Done:  E(UB3LYP) =  -8338.13627652     A.U. after   11 cycles
 SCF Done:  E(UB3LYP) =  -8338.13627833     A.U. after   10 cycles
 SCF Done:  E(UB3LYP) =  -8338.13627831     A.U. after   10 cycles
 SCF Done:  E(UB3LYP) =  -8338.13627876     A.U. after    9 cycles
 Optimization completed.
    -- Stationary point found.
 Normal termination of Gaussian 16 at Sat Feb 10 10:37:40 2024.

 ----------------------------------------------------------------------
 #P Geom=AllCheck Guess=TCheck SCRF=Check GenChk UB3LYP/6-311++G(d,p) F
 req
 ----------------------------------------------------------------------

 Structure from the checkpoint file:  "027.chk"
 --------
 Oxidized
 --------
 Charge =  0 Multiplicity = 1

                          Input orientation:
 ---------------------------------------------------------------------
 Center     Atomic      Atomic             Coordinates (Angstroms)
 Number     Number       Type             X           Y           Z
 ---------------------------------------------------------------------
      1          6           0        0.635842   -1.712015   -0.910830
      2          6           0       -0.562452   -1.134088   -0.217120
      3          6           0       -0.478956    0.027426    0.455026
      4          6           0        0.815520    0.784595    0.537971
      5          6           0        1.991754    0.180070   -0.151328
      6          6           0        1.940264   -0.972290   -0.845269
      7          8           0        0.555443   -2.760109   -1.518593
      8          8           0        0.887335    1.835018    1.137320
      9         35           0       -2.150303   -2.144997   -0.366444
     10         35           0       -1.934479    0.829098    1.351229
     11         35           0        3.599577    1.187325    0.019101
     12          6           0        3.098489   -1.618390   -1.547959
     13          6           0        3.838907   -2.641085   -0.655900
     14          6           0        5.016531   -3.293062   -1.388090
     15          6           0        5.763820   -4.321341   -0.531804
     16          6           0        6.946183   -4.974312   -1.257115
     17          6           0        7.685058   -6.006230   -0.399806
     18          1           0        3.797325   -0.846163   -1.872697
     19          1           0        2.722810   -2.129062   -2.436540
     20          1           0        3.134624   -3.413506   -0.330576
     21          1           0        4.198998   -2.138177    0.247862
     22          1           0        5.716576   -2.513172   -1.712937
     23          1           0        4.649960   -3.778791   -2.300999
     24          1           0        5.062857   -5.102060   -0.209466
     25          1           0        6.125816   -3.836690    0.384103
     26          1           0        7.648306   -4.194273   -1.575645
     27          1           0        6.584920   -5.453944   -2.174907
     28          1           0        8.086501   -5.548676    0.510138
     29          1           0        8.521867   -6.452014   -0.944998
     30          1           0        7.016137   -6.817581   -0.095256
 ---------------------------------------------------------------------

 SCF Done:  E(UB3LYP) =  -8338.13627876     A.U. after    1 cycles

 Alpha  occ. eigenvalues -- -482.86053-482.86012-482.85368 -62.51316 -62.51274
 Alpha  occ. eigenvalues --  -62.50637 -56.33373 -56.33330 -56.32976 -56.32936
 Alpha  occ. eigenvalues --  -56.32923 -56.32882 -56.32684 -56.32296 -56.32253
 Alpha  occ. eigenvalues --  -19.16137 -19.16085 -10.31763 -10.31337 -10.28161
 Alpha  occ. eigenvalues --  -10.28032 -10.27119 -10.24017 -10.18979 -10.17676
 Alpha  occ. eigenvalues --  -10.16655 -10.16333 -10.16270 -10.15610  -8.72284
 Alpha  occ. eigenvalues --   -8.72243  -8.71606  -6.55487  -6.55442  -6.54778
 Alpha  occ. eigenvalues --   -6.54160  -6.54122  -6.54006  -6.53966  -6.53484
 Alpha  occ. eigenvalues --   -6.53361  -2.66573  -2.66529  -2.66219  -2.66177
 Alpha  occ. eigenvalues --   -2.66101  -2.66059  -2.65867  -2.65517  -2.65425
 Alpha  occ. eigenvalues --   -2.65045  -2.65043  -2.65007  -2.65005  -2.64395
 Alpha  occ. eigenvalues --   -2.64393  -1.09882  -1.09575  -0.91163  -0.87843
 Alpha  occ. eigenvalues --   -0.82916  -0.81852  -0.80475  -0.78674  -0.75530
 Alpha  occ. eigenvalues --   -0.72357  -0.70453  -0.65934  -0.61924  -0.61267
 Alpha  occ. eigenvalues --   -0.59109  -0.57874  -0.56788  -0.50895  -0.49161
 Alpha  occ. eigenvalues --   -0.48494  -0.48227  -0.46078  -0.45697  -0.44907
 Alpha  occ. eigenvalues --   -0.44654  -0.44405  -0.43233  -0.42387  -0.40464
 Alpha  occ. eigenvalues --   -0.40228  -0.39609  -0.38139  -0.36557  -0.35726
 Alpha  occ. eigenvalues --   -0.35308  -0.33674  -0.33206  -0.33175  -0.33131
 Alpha  occ. eigenvalues --   -0.32484  -0.32431  -0.31647  -0.31234  -0.30945
 Alpha  occ. eigenvalues --   -0.29515  -0.29218  -0.27402
 Alpha virt. eigenvalues --   -0.15262  -0.05842  -0.05047  -0.03164  -0.02182
 Alpha virt. eigenvalues --   -0.00672  -0.00131  -0.00026   0.00883   0.01075
 Alpha virt. eigenvalues --    0.01581   0.02248   0.02605   0.03350   0.03861

  Beta  occ. eigenvalues -- -482.86053-482.86012-482.85368 -62.51316 -62.51274
  Beta  occ. eigenvalues --  -62.50637 -56.33373 -56.33330 -56.32976 -56.32936
  Beta  occ. eigenvalues --  -56.32923 -56.32882 -56.32684 -56.32296 -56.32253
  Beta  occ. eigenvalues --  -19.16137 -19.16085 -10.31763 -10.31337 -10.28161
  Beta  occ. eigenvalues --  -10.28032 -10.27119 -10.24017 -10.18979 -10.17676
  Beta  occ. eigenvalues --  -10.16655 -10.16333 -10.16270 -10.15610  -8.72284
  Beta  occ. eigenvalues --   -8.72243  -8.71606  -6.55487  -6.55442  -6.54778
  Beta  occ. eigenvalues --   -6.54160  -6.54122  -6.54006  -6.53966  -6.53484
  Beta  occ. eigenvalues --   -6.53361  -2.66573  -2.66529  -2.66219  -2.66177
  Beta  occ. eigenvalues --   -2.66101  -2.66059  -2.65867  -2.65517  -2.65425
  Beta  occ. eigenvalues --   -2.65045  -2.65043  -2.65007  -2.65005  -2.64395
  Beta  occ. eigenvalues --   -2.64393  -1.09882  -1.09575  -0.91163  -0.87843
  Beta  occ. eigenvalues --   -0.82916  -0.81852  -0.80475  -0.78674  -0.75530
  Beta  occ. eigenvalues --   -0.72357  -0.70453  -0.65934  -0.61924  -0.61267
  Beta  occ. eigenvalues --   -0.59109  -0.57874  -0.56788  -0.50895  -0.49161
  Beta  occ. eigenvalues --   -0.48494  -0.48227  -0.46078  -0.45697  -0.44907
  Beta  occ. eigenvalues --   -0.44654  -0.44405  -0.43233  -0.42387  -0.40464
  Beta  occ. eigenvalues --   -0.40228  -0.39609  -0.38139  -0.36557  -0.35726
  Beta  occ. eigenvalues --   -0.35308  -0.33674  -0.33206  -0.33175  -0.33131
  Beta  occ. eigenvalues --   -0.32484  -0.32431  -0.31647  -0.31234  -0.30945
  Beta  occ. eigenvalues --   -0.29515  -0.29218  -0.27402
  Beta virt. eigenvalues --   -0.15262  -0.05842  -0.05047  -0.03164  -0.02182
  Beta virt. eigenvalues --   -0.00672  -0.00131  -0.00026   0.00883   0.01075
  Beta virt. eigenvalues --    0.01581   0.02248   0.02605   0.03350   0.03861

 Mulliken charges and spin densities:
               1          2
     1  C   -0.953642  -0.000000
     2  C   -0.214565   0.000000
     3  C    0.563593  -0.000000
     4  C   -0.659065   0.000000
     5  C    0.202230   0.000000
     6  C    2.093347   0.000000
     7  O   -0.183899  -0.000000
     8  O   -0.163917  -0.000000
     9  Br  -0.016477   0.000000
    10  Br  -0.008345  -0.000000
    11  Br   0.003931   0.000000
    12  C   -0.822904  -0.000000
    13  C   -0.488267   0.000000
    14  C   -0.153136  -0.000000
    15  C   -0.256810  -0.000000
    16  C   -0.194745  -0.000000
    17  C   -0.676947   0.000000
    18  H    0.184140   0.000000
    19  H    0.229118   0.000000
    20  H    0.192861  -0.000000
    21  H    0.123628  -0.000000
    22  H    0.129202  -0.000000
    23  H    0.125136  -0.000000
    24  H    0.123578   0.000000
    25  H    0.128821  -0.000000
    26  H    0.133899   0.000000
    27  H    0.133225  -0.000000
    28  H    0.140974  -0.000000
    29  H    0.143889   0.000000
    30  H    0.141148   0.000000
 Sum of Mulliken charges =  -0.00000  -0.00000

 Dipole moment (field-independent basis, Debye):
    X=              1.5520    Y=             -1.5070    Z=             -1.0050  Tot=              2.3853
 Quadrupole moment (field-independent basis, Debye-Ang):
   XX=           -127.3805   YY=           -149.2307   ZZ=           -141.5244
   XY=             -5.8983   XZ=             -5.0221   YZ=             -5.5678

  Exact polarizability: 315.050  14.883 337.166 -15.351  72.437 233.371
 Approx polarizability: 324.891  32.967 414.849  -9.172 107.341 280.170

                      1                      2                      3
                      A                      A                      A
 Frequencies --     16.8494                22.2486                34.7897
 Red. masses --      6.5726                 9.8869                14.0009
 Frc consts  --      0.0011                 0.0029                 0.0100
 IR Inten    --      0.2234                 0.3132                 1.7399

                      4                      5                      6
                      A                      A                      A
 Frequencies --     48.2423                54.1534                69.7022
 Red. masses --      1.5725                 9.7585                 3.4461
 Frc consts  --      0.0022                 0.0169                 0.0099
 IR Inten    --      0.0609                 1.4333                 0.2069

                      7                      8                      9
                      A                      A                      A
 Frequencies --     77.2628               120.8239               129.1627
 Red. masses --      5.8104                 5.0175                 2.7866
 Frc consts  --      0.0204                 0.0432                 0.0274
 IR Inten    --      1.5398                 0.7114                 0.1478

                     10                     11                     12
                      A                      A                      A
 Frequencies --    130.0236               145.1179               146.9908
 Red. masses --      3.9194                 3.0118                 6.3742
 Frc consts  --      0.0390                 0.0374                 0.0811
 IR Inten    --      0.2217                 0.5358                 0.9462

                     13                     14                     15
                      A                      A                      A
 Frequencies --    178.6117               197.8240               226.1900
 Red. masses --     11.0304                27.1221                 4.6797
 Frc consts  --      0.2073                 0.6254                 0.1411
 IR Inten    --      3.3338                 0.4372                 0.2471

                     16                     17                     18
                      A                      A                      A
 Frequencies --    244.7105               250.6426               292.7499
 Red. masses --      1.1490                 4.5154                 6.9065
 Frc consts  --      0.0405                 0.1671                 0.3487
 IR Inten    --      0.0709                 1.1495                 0.9882

                     19                     20                     21
                      A                      A                      A
 Frequencies --    304.6350               332.2488               372.9111
 Red. masses --      8.7028                 9.5598                 4.6514
 Frc consts  --      0.4758                 0.6218                 0.3811
 IR Inten    --      0.3785                 2.3782                 2.5023

                     22                     23                     24
                      A                      A                      A
 Frequencies --    379.0924               424.2451               446.1822
 Red. masses --      4.5170                 4.1079                 5.3265
 Frc consts  --      0.3825                 0.4356                 0.6248
 IR Inten    --      1.8164                 7.8855                 0.3832

                     25                     26                     27
                      A                      A                      A
 Frequencies --    476.4525               525.5575               587.2638
 Red. masses --     10.2351                 6.0709                 8.2565
 Frc consts  --      1.3689                 0.9880                 1.6777
 IR Inten    --      0.3392                52.2291                40.0517

                     28                     29                     30
                      A                      A                      A
 Frequencies --    674.2980               691.1839               730.7888
 Red. masses --      9.2929                 3.6849                 1.0806
 Frc consts  --      2.4894                 1.0372                 0.3400
 IR Inten    --    132.0760                 0.9150                14.0342

                     31                     32                     33
                      A                      A                      A
 Frequencies --    734.5368               745.5301               776.3804
 Red. masses --     10.6244                 1.1878                11.0649
 Frc consts  --      3.3774                 0.3890                 3.9296
 IR Inten    --     33.3486                 2.2347                 5.0037

                     34                     35                     36
                      A                      A                      A
 Frequencies --    797.1092               816.6553               860.2308
 Red. masses --      1.3367                 8.9907                 2.8635
 Frc consts  --      0.5004                 3.5328                 1.2485
 IR Inten    --      6.2631                65.4596                 3.5613

                     37                     38                     39
                      A                      A                      A
 Frequencies --    894.3830               905.5204               974.5495
 Red. masses --      1.9729                 1.6535                 4.9792
 Frc consts  --      0.9298                 0.7988                 2.7863
 IR Inten    --      4.3060                26.8383               174.8980

                     40                     41                     42
                      A                      A                      A
 Frequencies --    997.5797              1011.7859              1015.1587
 Red. masses --      2.1021                 2.1361                 3.1509
 Frc consts  --      1.2326                 1.2884                 1.9132
 IR Inten    --     54.4079                20.5852                27.4730

                     43                     44                     45
                      A                      A                      A
 Frequencies --   1047.2236              1063.3596              1089.3418
 Red. masses --      2.8377                 2.3224                 3.1504
 Frc consts  --      1.8336                 1.5472                 2.2026
 IR Inten    --      6.0148                 9.1527               352.9684

                     46                     47                     48
                      A                      A                      A
 Frequencies --   1127.7776              1147.2700              1204.8156
 Red. masses --      2.4140                 2.2839                 5.8269
 Frc consts  --      1.8090                 1.7711                 4.9834
 IR Inten    --      8.3399               115.9403               141.0533

                     49                     50                     51
                      A                      A                      A
 Frequencies --   1216.1681              1250.0322              1255.1070
 Red. masses --      2.1321                 2.2948                 1.3128
 Frc consts  --      1.8580                 2.1127                 1.2185
 IR Inten    --    133.5711                80.9646                 7.2829

                     52                     53                     54
                      A                      A                      A
 Frequencies --   1289.7516              1312.5594              1322.7886
 Red. masses --      1.4462                 1.3177                 1.1829
 Frc consts  --      1.4174                 1.3375                 1.2195
 IR Inten    --     15.1215                 4.9617                 9.9698

                     55                     56                     57
                      A                      A                      A
 Frequencies --   1331.3869              1335.5624              1353.4653
 Red. masses --      1.0685                 1.0964                 1.3587
 Frc consts  --      1.1159                 1.1523                 1.4665
 IR Inten    --      0.0989                 2.0127                 5.7906

                     58                     59                     60
                      A                      A                      A
 Frequencies --   1381.5083              1395.9805              1404.2357
 Red. masses --      1.4502                 1.5698                 1.2624
 Frc consts  --      1.6307                 1.8025                 1.4666
 IR Inten    --      5.1677                 1.0142                 2.2530

                     61                     62                     63
                      A                      A                      A
 Frequencies --   1472.0978              1473.9910              1479.9209
 Red. masses --      1.0678                 1.0850                 1.0788
 Frc consts  --      1.3634                 1.3889                 1.3921
 IR Inten    --      1.1515                 2.2810                 2.0353

                     64                     65                     66
                      A                      A                      A
 Frequencies --   1488.1784              1488.9900              1498.6958
 Red. masses --      1.0401                 1.0824                 1.0917
 Frc consts  --      1.3572                 1.4139                 1.4447
 IR Inten    --     10.5440                 6.1369                 1.3005

                     67                     68                     69
                      A                      A                      A
 Frequencies --   1506.5906              1591.6317              1642.1884
 Red. masses --      1.0976                11.5891                10.1734
 Frc consts  --      1.4679                17.2975                16.1645
 IR Inten    --     22.8914               348.2314                19.4984

                     70                     71                     72
                      A                      A                      A
 Frequencies --   1709.8186              1723.8729              2993.4397
 Red. masses --     13.0531                13.2235                 1.0573
 Frc consts  --     22.4835                23.1529                 5.5822
 IR Inten    --    920.7111               182.2270                 7.2945

                     73                     74                     75
                      A                      A                      A
 Frequencies --   2999.0872              3005.4402              3012.2124
 Red. masses --      1.0582                 1.0595                 1.0996
 Frc consts  --      5.6078                 5.6384                 5.8785
 IR Inten    --      7.4902               149.7685                 0.0190

                     76                     77                     78
                      A                      A                      A
 Frequencies --   3013.9953              3023.9356              3027.0428
 Red. masses --      1.0355                 1.0602                 1.1010
 Frc consts  --      5.5423                 5.7118                 5.9438
 IR Inten    --     53.8731                55.2685                 2.3533

                     79                     80                     81
                      A                      A                      A
 Frequencies --   3042.2032              3063.3422              3064.1610
 Red. masses --      1.1051                 1.1028                 1.0604
 Frc consts  --      6.0260                 6.0973                 5.8660
 IR Inten    --     81.7039                77.7722                32.9159

                     82                     83                     84
                      A                      A                      A
 Frequencies --   3073.0814              3078.0870              3110.7834
 Red. masses --      1.1027                 1.1011                 1.1049
 Frc consts  --      6.1356                 6.1468                 6.2999
 IR Inten    --    122.1688                71.1611                16.5693

 - Thermochemistry -
 -------------------
 Temperature   298.150 Kelvin.  Pressure   1.00000 Atm.
 Atom     1 has atomic number  6 and mass  12.00000

 Molecular mass:   425.84656 amu.
 Principal axes and moments of inertia in atomic units:
                           1         2         3
     Eigenvalues --  6139.17444********************
           X            0.91109   0.40599   0.07135
           Y           -0.37489   0.88805  -0.26613
           Z           -0.17141   0.21572   0.96129
 This molecule is an asymmetric top.
 Rotational symmetry number  1.
 Warning -- assumption of classical behavior for rotation
           may cause significant error
 Rotational temperatures (Kelvin)      0.01411     0.00525     0.00402
 Rotational constants (GHZ):           0.29397     0.10940     0.08374
 Zero-point vibrational energy     585999.7 (Joules/Mol)
                                  140.05729 (Kcal/Mol)
 Warning -- explicit consideration of  27 degrees of freedom as
           vibrations may cause significant error
 Vibrational temperatures:     24.24    32.01    50.05    69.41    77.91
          (Kelvin)            100.29   111.16   173.84   185.84   187.07
                              208.79   211.49   256.98   284.62   325.44
                              352.08   360.62   421.20   438.30   478.03
                              536.54   545.43   610.39   641.96   685.51
                              756.16   844.94   970.16   994.46  1051.44
                             1056.83  1072.65  1117.04  1146.86  1174.98
                             1237.68  1286.82  1302.84  1402.16  1435.29
                             1455.73  1460.59  1506.72  1529.94  1567.32
                             1622.62  1650.67  1733.46  1749.79  1798.52
                             1805.82  1855.66  1888.48  1903.20  1915.57
                             1921.58  1947.33  1987.68  2008.50  2020.38
                             2118.02  2120.74  2129.28  2141.16  2142.32
                             2156.29  2167.65  2290.00  2362.74  2460.05
                             2480.27  4306.89  4315.02  4324.16  4333.90
                             4336.47  4350.77  4355.24  4377.05  4407.47
                             4408.64  4421.48  4428.68  4475.72

 Zero-point correction=                           0.223195 (Hartree/Particle)
 Thermal correction to Energy=                    0.242420
 Thermal correction to Enthalpy=                  0.243364
 Thermal correction to Gibbs Free Energy=         0.170016
 Sum of electronic and zero-point Energies=          -8337.913083
 Sum of electronic and thermal Energies=             -8337.893859
 Sum of electronic and thermal Enthalpies=           -8337.892915
 Sum of electronic and thermal Free Energies=        -8337.966263

                     E (Thermal)             CV                S
                      KCal/Mol        Cal/Mol-Kelvin    Cal/Mol-Kelvin
 Total                  152.121             65.870            154.374
 Electronic               0.000              0.000              0.000
 Translational            0.889              2.981             44.037
 Rotational               0.889              2.981             36.033
 Vibrational            150.343             59.908             74.304
 Vibration     1          0.593              1.986              6.975
 Vibration     2          0.593              1.985              6.423
 Vibration     3          0.594              1.983              5.536
 Vibration     4          0.595              1.978              4.888
 Vibration     5          0.596              1.976              4.660
 Vibration     6          0.598              1.969              4.162
 Vibration     7          0.599              1.964              3.959
 Vibration     8          0.609              1.932              3.087
 Vibration     9          0.612              1.924              2.958
 Vibration    10          0.612              1.923              2.946
 Vibration    11          0.617              1.908              2.735
 Vibration    12          0.617              1.906              2.711
 Vibration    13          0.629              1.869              2.343
 Vibration    14          0.637              1.843              2.153
 Vibration    15          0.650              1.801              1.909
 Vibration    16          0.660              1.772              1.768
 Vibration    17          0.663              1.762              1.726
 Vibration    18          0.688              1.687              1.458
 Vibration    19          0.696              1.665              1.391
 Vibration    20          0.714              1.611              1.249
 Vibration    21          0.744              1.528              1.068
 Vibration    22          0.749              1.515              1.043
 Vibration    23          0.786              1.418              0.878
 Vibration    24          0.805              1.369              0.807
 Vibration    25          0.833              1.302              0.720
 Vibration    26          0.881              1.193              0.597
 Vibration    27          0.944              1.059              0.472

                           ! Non-Optimized Parameters !
 Normal termination of Gaussian 16 at Sat Feb 10 11:24:01 2024.
