 Q-Chem 5.4, Q-Chem, Inc., Pleasanton, CA (2021)
 Q-Chem 5.4.0 for Intel X86 EM64T Linux

User input:
--------------------------------------------------------------
$molecule
-2 1
C                  0.7901260000      1.7059230000     -0.6366420000
C                 -0.5047370000      1.0407330000     -0.5920940000
C                 -0.6257160000     -0.2751560000     -0.0807200000
C                  0.5543080000     -1.0310760000      0.3156970000
C                  1.8235420000     -0.3609340000      0.2427660000
C                  1.9373100000      0.9473140000     -0.2197310000
C                  3.2831760000      1.6287670000     -0.3174170000
C                  3.0362790000     -1.1363260000      0.7044790000
O                  0.9220930000      2.9300040000     -1.0541190000
O                  0.4767260000     -2.2572530000      0.7405650000
H                  4.0426110000      0.9824700000     -0.7807780000
H                  3.6826840000      1.9214900000      0.6684150000
H                  3.1656160000      2.5406120000     -0.9081000000
H                  2.6937360000     -2.0294870000      1.2328490000
H                  3.6829280000     -0.5403730000      1.3645930000
H                  3.6703480000     -1.4704520000     -0.1342690000
C                 -1.9032790000     -1.0795830000      0.1944790000
C                 -3.0925500000     -0.3577890000      0.8504150000
C                 -2.3459340000     -1.9730120000     -0.9885110000
C                 -1.5937250000      1.9317640000     -1.2046680000
C                 -2.2852650000      2.8657180000     -0.1833620000
C                 -2.5996120000      1.2906510000     -2.1756130000
H                 -1.5524860000     -1.8028070000      0.9391510000
H                 -3.8164820000     -1.0993500000      1.2170030000
H                 -3.6373140000      0.3161610000      0.1876500000
H                 -2.7544310000      0.2303030000      1.7099290000
H                 -3.1665230000     -2.6453320000     -0.6855540000
H                 -1.5000520000     -2.5919460000     -1.2982090000
H                 -2.6894650000     -1.3981380000     -1.8523320000
H                 -0.9978350000      2.6210980000     -1.8132440000
H                 -2.9378500000      3.5921120000     -0.6968290000
H                 -1.5181610000      3.4255030000      0.3576740000
H                 -2.8972560000      2.3253390000      0.5433230000
H                 -3.1372580000      2.0785430000     -2.7220100000
H                 -3.3547520000      0.6632820000     -1.6997670000
H                 -2.0766680000      0.6721460000     -2.9124460000
$end
$rem
MAX_SCF_CYCLES=200
BASIS  =  6-311++G(d,p)
GUI  =  2
JOB_TYPE  =  SP
METHOD  =  B3LYP
SOLVENT_METHOD = COSMO
$end
$solvent
dielectric 37.219
opticaldielectric 1.43
$end

--------------------------------------------------------------

             Standard Nuclear Orientation (Angstroms)
    I     Atom           X                Y                Z
 ----------------------------------------------------------------
    1      C       0.8903425797    -1.4522914020     0.0683729036
    2      C      -0.3602504155    -0.7059341252     0.0583516693
    3      C      -0.3599965506     0.7061060062    -0.0593162930
    4      C       0.8908318304     1.4519989281    -0.0688155273
    5      C       2.1118888413     0.6948071294    -0.0364962795
    6      C       2.1116664554    -0.6955472683     0.0361264556
    7      C       3.4046394961    -1.4763457937     0.0981781652
    8      C       3.4049918464     1.4753317580    -0.0982101458
    9      O       0.9175322375    -2.7508016215     0.1250170691
   10      O       0.9185658931     2.7505000974    -0.1250947823
   11      H       4.1142098765    -1.0468961049     0.8201390976
   12      H       3.9281636073    -1.5073215924    -0.8724510812
   13      H       3.1719128822    -2.5065137586     0.3788565423
   14      H       3.1730535891     2.5047274769    -0.3824569303
   15      H       4.1160919020     1.0435736811    -0.8172282780
   16      H       3.9262729035     1.5095093835     0.8735304768
   17      C      -1.5559042550     1.6495758374    -0.2455257103
   18      C      -2.6663437594     1.2349003650    -1.2256137092
   19      C      -2.1280404754     2.2023481598     1.0813982031
   20      C      -1.5563890110    -1.6490695700     0.2449689398
   21      C      -2.1306300646    -2.2007419077    -1.0814806203
   22      C      -2.6650604450    -1.2350030616     1.2272954164
   23      H      -1.0775917716     2.5253829692    -0.6981006841
   24      H      -3.3039245728     2.1023411401    -1.4479068201
   25      H      -3.3232267228     0.4440327308    -0.8605561508
   26      H      -2.2321034432     0.8903922204    -2.1699073399
   27      H      -2.8727354326     2.9928700440     0.8873157348
   28      H      -1.3122853422     2.6426075207     1.6603833179
   29      H      -2.6105603481     1.4341061768     1.6910367945
   30      H      -1.0776868981    -2.5254094048     0.6960828772
   31      H      -2.8750555282    -2.9913516507    -0.8867224398
   32      H      -1.3158217399    -2.6407190175    -1.6620280199
   33      H      -2.6140382429    -1.4321728566    -1.6899472864
   34      H      -3.3026489810    -2.1024102356     1.4497192458
   35      H      -3.3222757724    -0.4434604459     0.8642720033
   36      H      -2.2290114477    -0.8916864161     2.1711898410
 ----------------------------------------------------------------

   13    -696.1228292829      5.92e-06  Convergence criterion met
 Total energy in the final basis set =     -696.1228292829
    5    -696.3975478096      9.51e-06  Convergence criterion met
 Total energy in the final basis set =     -696.3975478096

                    Orbital Energies (a.u.)
 --------------------------------------------------------------

 Alpha MOs
 -- Occupied --
-19.0053 -19.0053 -10.1523 -10.1523 -10.1379 -10.1379 -10.1345 -10.1344
-10.1331 -10.1331 -10.1291 -10.1291 -10.1179 -10.1174 -10.1135 -10.1130
 -0.9228  -0.9194  -0.7848  -0.7660  -0.7553  -0.7030  -0.6883  -0.6633
 -0.6580  -0.6239  -0.6211  -0.5623  -0.5480  -0.4953  -0.4816  -0.4547
 -0.4257  -0.4134  -0.4131  -0.4068  -0.3999  -0.3874  -0.3841  -0.3823
 -0.3677  -0.3668  -0.3590  -0.3577  -0.3542  -0.3532  -0.3338  -0.3269
 -0.3184  -0.3147  -0.3098  -0.3075  -0.2925  -0.2910  -0.2756  -0.2743
 -0.2107  -0.1916  -0.1835  -0.1768  -0.1048

          Ground-State Mulliken Net Atomic Charges

     Atom                 Charge (a.u.)
  ----------------------------------------
      1 C                    -1.376278
      2 C                     0.758992
      3 C                     0.759509
      4 C                    -1.377513
      5 C                     0.664730
      6 C                     0.663234
      7 C                    -0.538527
      8 C                    -0.537509
      9 O                    -0.719137
     10 O                    -0.719013
     11 H                     0.133192
     12 H                     0.142974
     13 H                     0.160595
     14 H                     0.160441
     15 H                     0.133130
     16 H                     0.143079
     17 C                     0.187081
     18 C                    -0.674483
     19 C                    -0.728852
     20 C                     0.187475
     21 C                    -0.728918
     22 C                    -0.674795
     23 H                     0.179918
     24 H                     0.144964
     25 H                     0.118140
     26 H                     0.135759
     27 H                     0.130027
     28 H                     0.174208
     29 H                     0.107416
     30 H                     0.180019
     31 H                     0.130036
     32 H                     0.174102
     33 H                     0.107196
     34 H                     0.144939
     35 H                     0.118115
     36 H                     0.135752
  ----------------------------------------
  Sum of atomic charges =    -2.000000

                    Cartesian Multipole Moments
 -----------------------------------------------------------------
    Charge (ESU x 10^10)
                -9.6064
    Dipole Moment (Debye)
         X      -7.6839      Y       0.0002      Z       0.0019
       Tot       7.6839
    Quadrupole Moments (Debye-Ang)
        XX    -127.9095     XY      -0.0126     YY    -173.6017
        XZ       0.0021     YZ       1.6053     ZZ    -112.3915

 Total job time:  103.81s(wall), 802.67s(cpu)
        *  Thank you very much for using Q-Chem.  Have a nice day.  *
