 Q-Chem 5.4, Q-Chem, Inc., Pleasanton, CA (2021)
 Q-Chem 5.4.0 for Intel X86 EM64T Linux

User input:
--------------------------------------------------------------
$molecule
-2 1
C                 -1.6944060000      3.0811340000      0.2855080000
C                 -2.8698070000      2.3660800000      0.1503090000
C                 -2.8217750000      0.9761490000     -0.1336300000
C                 -0.4209380000      2.4733830000      0.1476160000
C                 -0.3758990000      1.0576460000     -0.1304940000
C                 -1.5915350000      0.3538290000     -0.2644570000
C                  0.7712950000      3.2901070000      0.3114170000
C                  2.0128030000      2.5696450000      0.1652150000
C                  2.0389060000      1.1861290000     -0.1123630000
C                  0.8962580000      0.3562980000     -0.2702830000
O                  0.6923970000      4.5476980000      0.5910840000
O                  0.9643420000     -0.9037020000     -0.5266870000
N                  3.2336080000      3.2880540000      0.3848570000
C                  3.4008180000      4.4968970000     -0.4161740000
C                  4.4607040000      2.5276240000      0.4535970000
H                 -1.7009350000      4.1444740000      0.5045170000
H                 -3.8305220000      2.8674500000      0.2611280000
H                 -3.7431660000      0.4062950000     -0.2435620000
H                 -1.5129410000     -0.7085040000     -0.4773930000
H                  2.9896090000      0.6805830000     -0.2433100000
H                  2.4726370000      5.0661840000     -0.3735780000
H                  3.6549000000      4.2590030000     -1.4727640000
H                  4.2225660000      5.0975500000     -0.0046210000
H                  4.3655690000      1.7092850000      1.1701700000
H                  5.2726200000      3.1852430000      0.7805580000
H                  4.7717890000      2.0872560000     -0.5210310000
$end
$rem
MAX_SCF_CYCLES=200
BASIS  =  6-311++G(d,p)
GUI  =  2
JOB_TYPE  =  SP
METHOD  =  B3LYP
SOLVENT_METHOD = COSMO
$end
$solvent
dielectric 37.219
opticaldielectric 1.43
$end

--------------------------------------------------------------

             Standard Nuclear Orientation (Angstroms)
    I     Atom           X                Y                Z
 ----------------------------------------------------------------
    1      C       1.9331789637    -1.7202828561     0.0907212564
    2      C       3.2871140219    -1.4463065474     0.0364502353
    3      C       3.7319802340    -0.1016174005    -0.0570471710
    4      C       0.9536247329    -0.6959710105     0.0539111965
    5      C       1.4100205495     0.6708804996    -0.0303784519
    6      C       2.7977619946     0.9202997788    -0.0855059777
    7      C      -0.4521938673    -1.0622764045     0.1230690443
    8      C      -1.3625438870     0.0567080687     0.0927503605
    9      C      -0.8995439533     1.3869973342     0.0043820031
   10      C       0.4641071679     1.7819069557    -0.0564840582
   11      O      -0.8222335871    -2.2942140867     0.2297170703
   12      O       0.8443388785     3.0092790001    -0.1399115906
   13      N      -2.7630548499    -0.2157056285     0.2308762732
   14      C      -3.3107270370    -1.1752540912    -0.7231851342
   15      C      -3.6532991098     0.9072064164     0.4186986967
   16      H       1.5644457758    -2.7387620702     0.1644467753
   17      H       4.0110510361    -2.2597658580     0.0651763293
   18      H       4.7966793032     0.1223307682    -0.1022479520
   19      H       3.0983621226     1.9620502014    -0.1523324677
   20      H      -1.6119723257     2.2035008720    -0.0438658570
   21      H      -2.6384797165    -2.0315508942    -0.7707393298
   22      H      -3.4312774656    -0.7276059202    -1.7344281096
   23      H      -4.3027627577    -1.5019324015    -0.3846942421
   24      H      -3.3053397278     1.5401885858     1.2375174149
   25      H      -4.6529598495     0.5353084189     0.6655673273
   26      H      -3.7600836383     1.5519139311    -0.4832696376
 ----------------------------------------------------------------

   13    -669.2338761853      4.85e-06  Convergence criterion met
 Total energy in the final basis set =     -669.2338761853
    6    -669.5196905907      3.31e-06  Convergence criterion met
 Total energy in the final basis set =     -669.5196905907

                    Orbital Energies (a.u.)
 --------------------------------------------------------------

 Alpha MOs
 -- Occupied --
-19.0230 -19.0180 -14.2962 -10.1735 -10.1721 -10.1684 -10.1622 -10.1606
-10.1486 -10.1466 -10.1453 -10.1433 -10.1365 -10.1347 -10.1182  -0.9419
 -0.9379  -0.9032  -0.8239  -0.7604  -0.7214  -0.7047  -0.6900  -0.6501
 -0.6138  -0.5826  -0.5569  -0.5257  -0.4800  -0.4781  -0.4515  -0.4375
 -0.4318  -0.4197  -0.4004  -0.3925  -0.3812  -0.3758  -0.3707  -0.3650
 -0.3608  -0.3492  -0.3444  -0.3220  -0.3193  -0.3171  -0.3041  -0.2482
 -0.2298  -0.2244  -0.2048  -0.1967  -0.1854  -0.1104

          Ground-State Mulliken Net Atomic Charges

     Atom                 Charge (a.u.)
  ----------------------------------------
      1 C                     0.066853
      2 C                    -0.506425
      3 C                    -0.434603
      4 C                    -0.020775
      5 C                     0.527124
      6 C                     0.041852
      7 C                    -0.864700
      8 C                    -0.432166
      9 C                     0.412954
     10 C                    -0.222301
     11 O                    -0.732226
     12 O                    -0.749783
     13 N                     0.013292
     14 C                    -0.385514
     15 C                    -0.390206
     16 H                     0.156736
     17 H                     0.174314
     18 H                     0.177375
     19 H                     0.147861
     20 H                     0.150118
     21 H                     0.189553
     22 H                     0.108907
     23 H                     0.137158
     24 H                     0.153916
     25 H                     0.161012
     26 H                     0.119677
  ----------------------------------------
  Sum of atomic charges =    -2.000000

                    Cartesian Multipole Moments
 -----------------------------------------------------------------
    Charge (ESU x 10^10)
                -9.6064
    Dipole Moment (Debye)
         X      -2.9421      Y      -2.6825      Z      -0.8945
       Tot       4.0807
    Quadrupole Moments (Debye-Ang)
        XX    -109.2369     XY     -16.2365     YY    -152.7798
        XZ       2.2318     YZ       5.0396     ZZ    -102.2147

 Total job time:  58.20s(wall), 444.11s(cpu)
        *  Thank you very much for using Q-Chem.  Have a nice day.  *
