 Q-Chem 5.4, Q-Chem, Inc., Pleasanton, CA (2021)
 Q-Chem 5.4.0 for Intel X86 EM64T Linux

User input:
--------------------------------------------------------------
$molecule
-1 2
C                  2.8349970000     -0.4171460000      0.4159170000
O                  1.6564280000      0.2835640000      0.8041580000
C                  0.4685850000     -0.2981480000      0.4144920000
C                 -0.3687760000      0.4061670000     -0.4248090000
O                  0.0807380000      1.5925180000     -0.9649190000
C                 -0.6755860000      2.7477050000     -0.6126360000
C                 -1.6810400000     -0.1036140000     -0.8180920000
O                 -2.4432660000      0.5342690000     -1.6004740000
C                 -2.0329720000     -1.3895170000     -0.2638150000
C                 -1.1954200000     -2.0954960000      0.5584260000
C                  0.0999980000     -1.6022430000      0.9623790000
O                  0.8603030000     -2.2420200000      1.7451370000
H                  2.9209360000     -0.4466200000     -0.6787890000
H                  3.6759170000      0.1497760000      0.8228320000
H                  2.8364150000     -1.4308360000      0.8221310000
H                 -0.2160630000      3.5869650000     -1.1404700000
H                 -0.6157780000      2.9304900000      0.4688650000
H                 -1.7178110000      2.6388900000     -0.9201570000
H                 -3.0053180000     -1.7809860000     -0.5488870000
H                 -1.4822860000     -3.0637190000      0.9587110000
$end

$rem
BASIS  =  6-311++G(d,p)
GUI  =  2
JOB_TYPE  =  SP
METHOD  =  B3LYP
SCF_CONVERGENCE  = 8
SOLVENT_METHOD = sm12
$end

$smx
solvent dimethylformamide
charges CM5
$end

--------------------------------------------------------------

             Standard Nuclear Orientation (Angstroms)
    I     Atom           X                Y                Z
 ----------------------------------------------------------------
    1      C       2.8349970000    -0.4171460000     0.4159170000
    2      O       1.6564280000     0.2835640000     0.8041580000
    3      C       0.4685850000    -0.2981480000     0.4144920000
    4      C      -0.3687760000     0.4061670000    -0.4248090000
    5      O       0.0807380000     1.5925180000    -0.9649190000
    6      C      -0.6755860000     2.7477050000    -0.6126360000
    7      C      -1.6810400000    -0.1036140000    -0.8180920000
    8      O      -2.4432660000     0.5342690000    -1.6004740000
    9      C      -2.0329720000    -1.3895170000    -0.2638150000
   10      C      -1.1954200000    -2.0954960000     0.5584260000
   11      C       0.0999980000    -1.6022430000     0.9623790000
   12      O       0.8603030000    -2.2420200000     1.7451370000
   13      H       2.9209360000    -0.4466200000    -0.6787890000
   14      H       3.6759170000     0.1497760000     0.8228320000
   15      H       2.8364150000    -1.4308360000     0.8221310000
   16      H      -0.2160630000     3.5869650000    -1.1404700000
   17      H      -0.6157780000     2.9304900000     0.4688650000
   18      H      -1.7178110000     2.6388900000    -0.9201570000
   19      H      -3.0053180000    -1.7809860000    -0.5488870000
   20      H      -1.4822860000    -3.0637190000     0.9587110000
 ----------------------------------------------------------------

   15    -610.7443124449      8.86e-09  Convergence criterion met
 Total energy in the final basis set =     -610.8238824292

                    Orbital Energies (a.u.)
 --------------------------------------------------------------

 Alpha MOs
 -- Occupied --
-19.1356 -19.1356 -19.0766 -19.0766 -10.2224 -10.2223 -10.2186 -10.2180
-10.2103 -10.2103 -10.1689 -10.1682  -1.0605  -1.0418  -0.9952  -0.9928
 -0.8232  -0.7544  -0.7096  -0.6732  -0.6718  -0.5919  -0.5739  -0.5112
 -0.4975  -0.4889  -0.4680  -0.4514  -0.4460  -0.4431  -0.4275  -0.4073
 -0.3989  -0.3866  -0.3830  -0.3697  -0.3496  -0.3489  -0.2900  -0.2886
 -0.2807  -0.2390  -0.2354  -0.2327  -0.1628

 Beta MOs
 -- Occupied --
-19.1355 -19.1354 -19.0694 -19.0694 -10.2211 -10.2211 -10.2178 -10.2172
-10.2103 -10.2103 -10.1675 -10.1668  -1.0596  -1.0407  -0.9828  -0.9804
 -0.8172  -0.7523  -0.7069  -0.6718  -0.6630  -0.5884  -0.5709  -0.5102
 -0.4958  -0.4854  -0.4651  -0.4491  -0.4448  -0.4421  -0.4259  -0.4002
 -0.3847  -0.3824  -0.3769  -0.3493  -0.3454  -0.3419  -0.2870  -0.2863
 -0.2491  -0.2319  -0.2294  -0.2250

          Ground-State Mulliken Net Atomic Charges

     Atom                 Charge (a.u.)    Spin (a.u.)
  --------------------------------------------------------
      1 C                    -0.022645      -0.000910
      2 O                    -0.105289       0.000076
      3 C                    -0.042463       0.074014
      4 C                    -0.046045       0.074373
      5 O                    -0.103823       0.000061
      6 C                    -0.022530      -0.000887
      7 C                    -0.691233       0.072496
      8 O                    -0.369837       0.262018
      9 C                     0.020876       0.100501
     10 C                     0.019181       0.100458
     11 C                    -0.692973       0.072272
     12 O                    -0.370073       0.261967
     13 H                     0.133655       0.001089
     14 H                     0.231739      -0.000185
     15 H                     0.132444      -0.000180
     16 H                     0.231739      -0.000171
     17 H                     0.133736       0.001093
     18 H                     0.132381      -0.000188
     19 H                     0.215543      -0.008952
     20 H                     0.215617      -0.008946
  --------------------------------------------------------
  Sum of atomic charges =    -1.000000

                    Cartesian Multipole Moments
 -----------------------------------------------------------------
    Charge (ESU x 10^10)
                -4.8032
    Dipole Moment (Debye)
         X       2.9973      Y       3.2315      Z      -0.2708
       Tot       4.4159
    Quadrupole Moments (Debye-Ang)
        XX     -86.8867     XY       3.9986     YY     -84.1247
        XZ     -13.0103     YZ      11.2802     ZZ     -90.5249

 Total job time:  235.42s(wall), 1814.00s(cpu)
        *  Thank you very much for using Q-Chem.  Have a nice day.  *
