 Gaussian 16, Revision A.03,
 Gaussian 16:  ES64L-G16RevA.03 25-Dec-2016

 --------------------------------------
 #P UB3LYP/6-311++G(d,p) nosym opt freq
 --------------------------------------

 -------
 Radical
 -------
 Symbolic Z-matrix:
 Charge = -1 Multiplicity = 2

 SCF Done:  E(UB3LYP) =  -972.874422151     A.U. after   23 cycles
 SCF Done:  E(UB3LYP) =  -972.874422034     A.U. after   11 cycles
 SCF Done:  E(UB3LYP) =  -972.874422277     A.U. after   11 cycles
 SCF Done:  E(UB3LYP) =  -972.874422299     A.U. after   10 cycles
 Optimization completed.
    -- Stationary point found.
 Normal termination of Gaussian 16 at Mon Jan  8 01:36:24 2024.

 ----------------------------------------------------------------------
 #P Geom=AllCheck Guess=TCheck SCRF=Check GenChk UB3LYP/6-311++G(d,p) F
 req
 ----------------------------------------------------------------------

 Structure from the checkpoint file:  "276-rad.chk"
 -------
 Radical
 -------
 Charge = -1 Multiplicity = 2

                          Input orientation:
 ---------------------------------------------------------------------
 Center     Atomic      Atomic             Coordinates (Angstroms)
 Number     Number       Type             X           Y           Z
 ---------------------------------------------------------------------
      1          6           0        4.245735   -0.007297   -0.158698
      2         16           0        3.029319   -1.358307   -0.306456
      3          6           0        1.479686   -0.484341   -0.128677
      4          6           0        1.360455    0.877904    0.068093
      5          6           0        0.094127    1.544103    0.206485
      6          8           0        0.004064    2.787684    0.385663
      7          6           0       -1.099505    0.681687    0.126063
      8          6           0       -2.382386    1.246511    0.250494
      9          6           0       -3.518990    0.459941    0.178596
     10          6           0       -3.398059   -0.929401   -0.022188
     11          6           0       -2.146121   -1.504021   -0.146859
     12          6           0       -0.976786   -0.719116   -0.076329
     13          6           0        0.334910   -1.365839   -0.213376
     14          8           0        0.463142   -2.605791   -0.393101
     15          1           0        4.125987    0.735276   -0.950308
     16          1           0        5.225144   -0.478995   -0.260606
     17          1           0        4.189311    0.485500    0.814123
     18          1           0        2.227787    1.524055    0.129212
     19          1           0       -2.442226    2.318178    0.404181
     20          1           0       -4.502183    0.911009    0.276490
     21          1           0       -4.288706   -1.548673   -0.078993
     22          1           0       -2.024706   -2.570069   -0.301945
 ---------------------------------------------------------------------

 SCF Done:  E(UB3LYP) =  -972.874422299     A.U. after    2 cycles

 Alpha  occ. eigenvalues --  -88.73075 -18.94517 -18.94061 -10.09349 -10.09137
 Alpha  occ. eigenvalues --  -10.08939 -10.07207 -10.05698 -10.05626 -10.04963
 Alpha  occ. eigenvalues --  -10.04934 -10.04907 -10.04732 -10.03591  -7.81595
 Alpha  occ. eigenvalues --   -5.78002  -5.77583  -5.77009  -0.87063  -0.86376
 Alpha  occ. eigenvalues --   -0.73571  -0.70257  -0.65918  -0.62826  -0.61476
 Alpha  occ. eigenvalues --   -0.56375  -0.52668  -0.49517  -0.46820  -0.43277
 Alpha  occ. eigenvalues --   -0.38683  -0.37490  -0.34764  -0.33687  -0.32621
 Alpha  occ. eigenvalues --   -0.32087  -0.30416  -0.28833  -0.28819  -0.27646
 Alpha  occ. eigenvalues --   -0.26651  -0.26362  -0.24518  -0.23081  -0.22729
 Alpha  occ. eigenvalues --   -0.21904  -0.20440  -0.16919  -0.13689  -0.13349
 Alpha  occ. eigenvalues --   -0.11239  -0.10394  -0.09951  -0.02014
 Alpha virt. eigenvalues --    0.07817   0.08406   0.08948   0.10364   0.10481
 Alpha virt. eigenvalues --    0.11018   0.12005   0.12217   0.13518   0.13856
 Alpha virt. eigenvalues --    0.15261   0.15862   0.15877   0.16881   0.16899

  Beta  occ. eigenvalues --  -88.73065 -18.93845 -18.93429 -10.09192 -10.09039
  Beta  occ. eigenvalues --  -10.08941 -10.07044 -10.05672 -10.05574 -10.04953
  Beta  occ. eigenvalues --  -10.04948 -10.04861 -10.04648 -10.03467  -7.81586
  Beta  occ. eigenvalues --   -5.77999  -5.77582  -5.76971  -0.85910  -0.85278
  Beta  occ. eigenvalues --   -0.73364  -0.69949  -0.65638  -0.62667  -0.61290
  Beta  occ. eigenvalues --   -0.55811  -0.52223  -0.49345  -0.46548  -0.43042
  Beta  occ. eigenvalues --   -0.38488  -0.37230  -0.34544  -0.33578  -0.32567
  Beta  occ. eigenvalues --   -0.32007  -0.30377  -0.28540  -0.27521  -0.27290
  Beta  occ. eigenvalues --   -0.26319  -0.25998  -0.22587  -0.22520  -0.21784
  Beta  occ. eigenvalues --   -0.21773  -0.20271  -0.15519  -0.12749  -0.11835
  Beta  occ. eigenvalues --   -0.10615  -0.09806  -0.08974
  Beta virt. eigenvalues --    0.04536   0.07819   0.08400   0.09571   0.10358
  Beta virt. eigenvalues --    0.11023   0.11494   0.12011   0.12357   0.13525
  Beta virt. eigenvalues --    0.13862   0.15266   0.15914   0.15928   0.16912

 Mulliken charges and spin densities:
               1          2
     1  C   -0.474155   0.003107
     2  S   -0.634332   0.023745
     3  C    1.181236   0.103375
     4  C    0.566238   0.096557
     5  C   -0.728044   0.051711
     6  O   -0.394072   0.229724
     7  C    0.526234   0.066545
     8  C    0.176281   0.007682
     9  C   -0.322632   0.043232
    10  C   -0.347739   0.017374
    11  C    0.294003   0.036808
    12  C    0.104607   0.004069
    13  C   -1.815726   0.084094
    14  O   -0.337910   0.251633
    15  H    0.166596  -0.000731
    16  H    0.154889  -0.000183
    17  H    0.166631  -0.000726
    18  H    0.161141  -0.008738
    19  H    0.151252  -0.001497
    20  H    0.124671  -0.003339
    21  H    0.121069  -0.001677
    22  H    0.159761  -0.002763
 Sum of Mulliken charges =  -1.00000   1.00000

 Dipole moment (field-independent basis, Debye):
    X=             -0.3191    Y=              0.7925    Z=              0.1634  Tot=              0.8699
 Quadrupole moment (field-independent basis, Debye-Ang):
   XX=            -97.8086   YY=           -127.3564   ZZ=            -96.6459
   XY=              7.2449   XZ=              1.0898   YZ=             -4.7023

  Exact polarizability: 265.673  -9.769 198.392  -7.390  15.223  95.563
 Approx polarizability: 368.397 -16.413 378.253 -10.068  33.459 150.808

                      1                      2                      3
                      A                      A                      A
 Frequencies --     47.1050                95.2667               133.4239
 Red. masses --      4.0455                 6.0718                 4.4376
 Frc consts  --      0.0053                 0.0325                 0.0465
 IR Inten    --      6.8352                 0.4219                 0.8718

                      4                      5                      6
                      A                      A                      A
 Frequencies --    156.1059               159.7734               205.2435
 Red. masses --      5.7127                 4.7891                 2.1318
 Frc consts  --      0.0820                 0.0720                 0.0529
 IR Inten    --      3.5689                 3.5120                 0.1047

                      7                      8                      9
                      A                      A                      A
 Frequencies --    239.9280               251.9867               272.1320
 Red. masses --      1.6041                 4.4608                 7.1870
 Frc consts  --      0.0544                 0.1669                 0.3136
 IR Inten    --      0.2293                 3.9700                 1.1167

                     10                     11                     12
                      A                      A                      A
 Frequencies --    357.9901               366.5697               372.4357
 Red. masses --      8.4003                10.0364                 6.2293
 Frc consts  --      0.6343                 0.7946                 0.5091
 IR Inten    --      0.0612                12.7182                 0.0129

                     13                     14                     15
                      A                      A                      A
 Frequencies --    441.9264               471.0059               488.9126
 Red. masses --      3.5958                10.2565                 4.2088
 Frc consts  --      0.4138                 1.3406                 0.5927
 IR Inten    --      1.6816                 1.1045                 0.3168

                     16                     17                     18
                      A                      A                      A
 Frequencies --    508.1764               608.8655               650.5715
 Red. masses --      8.8244                 7.4069                 3.4833
 Frc consts  --      1.3426                 1.6178                 0.8686
 IR Inten    --      2.3380                11.1961                 2.5517

                     19                     20                     21
                      A                      A                      A
 Frequencies --    663.4821               686.5382               708.0546
 Red. masses --      5.8651                 3.4451                 5.9619
 Frc consts  --      1.5212                 0.9567                 1.7610
 IR Inten    --      0.8603                19.7614                 2.0918

                     22                     23                     24
                      A                      A                      A
 Frequencies --    725.4840               769.4254               781.1311
 Red. masses --      6.3349                 1.4587                 4.5856
 Frc consts  --      1.9645                 0.5088                 1.6485
 IR Inten    --      4.5652                56.4237                 2.4734

                     25                     26                     27
                      A                      A                      A
 Frequencies --    828.9564               839.9545               854.9391
 Red. masses --      4.9057                 1.5966                 8.7443
 Frc consts  --      1.9861                 0.6637                 3.7657
 IR Inten    --      8.1184                14.9558                76.0059

                     28                     29                     30
                      A                      A                      A
 Frequencies --    870.7301               960.9494               978.7267
 Red. masses --      1.4338                 1.1918                 1.3622
 Frc consts  --      0.6405                 0.6484                 0.7688
 IR Inten    --      0.0212                 4.0960                 2.5148

                     31                     32                     33
                      A                      A                      A
 Frequencies --    980.6091               985.1308              1034.8611
 Red. masses --      1.2569                 1.3216                 2.4056
 Frc consts  --      0.7121                 0.7557                 1.5179
 IR Inten    --      0.1407                 2.3987                17.6852

                     34                     35                     36
                      A                      A                      A
 Frequencies --   1090.5837              1102.9710              1142.8865
 Red. masses --      3.2613                 3.0081                 1.5883
 Frc consts  --      2.2854                 2.1561                 1.2223
 IR Inten    --      9.3724                 9.4765                40.9149

                     37                     38                     39
                      A                      A                      A
 Frequencies --   1155.2628              1222.7455              1241.8686
 Red. masses --      1.4923                 2.7257                 1.8716
 Frc consts  --      1.1734                 2.4010                 1.7007
 IR Inten    --      8.0952                11.7756                24.9453

                     40                     41                     42
                      A                      A                      A
 Frequencies --   1287.0888              1351.3188              1353.6349
 Red. masses --      1.7270                 1.1824                 9.2328
 Frc consts  --      1.6856                 1.2721                 9.9675
 IR Inten    --     13.1349                 3.9083                 7.8099

                     43                     44                     45
                      A                      A                      A
 Frequencies --   1380.9747              1459.7297              1462.0901
 Red. masses --      3.3660                 3.5310                 1.0527
 Frc consts  --      3.7821                 4.4330                 1.3259
 IR Inten    --     67.2593                74.8389                 6.1794

                     46                     47                     48
                      A                      A                      A
 Frequencies --   1465.3167              1488.5856              1495.1257
 Red. masses --      2.8285                 1.1076                 4.3635
 Frc consts  --      3.5783                 1.4460                 5.7470
 IR Inten    --     80.9024                15.0947                14.2373

                     49                     50                     51
                      A                      A                      A
 Frequencies --   1530.3790              1546.4197              1611.6345
 Red. masses --      6.2527                 5.4563                 7.8747
 Frc consts  --      8.6282                 7.6879                12.0509
 IR Inten    --    456.8875                79.6619                19.0168

                     52                     53                     54
                      A                      A                      A
 Frequencies --   1627.7819              3022.6806              3096.1557
 Red. masses --      6.0700                 1.0295                 1.1069
 Frc consts  --      9.4762                 5.5419                 6.2521
 IR Inten    --     23.9517                53.1049                17.1961

                     55                     56                     57
                      A                      A                      A
 Frequencies --   3107.6967              3132.2934              3151.6195
 Red. masses --      1.1027                 1.0846                 1.0911
 Frc consts  --      6.2746                 6.2696                 6.3856
 IR Inten    --     17.5580                15.9878                51.4207

                     58                     59                     60
                      A                      A                      A
 Frequencies --   3179.2084              3180.4229              3182.5083
 Red. masses --      1.0909                 1.0881                 1.0927
 Frc consts  --      6.4966                 6.4847                 6.5205
 IR Inten    --     11.0396                19.6649                22.5752

 - Thermochemistry -
 -------------------
 Temperature   298.150 Kelvin.  Pressure   1.00000 Atm.
 Atom     1 has atomic number  6 and mass  12.00000

 Molecular mass:   204.02450 amu.
 Principal axes and moments of inertia in atomic units:
                           1         2         3
     Eigenvalues --  1522.341254048.990325559.88794
           X            0.98461   0.17130   0.03450
           Y           -0.16495   0.97632  -0.13996
           Z           -0.05766   0.13211   0.98956
 This molecule is an asymmetric top.
 Rotational symmetry number  1.
 Warning -- assumption of classical behavior for rotation
           may cause significant error
 Rotational temperatures (Kelvin)      0.05690     0.02139     0.01558
 Rotational constants (GHZ):           1.18550     0.44573     0.32460
 Zero-point vibrational energy     416093.3 (Joules/Mol)
                                   99.44870 (Kcal/Mol)
 Warning -- explicit consideration of  17 degrees of freedom as
           vibrations may cause significant error
 Vibrational temperatures:     67.77   137.07   191.97   224.60   229.88
          (Kelvin)            295.30   345.20   362.55   391.54   515.07
                              527.41   535.85   635.83   677.67   703.44
                              731.15   876.02   936.03   954.60   987.78
                             1018.73  1043.81  1107.03  1123.87  1192.68
                             1208.51  1230.07  1252.79  1382.59  1408.17
                             1410.88  1417.38  1488.93  1569.11  1586.93
                             1644.36  1662.17  1759.26  1786.77  1851.83
                             1944.25  1947.58  1986.91  2100.23  2103.62
                             2108.26  2141.74  2151.15  2201.87  2224.95
                             2318.78  2342.02  4348.96  4454.68  4471.28
                             4506.67  4534.48  4574.17  4575.92  4578.92

 Zero-point correction=                           0.158482 (Hartree/Particle)
 Thermal correction to Energy=                    0.170401
 Thermal correction to Enthalpy=                  0.171345
 Thermal correction to Gibbs Free Energy=         0.119461
 Sum of electronic and zero-point Energies=           -972.715941
 Sum of electronic and thermal Energies=              -972.704021
 Sum of electronic and thermal Enthalpies=            -972.703077
 Sum of electronic and thermal Free Energies=         -972.754962

                     E (Thermal)             CV                S
                      KCal/Mol        Cal/Mol-Kelvin    Cal/Mol-Kelvin
 Total                  106.928             46.026            109.201
 Electronic               0.000              0.000              1.377
 Translational            0.889              2.981             41.844
 Rotational               0.889              2.981             31.905
 Vibrational            105.151             40.064             34.075
 Vibration     1          0.595              1.979              4.935
 Vibration     2          0.603              1.953              3.549
 Vibration     3          0.613              1.920              2.896
 Vibration     4          0.620              1.896              2.596
 Vibration     5          0.622              1.892              2.552
 Vibration     6          0.640              1.832              2.086
 Vibration     7          0.657              1.779              1.803
 Vibration     8          0.664              1.759              1.717
 Vibration     9          0.675              1.725              1.583
 Vibration    10          0.733              1.559              1.131
 Vibration    11          0.739              1.541              1.094
 Vibration    12          0.744              1.529              1.070
 Vibration    13          0.802              1.379              0.821
 Vibration    14          0.828              1.314              0.735
 Vibration    15          0.845              1.275              0.686
 Vibration    16          0.863              1.232              0.638
 Vibration    17          0.968              1.013              0.435

 Optimization completed.
    -- Stationary point found.
 Normal termination of Gaussian 16 at Mon Jan  8 02:10:23 2024.
