 Gaussian 16, Revision A.03,
 Gaussian 16:  ES64L-G16RevA.03 25-Dec-2016

 ----------------------------------------------------------------
 #P UB3LYP/6-311++G(d,p) SCRF=(PCM,Solvent=n,n-DiMethylFormamide)
 ----------------------------------------------------------------

 ------------------
 Radical PCM in DMF
 ------------------
 Symbolic Z-matrix:
 Charge = -1 Multiplicity = 2

                         Standard orientation:
 ---------------------------------------------------------------------
 Center     Atomic      Atomic             Coordinates (Angstroms)
 Number     Number       Type             X           Y           Z
 ---------------------------------------------------------------------
      1          6           0       -4.006835    0.743930    0.000793
      2         16           0       -2.996103   -0.774342   -0.000103
      3          6           0       -1.334310   -0.114622   -0.000238
      4          6           0       -1.019697    1.230616   -0.000183
      5          6           0        0.331360    1.721743   -0.000195
      6          8           0        0.599965    2.952418   -0.000346
      7          6           0        1.389921    0.694887   -0.000129
      8          6           0        2.742752    1.082367    0.000057
      9          6           0        3.755723    0.139170    0.000336
     10          6           0        3.435511   -1.232935    0.000402
     11          6           0        2.111936   -1.634471    0.000150
     12          6           0        1.066288   -0.688419   -0.000138
     13          6           0       -0.326912   -1.153792   -0.000295
     14          8           0       -0.632806   -2.375534   -0.000412
     15          1           0       -3.829545    1.349215    0.892196
     16          1           0       -5.045549    0.407481    0.001825
     17          1           0       -3.831356    1.349251   -0.890950
     18          1           0       -1.786075    1.996237   -0.000157
     19          1           0        2.956606    2.145352    0.000027
     20          1           0        4.795146    0.454311    0.000519
     21          1           0        4.228855   -1.974947    0.000673
     22          1           0        1.837867   -2.683345    0.000226
 ---------------------------------------------------------------------

 SCF Done:  E(UB3LYP) =  -972.954473249     A.U. after   22 cycles

 The electronic state is 2-A.
 Alpha  occ. eigenvalues --  -88.85103 -19.08056 -19.07606 -10.22621 -10.22419
 Alpha  occ. eigenvalues --  -10.19955 -10.19176 -10.17553 -10.17421 -10.17376
 Alpha  occ. eigenvalues --  -10.17358 -10.17113 -10.17092 -10.16262  -7.93643
 Alpha  occ. eigenvalues --   -5.90026  -5.89628  -5.89091  -1.00647  -0.99983
 Alpha  occ. eigenvalues --   -0.85982  -0.82544  -0.77775  -0.75151  -0.73389
 Alpha  occ. eigenvalues --   -0.68723  -0.64597  -0.61792  -0.58895  -0.55771
 Alpha  occ. eigenvalues --   -0.51028  -0.49778  -0.47022  -0.45733  -0.43276
 Alpha  occ. eigenvalues --   -0.43138  -0.42678  -0.41717  -0.41714  -0.40498
 Alpha  occ. eigenvalues --   -0.39366  -0.38082  -0.38074  -0.35553  -0.34922
 Alpha  occ. eigenvalues --   -0.34156  -0.32683  -0.29844  -0.26239  -0.25787
 Alpha  occ. eigenvalues --   -0.24873  -0.23920  -0.22396  -0.15235
 Alpha virt. eigenvalues --   -0.03462  -0.01701  -0.00383   0.00219   0.01426
 Alpha virt. eigenvalues --    0.02004   0.02471   0.03324   0.04055   0.04544
 Alpha virt. eigenvalues --    0.04793   0.05074   0.05691   0.05879   0.06344

  Beta  occ. eigenvalues --  -88.85088 -19.07437 -19.07029 -10.22416 -10.22285
  Beta  occ. eigenvalues --  -10.19791 -10.19178 -10.17522 -10.17400 -10.17312
  Beta  occ. eigenvalues --  -10.17305 -10.17099 -10.17090 -10.16149  -7.93630
  Beta  occ. eigenvalues --   -5.90021  -5.89623  -5.89039  -0.99557  -0.98964
  Beta  occ. eigenvalues --   -0.85759  -0.82192  -0.77533  -0.74966  -0.73216
  Beta  occ. eigenvalues --   -0.68021  -0.64260  -0.61609  -0.58637  -0.55504
  Beta  occ. eigenvalues --   -0.50807  -0.49497  -0.46751  -0.45649  -0.43204
  Beta  occ. eigenvalues --   -0.42879  -0.42614  -0.41233  -0.40437  -0.40155
  Beta  occ. eigenvalues --   -0.39100  -0.37965  -0.35618  -0.34769  -0.34744
  Beta  occ. eigenvalues --   -0.34069  -0.32546  -0.28200  -0.25166  -0.24806
  Beta  occ. eigenvalues --   -0.24307  -0.23389  -0.21533
  Beta virt. eigenvalues --   -0.08781  -0.02705  -0.00602  -0.00365   0.00225
  Beta virt. eigenvalues --    0.01445   0.02029   0.02481   0.03384   0.04069
  Beta virt. eigenvalues --    0.04817   0.05110   0.05375   0.05753   0.06346

 Mulliken charges and spin densities:
               1          2
     1  C   -0.493789   0.001673
     2  S   -0.616760   0.030419
     3  C    0.977685   0.103425
     4  C    0.543914   0.082612
     5  C   -0.485215   0.081777
     6  O   -0.486933   0.207202
     7  C    0.429433   0.053106
     8  C    0.206028   0.015979
     9  C   -0.390038   0.041048
    10  C   -0.424057   0.011991
    11  C    0.309418   0.049108
    12  C   -0.006028  -0.012603
    13  C   -1.596840   0.120254
    14  O   -0.429657   0.230804
    15  H    0.188865   0.000144
    16  H    0.197473  -0.000218
    17  H    0.188965   0.000148
    18  H    0.193589  -0.007889
    19  H    0.160583  -0.001556
    20  H    0.184646  -0.003003
    21  H    0.181077  -0.001278
    22  H    0.167644  -0.003142
 Sum of Mulliken charges =  -1.00000   1.00000

 Dipole moment (field-independent basis, Debye):
    X=             -0.1148    Y=              0.1449    Z=              0.0031  Tot=              0.1849
 Quadrupole moment (field-independent basis, Debye-Ang):
   XX=            -85.5416   YY=           -127.9988   ZZ=            -95.7130
   XY=            -15.4934   XZ=             -0.0028   YZ=              0.0002

 Normal termination of Gaussian 16 at Sun Jan 21 08:33:08 2024.
