 Q-Chem 5.4, Q-Chem, Inc., Pleasanton, CA (2021)
 Q-Chem 5.4.0 for Intel X86 EM64T Linux

User input:
--------------------------------------------------------------
$molecule
-1 2
C                  5.7700130000     -5.1277640000      1.2384480000
C                  6.7793810000     -5.0403890000      0.2961460000
C                  6.6907420000     -4.0962980000     -0.7443060000
C                  4.6442330000     -4.2829540000      1.1773920000
C                  4.5558100000     -3.3314370000      0.1280150000
C                  5.5926040000     -3.2578320000     -0.8208200000
C                  3.5954340000     -4.4205230000      2.2115630000
C                  2.4942240000     -3.5038610000      2.0447480000
C                  2.3922700000     -2.5754530000      1.0339810000
C                  3.3977890000     -2.4232670000      0.0189780000
O                  3.6810030000     -5.2630720000      3.1344360000
O                  3.3014410000     -1.5733840000     -0.9040070000
H                  5.8122080000     -5.8451540000      2.0499540000
H                  7.6399640000     -5.6999720000      0.3590600000
H                  5.4944800000     -2.5203550000     -1.6095500000
Cl                 1.1869240000     -3.5972710000      3.2410250000
H                  7.4825700000     -4.0270950000     -1.4843630000
H                  1.5316990000     -1.9197390000      0.9752400000
$end
$rem
MAX_SCF_CYCLES=200
BASIS  =  6-311++G(d,p)
GUI  =  2
JOB_TYPE  =  SP
METHOD  =  B3LYP
SOLVENT_METHOD = COSMO
$end
$solvent
dielectric 37.219
opticaldielectric 1.43
$end

--------------------------------------------------------------

             Standard Nuclear Orientation (Angstroms)
    I     Atom           X                Y                Z
 ----------------------------------------------------------------
    1      C      -1.5999831292    -1.7439288864    -0.0000521566
    2      C      -2.9578577249    -1.4782829621     0.0001334100
    3      C      -3.4142166785    -0.1465767055     0.0001999732
    4      C      -0.6553860514    -0.6986783275    -0.0001502962
    5      C      -1.1165047771     0.6436200126    -0.0000934132
    6      C      -2.5015004540     0.8934885678     0.0000851756
    7      C       0.7837392235    -1.0412168800    -0.0002622227
    8      C       1.6528035340     0.1100811296    -0.0000438960
    9      C       1.2232065386     1.4175337606    -0.0000419798
   10      C      -0.1685489193     1.7745727685    -0.0001841047
   11      O       1.1824840235    -2.2286123564    -0.0001501829
   12      O      -0.5580355066     2.9711451833    -0.0000589964
   13      H      -1.2206925379    -2.7593644894    -0.0000936377
   14      H      -3.6716173746    -2.2969148451     0.0002211614
   15      H      -2.8206379461     1.9297061690     0.0001288945
   16      Cl      3.3990386955    -0.2053552032     0.0002002693
   17      H      -4.4798759496     0.0627920722     0.0003814788
   18      H       1.9390684791     2.2308820662     0.0000880215
 ----------------------------------------------------------------

   10    -994.9617781462      7.44e-06  Convergence criterion met
 Total energy in the final basis set =     -994.9617781462
    5    -995.0437770692      4.66e-06  Convergence criterion met
 Total energy in the final basis set =     -995.0437770692

                    Orbital Energies (a.u.)
 --------------------------------------------------------------

 Alpha MOs
 -- Occupied --
******** -19.0900 -19.0878 -10.2393 -10.2344 -10.2288 -10.1829 -10.1803
-10.1764 -10.1758 -10.1747 -10.1742 -10.1740  -9.4650  -7.2291  -7.2204
 -7.2197  -1.0183  -1.0119  -0.8743  -0.8595  -0.7965  -0.7558  -0.7385
 -0.6839  -0.6243  -0.6098  -0.5663  -0.5188  -0.5065  -0.4773  -0.4597
 -0.4322  -0.4313  -0.4280  -0.4263  -0.4088  -0.4009  -0.3926  -0.3663
 -0.3589  -0.3444  -0.3429  -0.3153  -0.2802  -0.2618  -0.2592  -0.2533
 -0.2514  -0.1654

 Beta MOs
 -- Occupied --
******** -19.0839 -19.0816 -10.2376 -10.2331 -10.2269 -10.1827 -10.1799
-10.1761 -10.1756 -10.1740 -10.1739 -10.1730  -9.4650  -7.2292  -7.2202
 -7.2197  -1.0077  -1.0011  -0.8709  -0.8585  -0.7925  -0.7539  -0.7363
 -0.6745  -0.6222  -0.6071  -0.5636  -0.5165  -0.5038  -0.4741  -0.4587
 -0.4293  -0.4261  -0.4224  -0.4168  -0.4059  -0.3980  -0.3710  -0.3583
 -0.3576  -0.3436  -0.3312  -0.3148  -0.2570  -0.2552  -0.2535  -0.2468
 -0.2457

          Ground-State Mulliken Net Atomic Charges

     Atom                 Charge (a.u.)    Spin (a.u.)
  --------------------------------------------------------
      1 C                    -0.016451       0.044848
      2 C                    -0.433151       0.013807
      3 C                    -0.450120       0.024819
      4 C                     0.173351      -0.008680
      5 C                     0.275783       0.026776
      6 C                     0.106484       0.027181
      7 C                    -1.245444       0.121540
      8 C                     1.133345       0.096396
      9 C                     0.103840       0.138598
     10 C                    -0.970477       0.086702
     11 O                    -0.456140       0.223314
     12 O                    -0.504324       0.218804
     13 H                     0.175330      -0.002555
     14 H                     0.212950      -0.001470
     15 H                     0.179219      -0.002343
     16 Cl                    0.285683       0.005432
     17 H                     0.209614      -0.001888
     18 H                     0.220508      -0.011281
  --------------------------------------------------------
  Sum of atomic charges =    -1.000000

                    Cartesian Multipole Moments
 -----------------------------------------------------------------
    Charge (ESU x 10^10)
                -4.8032
    Dipole Moment (Debye)
         X      -4.4562      Y      -1.5741      Z      -0.0002
       Tot       4.7260
    Quadrupole Moments (Debye-Ang)
        XX     -90.5006     XY      13.9161     YY    -116.4563
        XZ      -0.0030     YZ      -0.0016     ZZ     -86.8251

 Total job time:  69.68s(wall), 298.09s(cpu)
        *  Thank you very much for using Q-Chem.  Have a nice day.  *
