 Gaussian 16, Revision A.03,
 Gaussian 16:  ES64L-G16RevA.03 25-Dec-2016

 --------------------------------------
 #P UB3LYP/6-311++G(d,p) nosym opt freq
 --------------------------------------

 -------
 Radical
 -------
 Symbolic Z-matrix:
 Charge = -1 Multiplicity = 2

 SCF Done:  E(UB3LYP) =  -5757.79726259     A.U. after   19 cycles
 SCF Done:  E(UB3LYP) =  -5757.79726618     A.U. after   13 cycles
 SCF Done:  E(UB3LYP) =  -5757.79733350     A.U. after   15 cycles
 SCF Done:  E(UB3LYP) =  -5757.76387550     A.U. after   18 cycles
 SCF Done:  E(UB3LYP) =  -5757.79456122     A.U. after   17 cycles
 SCF Done:  E(UB3LYP) =  -5757.79735264     A.U. after   13 cycles
 SCF Done:  E(UB3LYP) =  -5757.79222533     A.U. after   18 cycles
 SCF Done:  E(UB3LYP) =  -5757.79692533     A.U. after   16 cycles
 SCF Done:  E(UB3LYP) =  -5757.79743675     A.U. after   13 cycles
 SCF Done:  E(UB3LYP) =  -5757.79755727     A.U. after   16 cycles
 SCF Done:  E(UB3LYP) =  -5757.83618577     A.U. after   13 cycles
 SCF Done:  E(UB3LYP) =  -5757.83618819     A.U. after   12 cycles
 SCF Done:  E(UB3LYP) =  -5757.83618873     A.U. after   12 cycles
 SCF Done:  E(UB3LYP) =  -5757.83618897     A.U. after   11 cycles
 SCF Done:  E(UB3LYP) =  -5757.83618944     A.U. after   11 cycles
 SCF Done:  E(UB3LYP) =  -5757.83619022     A.U. after   12 cycles
 SCF Done:  E(UB3LYP) =  -5757.83619105     A.U. after   12 cycles
 SCF Done:  E(UB3LYP) =  -5757.83619159     A.U. after   11 cycles
 SCF Done:  E(UB3LYP) =  -5757.83619186     A.U. after   11 cycles
 Optimization completed.
    -- Stationary point found.
 Normal termination of Gaussian 16 at Wed Jan 17 06:12:15 2024.

 ----------------------------------------------------------------------
 #P Geom=AllCheck Guess=TCheck SCRF=Check GenChk UB3LYP/6-311++G(d,p) F
 req
 ----------------------------------------------------------------------

 Structure from the checkpoint file:  "088-rad.chk"
 -------
 Radical
 -------
 Charge = -1 Multiplicity = 2

                          Input orientation:
 ---------------------------------------------------------------------
 Center     Atomic      Atomic             Coordinates (Angstroms)
 Number     Number       Type             X           Y           Z
 ---------------------------------------------------------------------
      1          6           0        1.842737    0.903121   -0.744024
      2          6           0        0.568562    1.388735   -0.229201
      3          6           0       -0.436605    0.543004    0.176918
      4          6           0       -0.322565   -0.907657    0.095107
      5          6           0        0.951744   -1.395331   -0.428340
      6          6           0        1.960886   -0.551543   -0.819108
      7          8           0        2.781795    1.657613   -1.086533
      8          8           0       -1.239920   -1.692456    0.428384
      9          8           0        3.158313   -1.089478   -1.222724
     10          6           0        3.527664   -0.828474   -2.576743
     11         35           0        0.413936    3.297802   -0.130619
     12         35           0       -2.109090    1.182681    0.863911
     13          1           0        4.498103   -1.306858   -2.723418
     14          1           0        3.610136    0.244857   -2.757714
     15          1           0        2.799047   -1.276470   -3.264366
     16          8           0        1.109538   -2.747848   -0.606804
     17          6           0        1.116914   -3.531729    0.586307
     18          1           0        1.233050   -4.569118    0.266179
     19          1           0        0.180839   -3.413680    1.135306
     20          1           0        1.968686   -3.254078    1.220140
 ---------------------------------------------------------------------

 SCF Done:  E(UB3LYP) =  -5757.83619186     A.U. after    1 cycles

 Alpha  occ. eigenvalues -- -482.70620-482.70620 -62.35895 -62.35894 -56.17927
 Alpha  occ. eigenvalues --  -56.17926 -56.17563 -56.17563 -56.17518 -56.17518
 Alpha  occ. eigenvalues --  -19.02296 -19.02292 -18.96029 -18.96028 -10.11418
 Alpha  occ. eigenvalues --  -10.11416 -10.10675 -10.10615 -10.10448 -10.10386
 Alpha  occ. eigenvalues --  -10.10322 -10.10320  -8.56861  -8.56860  -6.39992
 Alpha  occ. eigenvalues --   -6.39991  -6.38767  -6.38767  -6.38638  -6.38637
 Alpha  occ. eigenvalues --   -2.51090  -2.51089  -2.50762  -2.50761  -2.50663
 Alpha  occ. eigenvalues --   -2.50663  -2.49686  -2.49686  -2.49684  -2.49684
 Alpha  occ. eigenvalues --   -0.94943  -0.93031  -0.88605  -0.88330  -0.73761
 Alpha  occ. eigenvalues --   -0.67854  -0.66983  -0.61440  -0.60022  -0.55326
 Alpha  occ. eigenvalues --   -0.55052  -0.46490  -0.45865  -0.40584  -0.38531
 Alpha  occ. eigenvalues --   -0.37774  -0.35895  -0.33853  -0.33227  -0.32325
 Alpha  occ. eigenvalues --   -0.31580  -0.29673  -0.29226  -0.27150  -0.26854
 Alpha  occ. eigenvalues --   -0.25974  -0.24339  -0.23962  -0.21325  -0.18421
 Alpha  occ. eigenvalues --   -0.18064  -0.17539  -0.17433  -0.15305  -0.14578
 Alpha  occ. eigenvalues --   -0.12242  -0.12163  -0.11236  -0.04444
 Alpha virt. eigenvalues --    0.07713   0.08417   0.09160   0.11005   0.11088
 Alpha virt. eigenvalues --    0.11530   0.11855   0.12548   0.12952   0.13714
 Alpha virt. eigenvalues --    0.14039   0.14227   0.14952   0.15984   0.16165

  Beta  occ. eigenvalues -- -482.70619-482.70618 -62.35893 -62.35893 -56.17928
  Beta  occ. eigenvalues --  -56.17928 -56.17556 -56.17556 -56.17518 -56.17518
  Beta  occ. eigenvalues --  -19.02284 -19.02281 -18.95329 -18.95328 -10.11305
  Beta  occ. eigenvalues --  -10.11303 -10.10511 -10.10450 -10.10375 -10.10318
  Beta  occ. eigenvalues --  -10.10316 -10.10312  -8.56858  -8.56858  -6.39995
  Beta  occ. eigenvalues --   -6.39995  -6.38755  -6.38755  -6.38637  -6.38636
  Beta  occ. eigenvalues --   -2.51091  -2.51090  -2.50756  -2.50756  -2.50666
  Beta  occ. eigenvalues --   -2.50665  -2.49680  -2.49679  -2.49678  -2.49678
  Beta  occ. eigenvalues --   -0.94855  -0.92924  -0.87452  -0.87169  -0.73284
  Beta  occ. eigenvalues --   -0.67646  -0.66821  -0.61273  -0.59839  -0.55202
  Beta  occ. eigenvalues --   -0.54200  -0.46170  -0.45531  -0.40441  -0.38305
  Beta  occ. eigenvalues --   -0.37608  -0.35635  -0.33749  -0.33131  -0.32088
  Beta  occ. eigenvalues --   -0.31377  -0.28521  -0.28269  -0.26649  -0.26584
  Beta  occ. eigenvalues --   -0.24149  -0.24117  -0.23296  -0.20177  -0.18316
  Beta  occ. eigenvalues --   -0.17780  -0.17087  -0.17047  -0.15195  -0.12289
  Beta  occ. eigenvalues --   -0.11664  -0.11567  -0.10633
  Beta virt. eigenvalues --    0.02624   0.07828   0.08490   0.09177   0.11157
  Beta virt. eigenvalues --    0.11536   0.11868   0.12369   0.12580   0.13010
  Beta virt. eigenvalues --    0.13737   0.14066   0.14621   0.16011   0.16096

 Mulliken charges and spin densities:
               1          2
     1  C   -0.453101   0.048142
     2  C    0.305499   0.104553
     3  C    0.305499   0.104509
     4  C   -0.452281   0.048117
     5  C    0.138863   0.079284
     6  C    0.138899   0.079189
     7  O   -0.325600   0.257910
     8  O   -0.325645   0.257991
     9  O   -0.140925  -0.000174
    10  C   -0.277148   0.003174
    11  Br  -0.169352   0.006623
    12  Br  -0.169354   0.006618
    13  H    0.118445   0.000642
    14  H    0.182313  -0.000449
    15  H    0.120606   0.000345
    16  O   -0.140855  -0.000185
    17  C   -0.277257   0.003171
    18  H    0.118484   0.000643
    19  H    0.182219  -0.000449
    20  H    0.120692   0.000345
 Sum of Mulliken charges =  -1.00000   1.00000

 Dipole moment (field-independent basis, Debye):
    X=             -2.2772    Y=             -1.9016    Z=              0.9689  Tot=              3.1210
 Quadrupole moment (field-independent basis, Debye-Ang):
   XX=           -134.8933   YY=           -131.1898   ZZ=           -109.9653
   XY=             -9.8342   XZ=              6.6436   YZ=              0.4234

  Exact polarizability: 190.352   2.504 208.122 -42.242  -4.315 120.722
 Approx polarizability: 308.191  44.807 310.489 -63.617 -17.325 181.253

                      1                      2                      3
                      A                      A                      A
 Frequencies --     48.9069                65.5772                77.0565
 Red. masses --      7.7089                 4.9916                 3.2258
 Frc consts  --      0.0109                 0.0126                 0.0113
 IR Inten    --      0.0268                 4.2109                 9.9504

                      4                      5                      6
                      A                      A                      A
 Frequencies --     83.6338               101.4328               131.1083
 Red. masses --      2.6203                 6.0793                40.2197
 Frc consts  --      0.0108                 0.0369                 0.4073
 IR Inten    --      1.2347                 0.3526                 0.7917

                      7                      8                      9
                      A                      A                      A
 Frequencies --    147.1266               153.5808               161.6488
 Red. masses --      1.2226                 1.1379                 8.2829
 Frc consts  --      0.0156                 0.0158                 0.1275
 IR Inten    --      0.7377                 0.5181                 1.5353

                     10                     11                     12
                      A                      A                      A
 Frequencies --    208.2451               221.6193               233.8888
 Red. masses --      6.0314                 7.8693                 6.5951
 Frc consts  --      0.1541                 0.2277                 0.2126
 IR Inten    --      4.7170                 0.0658                 2.4720

                     13                     14                     15
                      A                      A                      A
 Frequencies --    277.7409               294.3754               340.2612
 Red. masses --      9.2457                 9.6722                 6.2664
 Frc consts  --      0.4202                 0.4938                 0.4275
 IR Inten    --      0.6867                 5.1902                 6.9269

                     16                     17                     18
                      A                      A                      A
 Frequencies --    344.7595               380.1458               415.0869
 Red. masses --     11.8713                11.5616                 9.0175
 Frc consts  --      0.8313                 0.9844                 0.9154
 IR Inten    --      2.3060                 1.8935                 1.4208

                     19                     20                     21
                      A                      A                      A
 Frequencies --    440.0811               493.3845               534.5111
 Red. masses --      7.4902                13.6720                 7.0581
 Frc consts  --      0.8547                 1.9609                 1.1881
 IR Inten    --      2.5220                 6.0132                 5.9503

                     22                     23                     24
                      A                      A                      A
 Frequencies --    612.1927               726.5742               740.4017
 Red. masses --      9.6999                11.4058                11.1067
 Frc consts  --      2.1419                 3.5476                 3.5873
 IR Inten    --      0.5971                 9.3863                41.5243

                     25                     26                     27
                      A                      A                      A
 Frequencies --    754.7489               773.5479               819.9855
 Red. masses --     10.8460                 8.5272                10.4295
 Frc consts  --      3.6402                 3.0063                 4.1317
 IR Inten    --      6.3049                60.0367                78.5129

                     28                     29                     30
                      A                      A                      A
 Frequencies --    962.2702              1003.9984              1098.0298
 Red. masses --      8.6040                 7.4977                11.8031
 Frc consts  --      4.6940                 4.4529                 8.3844
 IR Inten    --     36.1990                 7.1045                65.5171

                     31                     32                     33
                      A                      A                      A
 Frequencies --   1110.3862              1160.7853              1163.8090
 Red. masses --     10.1882                 1.3004                 1.2596
 Frc consts  --      7.4011                 1.0323                 1.0052
 IR Inten    --     16.5827                49.8261                 5.2382

                     34                     35                     36
                      A                      A                      A
 Frequencies --   1184.4342              1186.1215              1235.2458
 Red. masses --      2.6872                 2.2203                 2.5826
 Frc consts  --      2.2211                 1.8405                 2.3217
 IR Inten    --    131.2017               180.6722               185.4643

                     37                     38                     39
                      A                      A                      A
 Frequencies --   1236.1909              1351.9859              1442.4417
 Red. masses --      2.4116                 6.2826                 1.6119
 Frc consts  --      2.1713                 6.7660                 1.9760
 IR Inten    --    157.6171                11.7115                 1.1106

                     40                     41                     42
                      A                      A                      A
 Frequencies --   1459.5764              1468.6075              1480.1019
 Red. masses --      1.2637                 2.7781                 1.1066
 Frc consts  --      1.5862                 3.5303                 1.4283
 IR Inten    --     65.7316                 1.8792                 0.1438

                     43                     44                     45
                      A                      A                      A
 Frequencies --   1481.3856              1513.4720              1513.6213
 Red. masses --      1.0767                 1.0528                 1.0498
 Frc consts  --      1.3922                 1.4209                 1.4171
 IR Inten    --      8.3118                 6.1391                 8.6021

                     46                     47                     48
                      A                      A                      A
 Frequencies --   1536.6991              1555.5485              1614.5203
 Red. masses --      8.9351                11.0658                 9.9698
 Frc consts  --     12.4317                15.7761                15.3118
 IR Inten    --    381.2461                99.7448                 0.0154

                     49                     50                     51
                      A                      A                      A
 Frequencies --   2991.7418              2992.4582              3073.3562
 Red. masses --      1.0412                 1.0417                 1.0899
 Frc consts  --      5.4906                 5.4962                 6.0653
 IR Inten    --    143.8825                87.7218                83.6174

                     52                     53                     54
                      A                      A                      A
 Frequencies --   3073.6625              3107.6531              3107.8991
 Red. masses --      1.0894                 1.1061                 1.1061
 Frc consts  --      6.0639                 6.2938                 6.2947
 IR Inten    --     38.9852                 5.0238                37.4540

 - Thermochemistry -
 -------------------
 Temperature   298.150 Kelvin.  Pressure   1.00000 Atm.
 Atom     1 has atomic number  6 and mass  12.00000

 Molecular mass:   323.86328 amu.
 Principal axes and moments of inertia in atomic units:
                           1         2         3
     Eigenvalues --  3657.542765547.915108969.44526
           X           -0.56530   0.70657   0.42567
           Y            0.78830   0.61472   0.02652
           Z            0.24293  -0.35055   0.90449
 This molecule is an asymmetric top.
 Rotational symmetry number  1.
 Warning -- assumption of classical behavior for rotation
           may cause significant error
 Rotational temperatures (Kelvin)      0.02368     0.01561     0.00966
 Rotational constants (GHZ):           0.49343     0.32530     0.20121
 Zero-point vibrational energy     333086.0 (Joules/Mol)
                                   79.60946 (Kcal/Mol)
 Warning -- explicit consideration of  22 degrees of freedom as
           vibrations may cause significant error
 Vibrational temperatures:     70.37    94.35   110.87   120.33   145.94
          (Kelvin)            188.64   211.68   220.97   232.58   299.62
                              318.86   336.51   399.61   423.54   489.56
                              496.03   546.95   597.22   633.18   709.87
                              769.04   880.81  1045.38  1065.27  1085.92
                             1112.96  1179.78  1384.49  1444.53  1579.82
                             1597.60  1670.11  1674.46  1704.14  1706.56
                             1777.24  1778.60  1945.21  2075.35  2100.00
                             2113.00  2129.54  2131.38  2177.55  2177.76
                             2210.97  2238.09  2322.93  4304.45  4305.48
                             4421.87  4422.31  4471.22  4471.57

 Zero-point correction=                           0.126866 (Hartree/Particle)
 Thermal correction to Energy=                    0.141621
 Thermal correction to Enthalpy=                  0.142566
 Thermal correction to Gibbs Free Energy=         0.082258
 Sum of electronic and zero-point Energies=          -5757.709326
 Sum of electronic and thermal Energies=             -5757.694570
 Sum of electronic and thermal Enthalpies=           -5757.693626
 Sum of electronic and thermal Free Energies=        -5757.753934

                     E (Thermal)             CV                S
                      KCal/Mol        Cal/Mol-Kelvin    Cal/Mol-Kelvin
 Total                   88.869             50.226            126.928
 Electronic               0.000              0.000              1.377
 Translational            0.889              2.981             43.221
 Rotational               0.889              2.981             33.564
 Vibrational             87.091             44.265             48.765
 Vibration     1          0.595              1.978              4.861
 Vibration     2          0.597              1.971              4.282
 Vibration     3          0.599              1.964              3.964
 Vibration     4          0.601              1.960              3.804
 Vibration     5          0.604              1.948              3.427
 Vibration     6          0.612              1.922              2.930
 Vibration     7          0.617              1.906              2.709
 Vibration     8          0.619              1.899              2.627
 Vibration     9          0.622              1.889              2.530
 Vibration    10          0.642              1.828              2.059
 Vibration    11          0.648              1.808              1.946
 Vibration    12          0.654              1.789              1.849
 Vibration    13          0.679              1.715              1.548
 Vibration    14          0.689              1.684              1.449
 Vibration    15          0.720              1.595              1.211
 Vibration    16          0.723              1.586              1.190
 Vibration    17          0.750              1.512              1.039
 Vibration    18          0.778              1.437              0.909
 Vibration    19          0.800              1.383              0.826
 Vibration    20          0.849              1.265              0.675
 Vibration    21          0.890              1.174              0.577
 Vibration    22          0.971              1.006              0.429

                           ! Non-Optimized Parameters !
 Normal termination of Gaussian 16 at Wed Jan 17 06:42:37 2024.
