 Gaussian 16, Revision A.03,
 Gaussian 16:  ES64L-G16RevA.03 25-Dec-2016

 ----------------------------------------------------------------
 #P UB3LYP/6-311++G(d,p) SCRF=(PCM,Solvent=n,n-DiMethylFormamide)
 ----------------------------------------------------------------

 ------------------
 Radical PCM in DMF
 ------------------
 Symbolic Z-matrix:
 Charge = -1 Multiplicity = 2

                         Standard orientation:
 ---------------------------------------------------------------------
 Center     Atomic      Atomic             Coordinates (Angstroms)
 Number     Number       Type             X           Y           Z
 ---------------------------------------------------------------------
      1          6           0        0.702224    1.466064    0.134651
      2          6           0       -0.525953    0.685268    0.055117
      3          6           0       -0.526155   -0.685259   -0.055388
      4          6           0        0.701737   -1.466319   -0.135016
      5          6           0        1.933708   -0.683515   -0.063241
      6          6           0        1.933960    0.682933    0.062711
      7          8           0        0.721525    2.710979    0.269614
      8          8           0        0.720838   -2.711295   -0.269896
      9          8           0        3.132979    1.337045    0.206243
     10          6           0        3.464958    2.254218   -0.836108
     11         35           0       -2.142222    1.713315    0.149758
     12         35           0       -2.142773   -1.712888   -0.149616
     13          1           0        4.426296    2.691772   -0.559537
     14          1           0        2.709441    3.037584   -0.920510
     15          1           0        3.573259    1.724116   -1.790922
     16          8           0        3.132448   -1.338144   -0.206538
     17          6           0        3.464708   -2.254175    0.836788
     18          1           0        4.425899   -2.692144    0.560307
     19          1           0        2.709111   -3.037328    0.922321
     20          1           0        3.573377   -1.722901    1.790879
 ---------------------------------------------------------------------

 SCF Done:  E(UB3LYP) =  -5757.91217900     A.U. after   17 cycles

 The electronic state is 2-A.
 Alpha  occ. eigenvalues -- -482.83151-482.83151 -62.48423 -62.48423 -56.30458
 Alpha  occ. eigenvalues --  -56.30458 -56.30088 -56.30088 -56.30047 -56.30047
 Alpha  occ. eigenvalues --  -19.14346 -19.14343 -19.09228 -19.09227 -10.24414
 Alpha  occ. eigenvalues --  -10.24412 -10.23324 -10.23264 -10.22987 -10.22925
 Alpha  occ. eigenvalues --  -10.20987 -10.20985  -8.69389  -8.69389  -6.52522
 Alpha  occ. eigenvalues --   -6.52522  -6.51286  -6.51285  -6.51171  -6.51171
 Alpha  occ. eigenvalues --   -2.63619  -2.63618  -2.63285  -2.63284  -2.63198
 Alpha  occ. eigenvalues --   -2.63198  -2.62211  -2.62211  -2.62210  -2.62210
 Alpha  occ. eigenvalues --   -1.07089  -1.05173  -1.01751  -1.01441  -0.86453
 Alpha  occ. eigenvalues --   -0.80249  -0.79579  -0.73552  -0.71573  -0.67416
 Alpha  occ. eigenvalues --   -0.67004  -0.58774  -0.58230  -0.53123  -0.50627
 Alpha  occ. eigenvalues --   -0.49669  -0.47599  -0.45089  -0.44731  -0.44670
 Alpha  occ. eigenvalues --   -0.43557  -0.42515  -0.42068  -0.39960  -0.39184
 Alpha  occ. eigenvalues --   -0.38824  -0.35946  -0.35505  -0.34107  -0.30937
 Alpha  occ. eigenvalues --   -0.30665  -0.29846  -0.29841  -0.27935  -0.27200
 Alpha  occ. eigenvalues --   -0.25269  -0.25236  -0.23629  -0.17446
 Alpha virt. eigenvalues --   -0.03837  -0.01795  -0.00064   0.00619   0.00904
 Alpha virt. eigenvalues --    0.01538   0.01908   0.02687   0.02987   0.03837
 Alpha virt. eigenvalues --    0.03956   0.04656   0.04837   0.06077   0.06244

  Beta  occ. eigenvalues -- -482.83149-482.83149 -62.48421 -62.48421 -56.30459
  Beta  occ. eigenvalues --  -56.30459 -56.30081 -56.30081 -56.30047 -56.30047
  Beta  occ. eigenvalues --  -19.14333 -19.14330 -19.08563 -19.08562 -10.24272
  Beta  occ. eigenvalues --  -10.24270 -10.23164 -10.23103 -10.22921 -10.22857
  Beta  occ. eigenvalues --  -10.20983 -10.20981  -8.69386  -8.69386  -6.52526
  Beta  occ. eigenvalues --   -6.52526  -6.51272  -6.51272  -6.51170  -6.51170
  Beta  occ. eigenvalues --   -2.63620  -2.63619  -2.63278  -2.63277  -2.63200
  Beta  occ. eigenvalues --   -2.63200  -2.62204  -2.62204  -2.62203  -2.62203
  Beta  occ. eigenvalues --   -1.06982  -1.05025  -1.00656  -1.00367  -0.85977
  Beta  occ. eigenvalues --   -0.80028  -0.79411  -0.73383  -0.71273  -0.66881
  Beta  occ. eigenvalues --   -0.66645  -0.58443  -0.57869  -0.52949  -0.50423
  Beta  occ. eigenvalues --   -0.49506  -0.47222  -0.44936  -0.44484  -0.44347
  Beta  occ. eigenvalues --   -0.43453  -0.41792  -0.40754  -0.39327  -0.39008
  Beta  occ. eigenvalues --   -0.36611  -0.35778  -0.35397  -0.32844  -0.30856
  Beta  occ. eigenvalues --   -0.30342  -0.29517  -0.29357  -0.27750  -0.25232
  Beta  occ. eigenvalues --   -0.24758  -0.24697  -0.23052
  Beta virt. eigenvalues --   -0.10434  -0.03690  -0.00674   0.00280   0.00796
  Beta virt. eigenvalues --    0.01176   0.01614   0.02712   0.03018   0.03856
  Beta virt. eigenvalues --    0.03859   0.04144   0.04733   0.04864   0.06107

 Mulliken charges and spin densities:
               1          2
     1  C   -0.344552   0.072581
     2  C    0.244047   0.100246
     3  C    0.244163   0.100160
     4  C   -0.343748   0.072595
     5  C    0.103902   0.072912
     6  C    0.103853   0.072860
     7  O   -0.408275   0.243613
     8  O   -0.408369   0.243655
     9  O   -0.186638   0.000446
    10  C   -0.275337   0.002386
    11  Br  -0.112955   0.007364
    12  Br  -0.112982   0.007357
    13  H    0.158640   0.000270
    14  H    0.174299  -0.000031
    15  H    0.146495   0.000265
    16  O   -0.186591   0.000434
    17  C   -0.275392   0.002384
    18  H    0.158684   0.000271
    19  H    0.174215  -0.000031
    20  H    0.146540   0.000264
 Sum of Mulliken charges =  -1.00000   1.00000

 Dipole moment (field-independent basis, Debye):
    X=             -0.7702    Y=              0.0034    Z=              0.0022  Tot=              0.7702
 Quadrupole moment (field-independent basis, Debye-Ang):
   XX=           -116.7152   YY=           -140.4846   ZZ=           -108.8231
   XY=              0.0018   XZ=              0.0049   YZ=             -9.5727

 Normal termination of Gaussian 16 at Wed Jan 24 22:51:21 2024.
