 Q-Chem 5.4, Q-Chem, Inc., Pleasanton, CA (2021)
 Q-Chem 5.4.0 for Intel X86 EM64T Linux

User input:
--------------------------------------------------------------
$molecule
-2 1
C                  6.6726410000      0.5768660000      0.7367060000
C                  5.1915730000      0.4567720000      0.4604320000
C                  4.4640600000      1.4855120000     -0.1580840000
C                  3.1126930000      1.3638780000     -0.4444170000
C                  2.3791850000      0.1884310000     -0.1245230000
N                  1.0452250000      0.1749120000     -0.4171830000
C                  0.0941490000     -0.8534830000     -0.3393050000
C                  0.4207770000     -2.1914960000     -0.4439960000
C                 -0.5816550000     -3.1836500000     -0.3630660000
C                 -1.9073720000     -2.8471310000     -0.1692810000
O                 -2.8304560000     -3.8751390000     -0.0626540000
C                 -2.3316140000     -1.4866860000     -0.0935750000
C                 -3.7405030000     -1.1484360000      0.0845240000
O                 -4.6702420000     -1.9981290000      0.2165250000
C                 -4.0424280000      0.2821180000      0.0983020000
C                 -5.3832140000      0.6944260000      0.2650740000
C                 -5.7429600000      2.0285570000      0.2770170000
C                 -4.7406470000      3.0209100000      0.1156910000
C                 -3.4244050000      2.6486740000     -0.0515160000
C                 -3.0303220000      1.2821930000     -0.0633610000
C                 -1.6452600000      0.9450850000     -0.2390970000
O                 -0.7683530000      1.9055530000     -0.4238540000
C                 -1.3003630000     -0.4488310000     -0.2152400000
C                  3.1167220000     -0.8471330000      0.5081150000
C                  4.4731610000     -0.6999940000      0.7849890000
H                  7.2610740000     -0.1879640000      0.2076030000
H                  7.0598280000      1.5498950000      0.4166770000
H                  6.9086350000      0.4709170000      1.8024470000
H                  4.9740880000      2.4089810000     -0.4242220000
H                  2.5810280000      2.1826910000     -0.9181890000
H                  0.5205340000      1.1026170000     -0.4971190000
H                  1.4421150000     -2.4929440000     -0.6310310000
H                 -0.3038290000     -4.2344830000     -0.4444790000
H                 -2.3186800000     -4.6882500000     -0.1376900000
H                 -6.1198360000     -0.0937360000      0.3820960000
H                 -6.7835070000      2.3177150000      0.4078690000
H                 -5.0123500000      4.0748190000      0.1244210000
H                 -2.6383850000      3.3845280000     -0.1792330000
H                  2.6102710000     -1.7482510000      0.8222940000
H                  4.9886200000     -1.5203140000      1.2816030000
$end
$rem
MAX_SCF_CYCLES=200
BASIS  =  6-311++G(d,p)
GUI  =  2
JOB_TYPE  =  SP
METHOD  =  B3LYP
SCF_ALGORITHM = DIIS_GDM
SOLVENT_METHOD = PCM
$end
$pcm
theory = CPCM
$end
$solvent
dielectric 37.219
opticaldielectric 1.43
$end

--------------------------------------------------------------

             Standard Nuclear Orientation (Angstroms)
    I     Atom           X                Y                Z
 ----------------------------------------------------------------
    1      C       6.6726410000     0.5768660000     0.7367060000
    2      C       5.1915730000     0.4567720000     0.4604320000
    3      C       4.4640600000     1.4855120000    -0.1580840000
    4      C       3.1126930000     1.3638780000    -0.4444170000
    5      C       2.3791850000     0.1884310000    -0.1245230000
    6      N       1.0452250000     0.1749120000    -0.4171830000
    7      C       0.0941490000    -0.8534830000    -0.3393050000
    8      C       0.4207770000    -2.1914960000    -0.4439960000
    9      C      -0.5816550000    -3.1836500000    -0.3630660000
   10      C      -1.9073720000    -2.8471310000    -0.1692810000
   11      O      -2.8304560000    -3.8751390000    -0.0626540000
   12      C      -2.3316140000    -1.4866860000    -0.0935750000
   13      C      -3.7405030000    -1.1484360000     0.0845240000
   14      O      -4.6702420000    -1.9981290000     0.2165250000
   15      C      -4.0424280000     0.2821180000     0.0983020000
   16      C      -5.3832140000     0.6944260000     0.2650740000
   17      C      -5.7429600000     2.0285570000     0.2770170000
   18      C      -4.7406470000     3.0209100000     0.1156910000
   19      C      -3.4244050000     2.6486740000    -0.0515160000
   20      C      -3.0303220000     1.2821930000    -0.0633610000
   21      C      -1.6452600000     0.9450850000    -0.2390970000
   22      O      -0.7683530000     1.9055530000    -0.4238540000
   23      C      -1.3003630000    -0.4488310000    -0.2152400000
   24      C       3.1167220000    -0.8471330000     0.5081150000
   25      C       4.4731610000    -0.6999940000     0.7849890000
   26      H       7.2610740000    -0.1879640000     0.2076030000
   27      H       7.0598280000     1.5498950000     0.4166770000
   28      H       6.9086350000     0.4709170000     1.8024470000
   29      H       4.9740880000     2.4089810000    -0.4242220000
   30      H       2.5810280000     2.1826910000    -0.9181890000
   31      H       0.5205340000     1.1026170000    -0.4971190000
   32      H       1.4421150000    -2.4929440000    -0.6310310000
   33      H      -0.3038290000    -4.2344830000    -0.4444790000
   34      H      -2.3186800000    -4.6882500000    -0.1376900000
   35      H      -6.1198360000    -0.0937360000     0.3820960000
   36      H      -6.7835070000     2.3177150000     0.4078690000
   37      H      -5.0123500000     4.0748190000     0.1244210000
   38      H      -2.6383850000     3.3845280000    -0.1792330000
   39      H       2.6102710000    -1.7482510000     0.8222940000
   40      H       4.9886200000    -1.5203140000     1.2816030000
 ----------------------------------------------------------------

   16   -1090.2454968115      6.49e-06  Convergence criterion met
 Total energy in the final basis set =    -1090.2454968115

                    Orbital Energies (a.u.)
 --------------------------------------------------------------

 Alpha MOs
 -- Occupied --
-19.1284 -19.0327 -19.0246 -14.2939 -10.2071 -10.2029 -10.1880 -10.1866
-10.1786 -10.1626 -10.1612 -10.1609 -10.1562 -10.1558 -10.1553 -10.1524
-10.1503 -10.1502 -10.1484 -10.1478 -10.1466 -10.1417 -10.1409 -10.1408
-10.1382  -1.0378  -0.9562  -0.9521  -0.9157  -0.8398  -0.8301  -0.8127
 -0.7572  -0.7525  -0.7347  -0.7260  -0.7134  -0.7087  -0.6639  -0.6406
 -0.6150  -0.6063  -0.5955  -0.5798  -0.5578  -0.5401  -0.5306  -0.5209
 -0.4894  -0.4846  -0.4579  -0.4554  -0.4489  -0.4381  -0.4326  -0.4215
 -0.4151  -0.4096  -0.4077  -0.4027  -0.4012  -0.3997  -0.3802  -0.3799
 -0.3749  -0.3700  -0.3653  -0.3594  -0.3556  -0.3478  -0.3416  -0.3387
 -0.3264  -0.3243  -0.3178  -0.3117  -0.3089  -0.2830  -0.2469  -0.2336
 -0.2320  -0.2251  -0.2204  -0.2100  -0.1980  -0.1679  -0.1081

          Ground-State Mulliken Net Atomic Charges

     Atom                 Charge (a.u.)
  ----------------------------------------
      1 C                    -0.624700
      2 C                     0.388766
      3 C                    -0.699441
      4 C                    -0.463447
      5 C                    -0.122442
      6 N                    -0.061092
      7 C                     0.018285
      8 C                    -0.095918
      9 C                    -0.513047
     10 C                    -0.355681
     11 O                    -0.287187
     12 C                     0.478699
     13 C                    -0.253275
     14 O                    -0.632446
     15 C                     0.050780
     16 C                     0.016979
     17 C                    -0.596150
     18 C                    -0.558806
     19 C                    -0.097129
     20 C                     0.143615
     21 C                    -0.216413
     22 O                    -0.631002
     23 C                     0.178344
     24 C                     0.015933
     25 C                    -0.061049
     26 H                     0.160975
     27 H                     0.159976
     28 H                     0.158883
     29 H                     0.169865
     30 H                     0.169014
     31 H                     0.509687
     32 H                     0.174651
     33 H                     0.169679
     34 H                     0.298769
     35 H                     0.145655
     36 H                     0.174170
     37 H                     0.176568
     38 H                     0.142576
     39 H                     0.163619
     40 H                     0.203740
  ----------------------------------------
  Sum of atomic charges =    -2.000000

                    Cartesian Multipole Moments
 -----------------------------------------------------------------
    Charge (ESU x 10^10)
                -9.6064
    Dipole Moment (Debye)
         X      22.6892      Y       0.7327      Z       0.6708
       Tot      22.7109
    Quadrupole Moments (Debye-Ang)
        XX    -264.8597     XY     -25.3531     YY    -175.0452
        XZ       3.5999     YZ       1.4872     ZZ    -162.0732

 Total job time:  258.80s(wall), 1828.13s(cpu)
        *  Thank you very much for using Q-Chem.  Have a nice day.  *
