 Gaussian 16, Revision A.03,
 Gaussian 16:  ES64L-G16RevA.03 25-Dec-2016

 ----------------------------------------------------------------------
 #P UB3LYP/6-311++G(d,p) nosym opt freq SCRF=(PCM,Solvent=n,n-DiMethylF
 ormamide)
 ----------------------------------------------------------------------

 -------
 Radical
 -------
 Symbolic Z-matrix:
 Charge = -1 Multiplicity = 2

 SCF Done:  E(UB3LYP) =  -804.847944227     A.U. after   19 cycles
 SCF Done:  E(UB3LYP) =  -804.848232332     A.U. after   16 cycles
 SCF Done:  E(UB3LYP) =  -804.848261322     A.U. after   17 cycles
 SCF Done:  E(UB3LYP) =  -804.848224650     A.U. after   16 cycles
 SCF Done:  E(UB3LYP) =  -804.848315863     A.U. after   15 cycles
 SCF Done:  E(UB3LYP) =  -804.848321001     A.U. after   13 cycles
 SCF Done:  E(UB3LYP) =  -804.848330773     A.U. after   14 cycles
 SCF Done:  E(UB3LYP) =  -804.848337533     A.U. after   15 cycles
 SCF Done:  E(UB3LYP) =  -804.848347034     A.U. after   14 cycles
 SCF Done:  E(UB3LYP) =  -804.848351214     A.U. after   14 cycles
 SCF Done:  E(UB3LYP) =  -804.848360595     A.U. after   12 cycles
 SCF Done:  E(UB3LYP) =  -804.848361372     A.U. after   14 cycles
 SCF Done:  E(UB3LYP) =  -804.848361589     A.U. after   12 cycles
 SCF Done:  E(UB3LYP) =  -804.848361723     A.U. after   12 cycles
 SCF Done:  E(UB3LYP) =  -804.848362258     A.U. after   11 cycles
 SCF Done:  E(UB3LYP) =  -804.848362634     A.U. after   14 cycles
 SCF Done:  E(UB3LYP) =  -804.848363020     A.U. after   13 cycles
 SCF Done:  E(UB3LYP) =  -804.848363075     A.U. after   12 cycles
 SCF Done:  E(UB3LYP) =  -804.848363086     A.U. after   11 cycles
 Optimization completed.
    -- Stationary point found.
 Normal termination of Gaussian 16 at Sat Feb 10 12:51:49 2024.

 ----------------------------------------------------------------------
 #P Geom=AllCheck Guess=TCheck SCRF=Check GenChk UB3LYP/6-311++G(d,p) F
 req
 ----------------------------------------------------------------------

 Structure from the checkpoint file:  "078-rad.chk"
 -------
 Radical
 -------
 Charge = -1 Multiplicity = 2

                          Input orientation:
 ---------------------------------------------------------------------
 Center     Atomic      Atomic             Coordinates (Angstroms)
 Number     Number       Type             X           Y           Z
 ---------------------------------------------------------------------
      1          6           0        0.457746    1.730774   -1.991275
      2          6           0       -0.859458    2.026932   -2.549784
      3          6           0       -1.768691    1.066716   -2.855785
      4          6           0       -1.486430   -0.344524   -2.644529
      5          6           0       -0.196742   -0.648110   -2.098271
      6          6           0        0.756835    0.313139   -1.780707
      7          8           0        1.243438    2.670455   -1.715118
      8          8           0       -2.334315   -1.244365   -2.931061
      9          6           0        3.221172    0.756489   -1.008492
     10          6           0        4.086608    1.039600   -2.078904
     11          6           0        3.495246    1.217369    0.290840
     12          6           0        4.641983    1.989716    0.499261
     13          6           0        5.228996    1.807672   -1.830713
     14          6           0        5.506054    2.285365   -0.552400
     15          1           0       -1.080944    3.077869   -2.707838
     16          1           0       -2.739088    1.325936   -3.268608
     17          1           0        0.041963   -1.692854   -1.933521
     18          1           0        4.857069    2.360319    1.496366
     19          1           0        5.904409    2.032056   -2.650047
     20          1           0        6.393683    2.883040   -0.375542
     21          6           0        2.043610   -0.167765   -1.229902
     22          8           0        2.207572   -1.357518   -0.944979
     23          6           0        2.569409    0.905813    1.444414
     24          1           0        2.547594   -0.165943    1.661702
     25          1           0        1.541421    1.210439    1.225582
     26          1           0        2.888776    1.426134    2.349014
     27          6           0        3.798688    0.540738   -3.476588
     28          1           0        2.871972    0.970229   -3.869213
     29          1           0        3.686386   -0.547063   -3.503287
     30          1           0        4.607508    0.810561   -4.157792
 ---------------------------------------------------------------------

 SCF Done:  E(UB3LYP) =  -804.848363086     A.U. after    1 cycles

 Alpha  occ. eigenvalues --  -19.10998 -19.08750 -19.08704 -10.26138 -10.23767
 Alpha  occ. eigenvalues --  -10.22807 -10.18467 -10.18445 -10.17925 -10.17787
 Alpha  occ. eigenvalues --  -10.17640 -10.17474 -10.17417 -10.17181 -10.16896
 Alpha  occ. eigenvalues --  -10.16885 -10.16378 -10.16329  -1.03993  -1.01190
 Alpha  occ. eigenvalues --   -1.00467  -0.86387  -0.83300  -0.78397  -0.77324
 Alpha  occ. eigenvalues --   -0.75878  -0.70576  -0.69161  -0.68022  -0.64378
 Alpha  occ. eigenvalues --   -0.60345  -0.58862  -0.57623  -0.54132  -0.49780
 Alpha  occ. eigenvalues --   -0.48207  -0.48154  -0.47594  -0.45958  -0.44089
 Alpha  occ. eigenvalues --   -0.43382  -0.42233  -0.42123  -0.41693  -0.41323
 Alpha  occ. eigenvalues --   -0.41164  -0.40527  -0.40169  -0.38831  -0.38568
 Alpha  occ. eigenvalues --   -0.37746  -0.37305  -0.36875  -0.35108  -0.34641
 Alpha  occ. eigenvalues --   -0.33994  -0.28959  -0.27307  -0.27043  -0.25208
 Alpha  occ. eigenvalues --   -0.24610  -0.24388  -0.23227  -0.17622
 Alpha virt. eigenvalues --   -0.06537  -0.01525  -0.00878  -0.00334   0.00584
 Alpha virt. eigenvalues --    0.00757   0.01106   0.01422   0.01977   0.03131
 Alpha virt. eigenvalues --    0.03387   0.03496   0.03927   0.04735   0.04990

  Beta  occ. eigenvalues --  -19.10915 -19.08135 -19.07969 -10.26109 -10.23706
  Beta  occ. eigenvalues --  -10.22709 -10.18466 -10.18444 -10.17927 -10.17702
  Beta  occ. eigenvalues --  -10.17626 -10.17316 -10.17183 -10.17181 -10.16895
  Beta  occ. eigenvalues --  -10.16884 -10.16377 -10.16328  -1.03836  -1.00215
  Beta  occ. eigenvalues --   -0.99093  -0.86377  -0.82682  -0.78394  -0.77209
  Beta  occ. eigenvalues --   -0.75673  -0.70331  -0.68366  -0.68016  -0.64116
  Beta  occ. eigenvalues --   -0.60161  -0.58501  -0.57613  -0.53976  -0.49577
  Beta  occ. eigenvalues --   -0.48114  -0.48002  -0.47254  -0.45810  -0.43950
  Beta  occ. eigenvalues --   -0.43210  -0.42155  -0.41691  -0.41430  -0.40707
  Beta  occ. eigenvalues --   -0.40559  -0.40352  -0.40156  -0.38266  -0.37624
  Beta  occ. eigenvalues --   -0.37224  -0.36635  -0.35419  -0.35092  -0.34623
  Beta  occ. eigenvalues --   -0.33941  -0.27114  -0.26299  -0.25541  -0.24761
  Beta  occ. eigenvalues --   -0.24361  -0.24167  -0.22937
  Beta virt. eigenvalues --   -0.10603  -0.05185  -0.01474  -0.00868  -0.00320
  Beta virt. eigenvalues --    0.00600   0.00985   0.01434   0.02002   0.02260
  Beta virt. eigenvalues --    0.03238   0.03407   0.03520   0.04704   0.04844

 Mulliken charges and spin densities:
               1          2
     1  C   -1.082267   0.008791
     2  C   -0.182661   0.102635
     3  C    0.041636   0.003737
     4  C   -0.570379   0.120625
     5  C   -0.009864   0.123908
     6  C    1.099856   0.113323
     7  O   -0.307299   0.210121
     8  O   -0.479185   0.275338
     9  C    0.745573  -0.016683
    10  C    0.354961   0.005625
    11  C    0.195872   0.000239
    12  C   -0.348904   0.002120
    13  C   -0.303239   0.002524
    14  C   -0.296589  -0.001661
    15  H    0.203259  -0.006833
    16  H    0.203003  -0.001991
    17  H    0.222531  -0.015892
    18  H    0.161803  -0.000029
    19  H    0.155525   0.000071
    20  H    0.189710   0.000008
    21  C   -0.551020   0.040481
    22  O   -0.304731   0.031577
    23  C   -0.522321   0.001060
    24  H    0.185141  -0.000066
    25  H    0.164263   0.000363
    26  H    0.158344   0.000159
    27  C   -0.636552  -0.000514
    28  H    0.172550   0.000986
    29  H    0.182082  -0.000083
    30  H    0.158900   0.000061
 Sum of Mulliken charges =  -1.00000   1.00000

 Dipole moment (field-independent basis, Debye):
    X=             -0.6825    Y=              0.9141    Z=              9.2359  Tot=              9.3061
 Quadrupole moment (field-independent basis, Debye-Ang):
   XX=           -131.2174   YY=           -132.4765   ZZ=           -124.0255
   XY=             -9.3353   XZ=             -9.6867   YZ=             -3.5479

  Exact polarizability: 358.393  58.258 290.125  53.382  13.107 241.351
 Approx polarizability: 367.356  70.232 342.537  47.085  14.898 268.140

                      1                      2                      3
                      A                      A                      A
 Frequencies --     14.9125                39.7910                65.8191
 Red. masses --      6.1366                 4.9003                 4.3174
 Frc consts  --      0.0008                 0.0046                 0.0110
 IR Inten    --      0.9048                 0.5069                 0.2309

                      4                      5                      6
                      A                      A                      A
 Frequencies --     88.8952                91.8901                98.8538
 Red. masses --      2.5880                 1.1707                 1.4479
 Frc consts  --      0.0120                 0.0058                 0.0083
 IR Inten    --      5.0799                 2.9554                 2.8515

                      7                      8                      9
                      A                      A                      A
 Frequencies --    126.1874               140.9472               173.1257
 Red. masses --      2.6133                 7.3094                 5.2859
 Frc consts  --      0.0245                 0.0856                 0.0933
 IR Inten    --      9.1842                19.9167                 0.4674

                     10                     11                     12
                      A                      A                      A
 Frequencies --    197.5486               229.7675               244.0186
 Red. masses --      6.8527                 2.9211                 4.5280
 Frc consts  --      0.1576                 0.0909                 0.1589
 IR Inten    --      0.2175                 0.0273                15.6359

                     13                     14                     15
                      A                      A                      A
 Frequencies --    307.7873               314.5344               350.3125
 Red. masses --      5.3414                 3.3860                 9.8059
 Frc consts  --      0.2981                 0.1974                 0.7090
 IR Inten    --      0.3817                 0.2544                 1.1936

                     16                     17                     18
                      A                      A                      A
 Frequencies --    399.1444               405.4159               431.6868
 Red. masses --      3.9385                 4.5267                 7.6774
 Frc consts  --      0.3697                 0.4384                 0.8430
 IR Inten    --      4.8126                16.5087                10.4662

                     19                     20                     21
                      A                      A                      A
 Frequencies --    441.8105               478.7365               519.9701
 Red. masses --      2.9370                10.6835                 3.0987
 Frc consts  --      0.3378                 1.4426                 0.4936
 IR Inten    --      2.3135                 1.4185                 1.2993

                     22                     23                     24
                      A                      A                      A
 Frequencies --    529.9378               538.7628               570.1933
 Red. masses --      5.0743                 4.8989                 3.2843
 Frc consts  --      0.8396                 0.8378                 0.6291
 IR Inten    --      0.7491                31.5582                 7.5048

                     25                     26                     27
                      A                      A                      A
 Frequencies --    575.9170               627.4965               649.1117
 Red. masses --      3.4785                 4.5252                 6.3503
 Frc consts  --      0.6798                 1.0498                 1.5765
 IR Inten    --      6.0612                 0.4606                12.8259

                     28                     29                     30
                      A                      A                      A
 Frequencies --    737.9486               746.3962               769.0916
 Red. masses --      5.1423                 5.2138                 3.1087
 Frc consts  --      1.6499                 1.7114                 1.0834
 IR Inten    --     68.1343                 5.7928                 6.7531

                     31                     32                     33
                      A                      A                      A
 Frequencies --    777.3734               783.1544               818.0628
 Red. masses --      1.2504                 5.0521                 5.5996
 Frc consts  --      0.4452                 1.8256                 2.2079
 IR Inten    --     72.8304                 4.0451               104.4420

                     34                     35                     36
                      A                      A                      A
 Frequencies --    843.6734               853.2896               900.6101
 Red. masses --      2.2722                 6.5682                 1.6843
 Frc consts  --      0.9529                 2.8177                 0.8049
 IR Inten    --     55.6955                12.0973                31.3654

                     37                     38                     39
                      A                      A                      A
 Frequencies --    906.5806               928.7063               969.2756
 Red. masses --      1.3092                 2.6099                 2.8697
 Frc consts  --      0.6340                 1.3262                 1.5885
 IR Inten    --      0.0075                10.9087               150.5437

                     40                     41                     42
                      A                      A                      A
 Frequencies --    984.8362               988.1233              1007.2929
 Red. masses --      1.3252                 1.2832                 1.5941
 Frc consts  --      0.7573                 0.7382                 0.9529
 IR Inten    --      2.7763                 0.4064                 0.3517

                     43                     44                     45
                      A                      A                      A
 Frequencies --   1051.7560              1052.9855              1056.1223
 Red. masses --      1.7085                 1.7734                 1.5431
 Frc consts  --      1.1135                 1.1585                 1.0141
 IR Inten    --      4.8419                 0.6108                 0.8194

                     46                     47                     48
                      A                      A                      A
 Frequencies --   1066.6879              1109.5395              1138.1098
 Red. masses --      3.1766                 1.7761                 1.4921
 Frc consts  --      2.1295                 1.2883                 1.1387
 IR Inten    --    110.5366                 5.5179               170.1484

                     49                     50                     51
                      A                      A                      A
 Frequencies --   1181.9454              1201.0090              1244.3700
 Red. masses --      1.2102                 1.9853                 2.1816
 Frc consts  --      0.9961                 1.6872                 1.9903
 IR Inten    --      1.8912                39.7517               331.4246

                     52                     53                     54
                      A                      A                      A
 Frequencies --   1265.4335              1272.8923              1289.2477
 Red. masses --      3.6411                 1.7122                 4.9488
 Frc consts  --      3.4353                 1.6345                 4.8465
 IR Inten    --      2.3264                 1.5819                61.5413

                     55                     56                     57
                      A                      A                      A
 Frequencies --   1309.8197              1349.7566              1406.2719
 Red. masses --      6.6351                 2.4721                 1.2369
 Frc consts  --      6.7069                 2.6535                 1.4412
 IR Inten    --      0.5166                 8.4667                 1.8996

                     58                     59                     60
                      A                      A                      A
 Frequencies --   1408.3630              1415.8632              1442.8018
 Red. masses --      1.2601                 4.7789                 4.1299
 Frc consts  --      1.4726                 5.6445                 5.0653
 IR Inten    --      3.7158               425.7893               510.8244

                     61                     62                     63
                      A                      A                      A
 Frequencies --   1453.0280              1475.9488              1477.7359
 Red. masses --      2.1334                 1.1213                 1.0537
 Frc consts  --      2.6538                 1.4392                 1.3556
 IR Inten    --     13.9335                16.8119                 1.2825

                     64                     65                     66
                      A                      A                      A
 Frequencies --   1478.7807              1497.2605              1501.7445
 Red. masses --      1.2684                 1.5769                 1.3826
 Frc consts  --      1.6343                 2.0828                 1.8371
 IR Inten    --     10.3821                35.1849                 8.5817

                     67                     68                     69
                      A                      A                      A
 Frequencies --   1507.4812              1545.4585              1611.6779
 Red. masses --      5.6847                 9.2551                 6.9276
 Frc consts  --      7.6114                13.0240                10.6021
 IR Inten    --    572.9990               821.0954                19.1733

                     70                     71                     72
                      A                      A                      A
 Frequencies --   1624.4431              1627.4046              1641.1626
 Red. masses --     10.1135                 5.9493                 6.7989
 Frc consts  --     15.7240                 9.2833                10.7893
 IR Inten    --    414.8010                78.7078                53.1264

                     73                     74                     75
                      A                      A                      A
 Frequencies --   3025.0427              3026.1487              3074.3808
 Red. masses --      1.0372                 1.0371                 1.1002
 Frc consts  --      5.5919                 5.5955                 6.1270
 IR Inten    --     54.7533                28.4719                23.2205

                     76                     77                     78
                      A                      A                      A
 Frequencies --   3075.7680              3103.4177              3104.2537
 Red. masses --      1.1001                 1.1007                 1.1009
 Frc consts  --      6.1320                 6.2461                 6.2507
 IR Inten    --     24.1164                36.6985                37.9896

                     79                     80                     81
                      A                      A                      A
 Frequencies --   3151.7391              3153.3460              3160.3758
 Red. masses --      1.0863                 1.0859                 1.0906
 Frc consts  --      6.3574                 6.3616                 6.4177
 IR Inten    --     22.4695                 0.4467                41.3757

                     82                     83                     84
                      A                      A                      A
 Frequencies --   3170.7760              3178.4196              3179.2641
 Red. masses --      1.0960                 1.0963                 1.0890
 Frc consts  --      6.4924                 6.5254                 6.4852
 IR Inten    --     33.9715                51.9427                 9.5037

 - Thermochemistry -
 -------------------
 Temperature   298.150 Kelvin.  Pressure   1.00000 Atm.
 Atom     1 has atomic number  6 and mass  12.00000

 Molecular mass:   240.07864 amu.
 Principal axes and moments of inertia in atomic units:
                           1         2         3
     Eigenvalues --  2070.037856734.955046836.06963
           X            0.91993  -0.05935  -0.38757
           Y            0.23652  -0.70438   0.66926
           Z            0.31272   0.70734   0.63394
 This molecule is an asymmetric top.
 Rotational symmetry number  1.
 Warning -- assumption of classical behavior for rotation
           may cause significant error
 Rotational temperatures (Kelvin)      0.04184     0.01286     0.01267
 Rotational constants (GHZ):           0.87184     0.26797     0.26400
 Zero-point vibrational energy     596787.2 (Joules/Mol)
                                  142.63556 (Kcal/Mol)
 Warning -- explicit consideration of  25 degrees of freedom as
           vibrations may cause significant error
 Vibrational temperatures:     21.46    57.25    94.70   127.90   132.21
          (Kelvin)            142.23   181.56   202.79   249.09   284.23
                              330.58   351.09   442.84   452.54   504.02
                              574.28   583.30   621.10   635.67   688.80
                              748.12   762.46   775.16   820.38   828.62
                              902.83   933.93  1061.74  1073.90  1106.55
                             1118.47  1126.78  1177.01  1213.86  1227.69
                             1295.78  1304.37  1336.20  1394.57  1416.96
                             1421.69  1449.27  1513.24  1515.01  1519.52
                             1534.73  1596.38  1637.49  1700.56  1727.98
                             1790.37  1820.68  1831.41  1854.94  1884.54
                             1942.00  2023.31  2026.32  2037.11  2075.87
                             2090.58  2123.56  2126.13  2127.64  2154.22
                             2160.68  2168.93  2223.57  2318.85  2337.21
                             2341.47  2361.27  4352.36  4353.95  4423.35
                             4425.34  4465.13  4466.33  4534.65  4536.96
                             4547.08  4562.04  4573.04  4574.25

 Zero-point correction=                           0.227304 (Hartree/Particle)
 Thermal correction to Energy=                    0.243607
 Thermal correction to Enthalpy=                  0.244551
 Thermal correction to Gibbs Free Energy=         0.181225
 Sum of electronic and zero-point Energies=           -804.621059
 Sum of electronic and thermal Energies=              -804.604756
 Sum of electronic and thermal Enthalpies=            -804.603812
 Sum of electronic and thermal Free Energies=         -804.667138

                     E (Thermal)             CV                S
                      KCal/Mol        Cal/Mol-Kelvin    Cal/Mol-Kelvin
 Total                  152.866             61.127            133.281
 Electronic               0.000              0.000              1.377
 Translational            0.889              2.981             42.329
 Rotational               0.889              2.981             32.922
 Vibrational            151.088             55.165             56.654
 Vibration     1          0.593              1.986              7.217
 Vibration     2          0.594              1.981              5.269
 Vibration     3          0.597              1.971              4.275
 Vibration     4          0.602              1.957              3.684
 Vibration     5          0.602              1.955              3.619
 Vibration     6          0.604              1.950              3.477
 Vibration     7          0.611              1.927              3.003
 Vibration     8          0.615              1.912              2.791
 Vibration     9          0.627              1.876              2.401
 Vibration    10          0.637              1.843              2.156
 Vibration    11          0.652              1.796              1.881
 Vibration    12          0.659              1.773              1.773
 Vibration    13          0.698              1.659              1.374
 Vibration    14          0.702              1.646              1.338
 Vibration    15          0.727              1.575              1.165
 Vibration    16          0.765              1.472              0.966
 Vibration    17          0.770              1.458              0.943
 Vibration    18          0.793              1.401              0.853
 Vibration    19          0.802              1.379              0.821
 Vibration    20          0.835              1.297              0.713
 Vibration    21          0.875              1.206              0.610
 Vibration    22          0.885              1.184              0.587
 Vibration    23          0.894              1.164              0.568
 Vibration    24          0.926              1.096              0.504
 Vibration    25          0.932              1.083              0.493

 Optimization completed.
    -- Stationary point found.
 Normal termination of Gaussian 16 at Sat Feb 10 13:33:15 2024.
