 Q-Chem 5.4, Q-Chem, Inc., Pleasanton, CA (2021)
 Q-Chem 5.4.0 for Intel X86 EM64T Linux

User input:
--------------------------------------------------------------
$molecule
-2 1
C                  2.5842200000     -0.3311650000     -1.9365100000
C                  2.5623050000     -0.0064890000     -0.4216610000
C                  2.7643800000      1.5177780000     -0.2308500000
C                  3.7689860000     -0.7183380000      0.2222740000
C                  1.2021070000     -0.4295560000      0.1809620000
C                  1.1422190000     -1.3780370000      1.2165520000
C                 -0.0647440000     -1.8272500000      1.8321660000
O                 -0.0959700000     -2.7089720000      2.7924870000
C                 -1.2340210000     -1.2130910000      1.2907320000
C                 -1.2265730000     -0.2609640000      0.2567730000
C                  0.0061980000      0.1754250000     -0.3484110000
O                  0.0379270000      1.0702280000     -1.3217970000
C                 -2.5501690000      0.3483910000     -0.2620500000
C                 -2.7105940000      0.0364000000     -1.7712040000
C                 -3.8011950000     -0.1928660000      0.4586440000
C                 -2.5279570000      1.8851130000     -0.0655840000
H                  3.5184400000      0.0227930000     -2.4040430000
H                  2.5153550000     -1.4149950000     -2.0884570000
H                  1.7259190000      0.1525610000     -2.4086650000
H                  1.9094690000      2.0394230000     -0.6675200000
H                  3.6969020000      1.8571980000     -0.7123700000
H                  2.8248470000      1.7569040000      0.8376350000
H                  3.7115750000     -1.8044040000      0.0986830000
H                  3.8378170000     -0.5088810000      1.2944100000
H                  4.6956660000     -0.3683060000     -0.2548240000
H                  2.0518000000     -1.8269570000      1.6071840000
H                 -2.1708220000     -1.5339420000      1.7389500000
H                 -3.6141590000      0.5179680000     -2.1814550000
H                 -2.8015570000     -1.0458990000     -1.9224900000
H                 -1.8246140000      0.3990600000     -2.2976490000
H                 -3.7738600000      0.0197790000      1.5320080000
H                 -4.6985160000      0.2835810000      0.0383110000
H                 -3.9019400000     -1.2759480000      0.3367230000
H                 -3.4335030000      2.3517290000     -0.4885780000
H                 -2.4871330000      2.1255600000      1.0035350000
H                 -1.6388010000      2.2861680000     -0.5577080000
$end

$rem
BASIS  =  6-311++G(d,p)
GUI  =  2
JOB_TYPE  =  SP
METHOD  =  B3LYP
SCF_CONVERGENCE  = 8
SOLVENT_METHOD = sm12
$end

$smx
solvent dimethylformamide
charges CM5
$end

--------------------------------------------------------------

             Standard Nuclear Orientation (Angstroms)
    I     Atom           X                Y                Z
 ----------------------------------------------------------------
    1      C       2.5842200000    -0.3311650000    -1.9365100000
    2      C       2.5623050000    -0.0064890000    -0.4216610000
    3      C       2.7643800000     1.5177780000    -0.2308500000
    4      C       3.7689860000    -0.7183380000     0.2222740000
    5      C       1.2021070000    -0.4295560000     0.1809620000
    6      C       1.1422190000    -1.3780370000     1.2165520000
    7      C      -0.0647440000    -1.8272500000     1.8321660000
    8      O      -0.0959700000    -2.7089720000     2.7924870000
    9      C      -1.2340210000    -1.2130910000     1.2907320000
   10      C      -1.2265730000    -0.2609640000     0.2567730000
   11      C       0.0061980000     0.1754250000    -0.3484110000
   12      O       0.0379270000     1.0702280000    -1.3217970000
   13      C      -2.5501690000     0.3483910000    -0.2620500000
   14      C      -2.7105940000     0.0364000000    -1.7712040000
   15      C      -3.8011950000    -0.1928660000     0.4586440000
   16      C      -2.5279570000     1.8851130000    -0.0655840000
   17      H       3.5184400000     0.0227930000    -2.4040430000
   18      H       2.5153550000    -1.4149950000    -2.0884570000
   19      H       1.7259190000     0.1525610000    -2.4086650000
   20      H       1.9094690000     2.0394230000    -0.6675200000
   21      H       3.6969020000     1.8571980000    -0.7123700000
   22      H       2.8248470000     1.7569040000     0.8376350000
   23      H       3.7115750000    -1.8044040000     0.0986830000
   24      H       3.8378170000    -0.5088810000     1.2944100000
   25      H       4.6956660000    -0.3683060000    -0.2548240000
   26      H       2.0518000000    -1.8269570000     1.6071840000
   27      H      -2.1708220000    -1.5339420000     1.7389500000
   28      H      -3.6141590000     0.5179680000    -2.1814550000
   29      H      -2.8015570000    -1.0458990000    -1.9224900000
   30      H      -1.8246140000     0.3990600000    -2.2976490000
   31      H      -3.7738600000     0.0197790000     1.5320080000
   32      H      -4.6985160000     0.2835810000     0.0383110000
   33      H      -3.9019400000    -1.2759480000     0.3367230000
   34      H      -3.4335030000     2.3517290000    -0.4885780000
   35      H      -2.4871330000     2.1255600000     1.0035350000
   36      H      -1.6388010000     2.2861680000    -0.5577080000
 ----------------------------------------------------------------

   16    -696.1238594221      7.98e-09  Convergence criterion met
 Total energy in the final basis set =     -696.4069705850

                    Orbital Energies (a.u.)
 --------------------------------------------------------------

 Alpha MOs
 -- Occupied --
-19.0147 -19.0108 -10.1862 -10.1862 -10.1742 -10.1731 -10.1667 -10.1666
-10.1571 -10.1571 -10.1571 -10.1571 -10.1440 -10.1439 -10.1309 -10.1309
 -0.9233  -0.9199  -0.8208  -0.8200  -0.7699  -0.7021  -0.6891  -0.6890
 -0.6847  -0.6842  -0.6519  -0.5939  -0.5696  -0.5174  -0.5134  -0.4598
 -0.4588  -0.4504  -0.4396  -0.4385  -0.4354  -0.4316  -0.4146  -0.4031
 -0.3918  -0.3863  -0.3795  -0.3712  -0.3678  -0.3625  -0.3496  -0.3489
 -0.3466  -0.3341  -0.3300  -0.3264  -0.3251  -0.3106  -0.3102  -0.2971
 -0.2212  -0.2209  -0.1906  -0.1880  -0.1220

          Ground-State Mulliken Net Atomic Charges

     Atom                 Charge (a.u.)
  ----------------------------------------
      1 C                    -0.211461
      2 C                     2.230921
      3 C                    -0.212190
      4 C                     0.765679
      5 C                    -1.117320
      6 C                    -0.853582
      7 C                    -2.379420
      8 O                    -0.451772
      9 C                    -0.852822
     10 C                    -1.111554
     11 C                    -3.123889
     12 O                    -0.183322
     13 C                     2.238189
     14 C                    -0.211988
     15 C                     0.766180
     16 C                    -0.213905
     17 H                     0.345551
     18 H                     0.052746
     19 H                     0.063510
     20 H                     0.064124
     21 H                     0.345049
     22 H                     0.051395
     23 H                     0.104579
     24 H                     0.104549
     25 H                     0.485910
     26 H                    -0.156446
     27 H                    -0.156020
     28 H                     0.345389
     29 H                     0.051871
     30 H                     0.064256
     31 H                     0.104354
     32 H                     0.485965
     33 H                     0.104732
     34 H                     0.345588
     35 H                     0.051855
     36 H                     0.063298
  ----------------------------------------
  Sum of atomic charges =    -2.000000

                    Cartesian Multipole Moments
 -----------------------------------------------------------------
    Charge (ESU x 10^10)
                -9.6064
    Dipole Moment (Debye)
         X       0.2715      Y       7.7536      Z      -6.9323
       Tot      10.4043
    Quadrupole Moments (Debye-Ang)
        XX    -137.1789     XY       0.2271     YY    -150.0066
        XZ       1.8454     YZ      34.4025     ZZ    -153.5756

 Total job time:  1146.24s(wall), 8957.55s(cpu)
        *  Thank you very much for using Q-Chem.  Have a nice day.  *
