 Gaussian 16, Revision A.03,
 Gaussian 16:  ES64L-G16RevA.03 25-Dec-2016

 ----------------------------------------------------------------------
 #P UB3LYP/6-311++G(d,p) nosym opt freq SCRF=(PCM,Solvent=n,n-DiMethylF
 ormamide)
 ----------------------------------------------------------------------

 -------
 Reduced
 -------
 Symbolic Z-matrix:
 Charge = -2 Multiplicity = 1

 SCF Done:  E(UB3LYP) =  -1301.09300191     A.U. after   15 cycles
 SCF Done:  E(UB3LYP) =  -1301.09367323     A.U. after   12 cycles
 SCF Done:  E(UB3LYP) =  -1301.09385765     A.U. after   12 cycles
 SCF Done:  E(UB3LYP) =  -1301.09386448     A.U. after   11 cycles
 SCF Done:  E(UB3LYP) =  -1301.09386515     A.U. after   11 cycles
 Optimization completed.
    -- Stationary point found.
 Normal termination of Gaussian 16 at Sat Feb 10 10:11:40 2024.

 ----------------------------------------------------------------------
 #P Geom=AllCheck Guess=TCheck SCRF=Check GenChk UB3LYP/6-311++G(d,p) F
 req
 ----------------------------------------------------------------------

 Structure from the checkpoint file:  "010-an.chk"
 -------
 Reduced
 -------
 Charge = -2 Multiplicity = 1

                          Input orientation:
 ---------------------------------------------------------------------
 Center     Atomic      Atomic             Coordinates (Angstroms)
 Number     Number       Type             X           Y           Z
 ---------------------------------------------------------------------
      1         17           0       -3.084431    0.655582    0.110835
      2          6           0       -1.320654    0.317620    0.044242
      3          6           0       -0.928640   -1.018228    0.031001
      4          6           0        0.436326   -1.434698   -0.012092
      5          8           0        0.798789   -2.683138   -0.020823
      6          6           0        1.320655   -0.317621   -0.044229
      7          6           0        0.928641    1.018228   -0.030989
      8          6           0       -0.436324    1.434699    0.012149
      9          8           0       -0.798789    2.683138    0.020806
     10         17           0        3.084429   -0.655582   -0.110877
     11          1           0       -1.683881   -1.797085    0.053789
     12          1           0        1.683880    1.797085   -0.053812
 ---------------------------------------------------------------------

 SCF Done:  E(UB3LYP) =  -1301.09386515     A.U. after    1 cycles

 Alpha  occ. eigenvalues -- -101.52839-101.52839 -19.02221 -19.02220 -10.18912
 Alpha  occ. eigenvalues --  -10.18911 -10.18657 -10.18656 -10.13960 -10.13958
 Alpha  occ. eigenvalues --   -9.44282  -9.44281  -7.20666  -7.20666  -7.19816
 Alpha  occ. eigenvalues --   -7.19816  -7.19773  -7.19773  -0.93788  -0.93294
 Alpha  occ. eigenvalues --   -0.84179  -0.83320  -0.77178  -0.69378  -0.65572
 Alpha  occ. eigenvalues --   -0.57531  -0.53078  -0.45600  -0.44252  -0.42147
 Alpha  occ. eigenvalues --   -0.39185  -0.38460  -0.36560  -0.34746  -0.34479
 Alpha  occ. eigenvalues --   -0.34404  -0.31018  -0.30565  -0.29513  -0.29277
 Alpha  occ. eigenvalues --   -0.23099  -0.21580  -0.20535  -0.20464  -0.13096
 Alpha virt. eigenvalues --    0.00595   0.00667   0.01718   0.02126   0.02169
 Alpha virt. eigenvalues --    0.05063   0.05597   0.05843   0.06072   0.06916
 Alpha virt. eigenvalues --    0.07500   0.07569   0.08963   0.09028   0.09099

  Beta  occ. eigenvalues -- -101.52839-101.52839 -19.02221 -19.02220 -10.18912
  Beta  occ. eigenvalues --  -10.18911 -10.18657 -10.18656 -10.13960 -10.13958
  Beta  occ. eigenvalues --   -9.44282  -9.44281  -7.20666  -7.20666  -7.19816
  Beta  occ. eigenvalues --   -7.19816  -7.19773  -7.19773  -0.93788  -0.93294
  Beta  occ. eigenvalues --   -0.84179  -0.83320  -0.77178  -0.69378  -0.65572
  Beta  occ. eigenvalues --   -0.57531  -0.53078  -0.45600  -0.44252  -0.42147
  Beta  occ. eigenvalues --   -0.39185  -0.38460  -0.36560  -0.34746  -0.34479
  Beta  occ. eigenvalues --   -0.34404  -0.31018  -0.30565  -0.29513  -0.29277
  Beta  occ. eigenvalues --   -0.23099  -0.21580  -0.20535  -0.20464  -0.13096
  Beta virt. eigenvalues --    0.00595   0.00667   0.01718   0.02126   0.02169
  Beta virt. eigenvalues --    0.05063   0.05597   0.05843   0.06072   0.06916
  Beta virt. eigenvalues --    0.07500   0.07569   0.08963   0.09028   0.09099

 Mulliken charges and spin densities:
               1          2
     1  Cl   0.109333  -0.000000
     2  C    1.127196  -0.000000
     3  C   -0.739821  -0.000000
     4  C   -0.971683   0.000000
     5  O   -0.683268  -0.000000
     6  C    1.127200  -0.000000
     7  C   -0.739827   0.000000
     8  C   -0.971685   0.000000
     9  O   -0.683267  -0.000000
    10  Cl   0.109333   0.000000
    11  H    0.158245  -0.000000
    12  H    0.158244   0.000000
 Sum of Mulliken charges =  -2.00000   0.00000

 Dipole moment (field-independent basis, Debye):
    X=              0.0000    Y=              0.0000    Z=              0.0001  Tot=              0.0001
 Quadrupole moment (field-independent basis, Debye-Ang):
   XX=           -104.4796   YY=           -133.9393   ZZ=            -79.3655
   XY=             21.8323   XZ=              0.8537   YZ=             -0.6062

  Exact polarizability: 226.080 -22.649 205.301  -4.576   0.597  94.394
 Approx polarizability: 240.646 -21.836 232.971  -4.805   0.521 101.843

                      1                      2                      3
                      A                      A                      A
 Frequencies --     61.1110               156.8188               201.2123
 Red. masses --     20.8965                11.5220                18.3754
 Frc consts  --      0.0460                 0.1669                 0.4383
 IR Inten    --     13.3905                13.1951                 6.3583

                      4                      5                      6
                      A                      A                      A
 Frequencies --    229.0686               235.0375               305.0325
 Red. masses --      6.6104                14.1550                27.3647
 Frc consts  --      0.2044                 0.4607                 1.5001
 IR Inten    --      0.0000                 0.0000                 0.0000

                      7                      8                      9
                      A                      A                      A
 Frequencies --    323.9542               369.5265               448.9512
 Red. masses --     17.7947                12.2526                 3.1060
 Frc consts  --      1.1003                 0.9858                 0.3688
 IR Inten    --      1.5178                 0.0000                 4.4044

                     10                     11                     12
                      A                      A                      A
 Frequencies --    479.2540               530.5735               609.0966
 Red. masses --     12.1288                11.5156                 5.7425
 Frc consts  --      1.6413                 1.9100                 1.2552
 IR Inten    --      0.0000                69.9102                 0.0000

                     13                     14                     15
                      A                      A                      A
 Frequencies --    673.0916               684.7879               692.0078
 Red. masses --      5.5235                 1.8691                 7.9840
 Frc consts  --      1.4744                 0.5164                 2.2527
 IR Inten    --      0.6059                 0.0000                 0.0000

                     16                     17                     18
                      A                      A                      A
 Frequencies --    810.9425               816.1802               832.4618
 Red. masses --      6.9758                 2.4300                 1.5954
 Frc consts  --      2.7029                 0.9537                 0.6514
 IR Inten    --    479.1800                 0.0000                89.5682

                     19                     20                     21
                      A                      A                      A
 Frequencies --    912.8863              1003.9847              1155.6491
 Red. masses --     10.6348                 2.4520                10.1993
 Frc consts  --      5.2217                 1.4562                 8.0255
 IR Inten    --      0.0000               332.7807               189.1476

                     22                     23                     24
                      A                      A                      A
 Frequencies --   1216.3079              1243.1580              1354.0534
 Red. masses --      1.2711                 2.6889                11.8414
 Frc consts  --      1.1079                 2.4484                12.7916
 IR Inten    --      0.0000               511.3508                 0.0000

                     25                     26                     27
                      A                      A                      A
 Frequencies --   1370.3162              1441.8160              1442.1228
 Red. masses --      8.4770                 3.6236                 7.3104
 Frc consts  --      9.3785                 4.4382                 8.9577
 IR Inten    --    668.5889              1698.1203                 0.0010

                     28                     29                     30
                      A                      A                      A
 Frequencies --   1603.2504              3158.8093              3160.9824
 Red. masses --      8.6952                 1.0887                 1.0897
 Frc consts  --     13.1683                 6.4006                 6.4152
 IR Inten    --      0.0000                54.6595                 0.0000

 - Thermochemistry -
 -------------------
 Temperature   298.150 Kelvin.  Pressure   1.00000 Atm.
 Atom     1 has atomic number 17 and mass  34.96885

 Molecular mass:   175.94318 amu.
 Principal axes and moments of inertia in atomic units:
                           1         2         3
     Eigenvalues --   923.325573016.085823939.40304
           X            0.92405   0.38057   0.03596
           Y           -0.38089   0.92462   0.00219
           Z           -0.03242  -0.01572   0.99935
 This molecule is an asymmetric top.
 Rotational symmetry number  1.
 Warning -- assumption of classical behavior for rotation
           may cause significant error
 Rotational temperatures (Kelvin)      0.09381     0.02872     0.02199
 Rotational constants (GHZ):           1.95461     0.59837     0.45813
 Zero-point vibrational energy     164620.8 (Joules/Mol)
                                   39.34531 (Kcal/Mol)
 Warning -- explicit consideration of  12 degrees of freedom as
           vibrations may cause significant error
 Vibrational temperatures:     87.93   225.63   289.50   329.58   338.17
          (Kelvin)            438.87   466.10   531.67   645.94   689.54
                              763.38   876.35   968.43   985.26   995.64
                             1166.77  1174.30  1197.73  1313.44  1444.51
                             1662.72  1750.00  1788.63  1948.18  1971.58
                             2074.45  2074.89  2306.72  4544.82  4547.95

 Zero-point correction=                           0.062701 (Hartree/Particle)
 Thermal correction to Energy=                    0.071315
 Thermal correction to Enthalpy=                  0.072259
 Thermal correction to Gibbs Free Energy=         0.027926
 Sum of electronic and zero-point Energies=          -1301.031164
 Sum of electronic and thermal Energies=             -1301.022550
 Sum of electronic and thermal Enthalpies=           -1301.021606
 Sum of electronic and thermal Free Energies=        -1301.065939

                     E (Thermal)             CV                S
                      KCal/Mol        Cal/Mol-Kelvin    Cal/Mol-Kelvin
 Total                   44.751             31.313             93.308
 Electronic               0.000              0.000              0.000
 Translational            0.889              2.981             41.402
 Rotational               0.889              2.981             30.773
 Vibrational             42.974             25.352             21.132
 Vibration     1          0.597              1.973              4.421
 Vibration     2          0.620              1.895              2.588
 Vibration     3          0.638              1.838              2.122
 Vibration     4          0.652              1.797              1.886
 Vibration     5          0.655              1.787              1.840
 Vibration     6          0.696              1.664              1.389
 Vibration     7          0.709              1.628              1.290
 Vibration     8          0.742              1.535              1.082
 Vibration     9          0.808              1.363              0.799
 Vibration    10          0.836              1.296              0.712
 Vibration    11          0.886              1.182              0.586
 Vibration    12          0.968              1.013              0.434

 Optimization completed.
    -- Stationary point found.
 Normal termination of Gaussian 16 at Sat Feb 10 10:21:34 2024.
