 Q-Chem 5.4, Q-Chem, Inc., Pleasanton, CA (2021)
 Q-Chem 5.4.0 for Intel X86 EM64T Linux

User input:
--------------------------------------------------------------
$molecule
0 1
Cl                -3.0835280000      0.6939830000      0.1054540000
C                 -1.4109070000      0.2579660000      0.0482930000
C                 -1.0085060000     -1.0200780000      0.0355030000
C                  0.4232520000     -1.3920380000     -0.0134570000
O                  0.7712370000     -2.5532850000     -0.0245630000
C                  1.4108730000     -0.2579330000     -0.0482930000
C                  1.0084980000      1.0200600000     -0.0355040000
C                 -0.4231940000      1.3920810000      0.0134520000
O                 -0.7712580000      2.5533230000      0.0245680000
Cl                 3.0835510000     -0.6940710000     -0.1054550000
H                 -1.7056200000     -1.8482970000      0.0601360000
H                  1.7056020000      1.8482890000     -0.0601350000
$end

$rem
BASIS  =  6-311++G(d,p)
GUI  =  2
JOB_TYPE  =  SP
METHOD  =  B3LYP
SCF_CONVERGENCE  = 8
SOLVENT_METHOD = sm12
$end

$smx
solvent dimethylformamide
charges CM5
$end

--------------------------------------------------------------

             Standard Nuclear Orientation (Angstroms)
    I     Atom           X                Y                Z
 ----------------------------------------------------------------
    1      Cl     -3.0835280000     0.6939830000     0.1054540000
    2      C      -1.4109070000     0.2579660000     0.0482930000
    3      C      -1.0085060000    -1.0200780000     0.0355030000
    4      C       0.4232520000    -1.3920380000    -0.0134570000
    5      O       0.7712370000    -2.5532850000    -0.0245630000
    6      C       1.4108730000    -0.2579330000    -0.0482930000
    7      C       1.0084980000     1.0200600000    -0.0355040000
    8      C      -0.4231940000     1.3920810000     0.0134520000
    9      O      -0.7712580000     2.5533230000     0.0245680000
   10      Cl      3.0835510000    -0.6940710000    -0.1054550000
   11      H      -1.7056200000    -1.8482970000     0.0601360000
   12      H       1.7056020000     1.8482890000    -0.0601350000
 ----------------------------------------------------------------

   15   -1300.7999078306      1.85e-09  Convergence criterion met
 Total energy in the final basis set =    -1300.8137182490

                    Orbital Energies (a.u.)
 --------------------------------------------------------------

 Alpha MOs
 -- Occupied --
********-101.5831 -19.1583 -19.1583 -10.3097 -10.3097 -10.2844 -10.2844
-10.2301 -10.2300  -9.4977  -9.4977  -7.2624  -7.2624  -7.2529  -7.2529
 -7.2518  -7.2518  -1.0937  -1.0916  -0.9254  -0.9105  -0.8454  -0.7854
 -0.7195  -0.6568  -0.6162  -0.5574  -0.5242  -0.5021  -0.4819  -0.4792
 -0.4672  -0.4557  -0.4433  -0.4359  -0.3967  -0.3797  -0.3439  -0.3436
 -0.3124  -0.3090  -0.3021  -0.2927

          Ground-State Mulliken Net Atomic Charges

     Atom                 Charge (a.u.)
  ----------------------------------------
      1 Cl                    0.290093
      2 C                     0.824632
      3 C                     0.264518
      4 C                    -1.458493
      5 O                    -0.246275
      6 C                     0.824971
      7 C                     0.264794
      8 C                    -1.458040
      9 O                    -0.246289
     10 Cl                    0.290049
     11 H                     0.325008
     12 H                     0.325033
  ----------------------------------------
  Sum of atomic charges =     0.000000

                    Cartesian Multipole Moments
 -----------------------------------------------------------------
    Charge (ESU x 10^10)
                -0.0000
    Dipole Moment (Debye)
         X      -0.0000      Y       0.0002      Z      -0.0000
       Tot       0.0002
    Quadrupole Moments (Debye-Ang)
        XX     -69.1375     XY       8.7465     YY     -83.2917
        XZ      -0.0060     YZ      -0.2904     ZZ     -69.1125

 Total job time:  112.86s(wall), 573.62s(cpu)
        *  Thank you very much for using Q-Chem.  Have a nice day.  *
