 Gaussian 16, Revision A.03,
 Gaussian 16:  ES64L-G16RevA.03 25-Dec-2016

 --------------------------------------
 #P UB3LYP/6-311++G(d,p) nosym opt freq
 --------------------------------------

 --------
 Oxidized
 --------
 Symbolic Z-matrix:
 Charge =  0 Multiplicity = 1

 SCF Done:  E(UB3LYP) =  -1300.80038871     A.U. after   16 cycles
 Optimization completed.
    -- Stationary point found.
 Normal termination of Gaussian 16 at Sat Jan  6 05:37:52 2024.

 ----------------------------------------------------------------------
 #P Geom=AllCheck Guess=TCheck SCRF=Check GenChk UB3LYP/6-311++G(d,p) F
 req
 ----------------------------------------------------------------------

 Structure from the checkpoint file:  "010.chk"
 --------
 Oxidized
 --------
 Charge =  0 Multiplicity = 1

                          Input orientation:
 ---------------------------------------------------------------------
 Center     Atomic      Atomic             Coordinates (Angstroms)
 Number     Number       Type             X           Y           Z
 ---------------------------------------------------------------------
      1         17           0       -3.083528    0.693983    0.105454
      2          6           0       -1.410907    0.257966    0.048293
      3          6           0       -1.008506   -1.020078    0.035503
      4          6           0        0.423252   -1.392038   -0.013457
      5          8           0        0.771237   -2.553285   -0.024563
      6          6           0        1.410873   -0.257933   -0.048293
      7          6           0        1.008498    1.020060   -0.035504
      8          6           0       -0.423194    1.392081    0.013452
      9          8           0       -0.771258    2.553323    0.024568
     10         17           0        3.083551   -0.694071   -0.105455
     11          1           0       -1.705620   -1.848297    0.060136
     12          1           0        1.705602    1.848289   -0.060135
 ---------------------------------------------------------------------

 SCF Done:  E(UB3LYP) =  -1300.80038871     A.U. after    2 cycles

 Alpha  occ. eigenvalues -- -101.59069-101.59069 -19.16451 -19.16450 -10.31605
 Alpha  occ. eigenvalues --  -10.31604 -10.29276 -10.29275 -10.23902 -10.23901
 Alpha  occ. eigenvalues --   -9.50513  -9.50512  -7.26996  -7.26995  -7.26022
 Alpha  occ. eigenvalues --   -7.26021  -7.25908  -7.25908  -1.09963  -1.09752
 Alpha  occ. eigenvalues --   -0.93331  -0.91836  -0.85319  -0.79391  -0.72691
 Alpha  occ. eigenvalues --   -0.66585  -0.62398  -0.56498  -0.53176  -0.51082
 Alpha  occ. eigenvalues --   -0.49070  -0.48618  -0.47385  -0.46253  -0.44860
 Alpha  occ. eigenvalues --   -0.44433  -0.40429  -0.38579  -0.35059  -0.35005
 Alpha  occ. eigenvalues --   -0.31937  -0.31413  -0.30742  -0.30125
 Alpha virt. eigenvalues --   -0.15914  -0.06119  -0.02500  -0.01435  -0.01054
 Alpha virt. eigenvalues --   -0.00773   0.00319   0.02826   0.03366   0.03895
 Alpha virt. eigenvalues --    0.05307   0.05339   0.06468   0.07259   0.07786

  Beta  occ. eigenvalues -- -101.59069-101.59069 -19.16451 -19.16450 -10.31605
  Beta  occ. eigenvalues --  -10.31604 -10.29276 -10.29275 -10.23902 -10.23901
  Beta  occ. eigenvalues --   -9.50513  -9.50512  -7.26996  -7.26995  -7.26022
  Beta  occ. eigenvalues --   -7.26021  -7.25908  -7.25908  -1.09963  -1.09752
  Beta  occ. eigenvalues --   -0.93331  -0.91836  -0.85319  -0.79391  -0.72691
  Beta  occ. eigenvalues --   -0.66585  -0.62398  -0.56498  -0.53176  -0.51082
  Beta  occ. eigenvalues --   -0.49070  -0.48618  -0.47385  -0.46253  -0.44860
  Beta  occ. eigenvalues --   -0.44433  -0.40429  -0.38579  -0.35059  -0.35005
  Beta  occ. eigenvalues --   -0.31937  -0.31413  -0.30742  -0.30125
  Beta virt. eigenvalues --   -0.15914  -0.06119  -0.02500  -0.01435  -0.01054
  Beta virt. eigenvalues --   -0.00773   0.00319   0.02826   0.03366   0.03895
  Beta virt. eigenvalues --    0.05307   0.05339   0.06468   0.07259   0.07786

 Mulliken charges and spin densities:
               1          2
     1  Cl   0.371206  -0.000000
     2  C    0.895250   0.000000
     3  C   -0.260380  -0.000000
     4  C   -1.078387   0.000000
     5  O   -0.166067  -0.000000
     6  C    0.895610   0.000000
     7  C   -0.260359  -0.000000
     8  C   -1.078109   0.000000
     9  O   -0.166084  -0.000000
    10  Cl   0.371178   0.000000
    11  H    0.238072  -0.000000
    12  H    0.238069  -0.000000
 Sum of Mulliken charges =   0.00000  -0.00000

 Dipole moment (field-independent basis, Debye):
    X=             -0.0000    Y=              0.0001    Z=             -0.0000  Tot=              0.0001
 Quadrupole moment (field-independent basis, Debye-Ang):
   XX=            -68.8206   YY=            -82.7182   ZZ=            -69.1299
   XY=              7.9197   XZ=             -0.0167   YZ=             -0.2623

  Exact polarizability: 130.143 -30.336 125.330  -2.690   0.985  51.344
 Approx polarizability: 185.887 -77.306 259.833  -3.650   2.516  78.087

                      1                      2                      3
                      A                      A                      A
 Frequencies --     55.8292               134.1073               156.0818
 Red. masses --     20.2605                 9.6533                 6.0460
 Frc consts  --      0.0372                 0.1023                 0.0868
 IR Inten    --      2.3442                 8.5089                 0.0000

                      4                      5                      6
                      A                      A                      A
 Frequencies --    209.6520               246.2279               303.8352
 Red. masses --     18.3208                16.9943                21.6095
 Frc consts  --      0.4745                 0.6071                 1.1754
 IR Inten    --      0.1273                 0.0000                 0.0000

                      7                      8                      9
                      A                      A                      A
 Frequencies --    369.2362               379.1760               391.3991
 Red. masses --     17.4354                 9.7995                 3.4335
 Frc consts  --      1.4005                 0.8301                 0.3099
 IR Inten    --      6.5277                 0.0000                 0.5334

                     10                     11                     12
                      A                      A                      A
 Frequencies --    468.7780               591.8114               599.5159
 Red. masses --     12.3695                10.6406                 6.2697
 Frc consts  --      1.6015                 2.1957                 1.3277
 IR Inten    --      0.0000                71.1954                 0.0002

                     13                     14                     15
                      A                      A                      A
 Frequencies --    653.4194               707.5705               774.9578
 Red. masses --      6.9612                 6.5392                 4.0748
 Frc consts  --      1.7511                 1.9289                 1.4418
 IR Inten    --      0.0000                 1.8488                 0.0000

                     16                     17                     18
                      A                      A                      A
 Frequencies --    802.8741               875.3773               918.2952
 Red. masses --      4.1943                 1.4870                 1.4969
 Frc consts  --      1.5930                 0.6713                 0.7437
 IR Inten    --     22.5078                 0.0000                49.5881

                     19                     20                     21
                      A                      A                      A
 Frequencies --    945.7435              1022.8303              1197.5379
 Red. masses --     12.2052                 4.4317                 1.7783
 Frc consts  --      6.4319                 2.7317                 1.5025
 IR Inten    --      0.0001               291.2334                 0.0003

                     22                     23                     24
                      A                      A                      A
 Frequencies --   1206.2574              1315.2565              1325.4727
 Red. masses --      5.3709                 2.7240                 1.7595
 Frc consts  --      4.6045                 2.7763                 1.8213
 IR Inten    --    102.2203                 0.0002                30.2343

                     25                     26                     27
                      A                      A                      A
 Frequencies --   1625.4214              1664.4533              1736.2272
 Red. masses --      9.0127                 8.6251                12.2867
 Frc consts  --     14.0294                14.0786                21.8222
 IR Inten    --    201.6979                 0.0017                 0.0332

                     28                     29                     30
                      A                      A                      A
 Frequencies --   1742.3095              3203.5766              3204.7198
 Red. masses --     12.4824                 1.0932                 1.0936
 Frc consts  --     22.3254                 6.6105                 6.6176
 IR Inten    --    451.8265                 2.2991                 0.0001

 - Thermochemistry -
 -------------------
 Temperature   298.150 Kelvin.  Pressure   1.00000 Atm.
 Atom     1 has atomic number 17 and mass  34.96885

 Molecular mass:   175.94318 amu.
 Principal axes and moments of inertia in atomic units:
                           1         2         3
     Eigenvalues --   865.749073024.772783890.52186
           X            0.93116   0.36300   0.03436
           Y           -0.36324   0.93170   0.00077
           Z           -0.03173  -0.01320   0.99941
 This molecule is an asymmetric top.
 Rotational symmetry number  1.
 Warning -- assumption of classical behavior for rotation
           may cause significant error
 Rotational temperatures (Kelvin)      0.10005     0.02863     0.02226
 Rotational constants (GHZ):           2.08460     0.59665     0.46388
 Zero-point vibrational energy     172429.4 (Joules/Mol)
                                   41.21162 (Kcal/Mol)
 Warning -- explicit consideration of  12 degrees of freedom as
           vibrations may cause significant error
 Vibrational temperatures:     80.33   192.95   224.57   301.64   354.27
          (Kelvin)            437.15   531.25   545.55   563.14   674.47
                              851.48   862.57   940.12  1018.04  1114.99
                             1155.16  1259.47  1321.22  1360.71  1471.62
                             1722.99  1735.54  1892.36  1907.06  2338.62
                             2394.78  2498.04  2506.79  4609.23  4610.88

 Zero-point correction=                           0.065675 (Hartree/Particle)
 Thermal correction to Energy=                    0.074306
 Thermal correction to Enthalpy=                  0.075251
 Thermal correction to Gibbs Free Energy=         0.030638
 Sum of electronic and zero-point Energies=          -1300.734714
 Sum of electronic and thermal Energies=             -1300.726082
 Sum of electronic and thermal Enthalpies=           -1300.725138
 Sum of electronic and thermal Free Energies=        -1300.769751

                     E (Thermal)             CV                S
                      KCal/Mol        Cal/Mol-Kelvin    Cal/Mol-Kelvin
 Total                   46.628             30.669             93.896
 Electronic               0.000              0.000              0.000
 Translational            0.889              2.981             41.402
 Rotational               0.889              2.981             30.700
 Vibrational             44.851             24.707             21.794
 Vibration     1          0.596              1.975              4.599
 Vibration     2          0.613              1.919              2.886
 Vibration     3          0.620              1.896              2.597
 Vibration     4          0.642              1.826              2.047
 Vibration     5          0.661              1.769              1.757
 Vibration     6          0.695              1.666              1.396
 Vibration     7          0.742              1.535              1.083
 Vibration     8          0.749              1.515              1.042
 Vibration     9          0.759              1.489              0.995
 Vibration    10          0.826              1.319              0.741
 Vibration    11          0.949              1.049              0.464
 Vibration    12          0.958              1.033              0.450

 Optimization completed.
    -- Stationary point found.
 Normal termination of Gaussian 16 at Sat Jan  6 05:42:03 2024.
