 Gaussian 16, Revision A.03,
 Gaussian 16:  ES64L-G16RevA.03 25-Dec-2016

 ----------------------------------------------------------------
 #P UB3LYP/6-311++G(d,p) SCRF=(PCM,Solvent=n,n-DiMethylFormamide)
 ----------------------------------------------------------------

 -------
 Reduced
 -------
 Symbolic Z-matrix:
 Charge = -2 Multiplicity = 1

                         Standard orientation:
 ---------------------------------------------------------------------
 Center     Atomic      Atomic             Coordinates (Angstroms)
 Number     Number       Type             X           Y           Z
 ---------------------------------------------------------------------
      1          6           0       -3.926065    0.360026   -0.508790
      2          6           0       -4.662752   -0.809145   -0.580291
      3          6           0       -4.039173   -2.048955   -0.295978
      4          6           0       -2.557023    0.358799   -0.158422
      5          6           0       -1.925717   -0.897982    0.130035
      6          6           0       -2.699550   -2.077060    0.049858
      7          6           0       -1.824765    1.619690   -0.091729
      8          6           0       -0.438113    1.509922    0.268190
      9          6           0        0.181234    0.276312    0.559123
     10          6           0       -0.516498   -0.977901    0.501149
     11          8           0       -2.402341    2.741343   -0.337865
     12          8           0        0.048990   -2.100275    0.761122
     13          1           0       -5.715643   -0.777927   -0.854599
     14          6           0        1.639422    0.199977    0.960202
     15          1           0       -4.611263   -2.973286   -0.350297
     16          6           0        0.334744    2.808516    0.339580
     17          6           0        2.598569   -0.093204   -0.212634
     18          6           0        4.071161   -0.196377    0.214044
     19          6           0        5.041810   -0.480980   -0.939033
     20          6           0        6.512014   -0.577103   -0.512436
     21          1           0       -4.373760    1.326216   -0.719273
     22          1           0       -2.190769   -3.009625    0.273070
     23          1           0        1.743022   -0.618307    1.681778
     24          1           0        1.957742    1.126420    1.453697
     25          1           0       -0.291514    3.603426   -0.070660
     26          1           0        1.278442    2.768203   -0.218390
     27          1           0        0.591987    3.085690    1.374442
     28          1           0        2.495470    0.691177   -0.974179
     29          1           0        2.281335   -1.031809   -0.678911
     30          1           0        4.169238   -0.987834    0.969441
     31          1           0        4.372162    0.736968    0.711683
     32          1           0        4.937533    0.305606   -1.698245
     33          1           0        4.745488   -1.415644   -1.432076
     34          1           0        6.857207    0.354727   -0.049017
     35          1           0        7.178440   -0.779328   -1.359218
     36          1           0        6.665901   -1.380429    0.217484
 ---------------------------------------------------------------------

 SCF Done:  E(UB3LYP) =  -771.449907790     A.U. after   18 cycles

 The electronic state is 1-A.
 Alpha  occ. eigenvalues --  -19.00656 -19.00645 -10.15788 -10.15746 -10.15642
 Alpha  occ. eigenvalues --  -10.15204 -10.15040 -10.14402 -10.14356 -10.14330
 Alpha  occ. eigenvalues --  -10.13987 -10.13974 -10.13372 -10.12989 -10.12699
 Alpha  occ. eigenvalues --  -10.12654 -10.11821 -10.11502  -0.92800  -0.92457
 Alpha  occ. eigenvalues --   -0.81864  -0.79164  -0.76977  -0.73461  -0.71569
 Alpha  occ. eigenvalues --   -0.71369  -0.67898  -0.64254  -0.61524  -0.59348
 Alpha  occ. eigenvalues --   -0.56632  -0.55956  -0.54365  -0.51159  -0.47675
 Alpha  occ. eigenvalues --   -0.45995  -0.45399  -0.42594  -0.42379  -0.41710
 Alpha  occ. eigenvalues --   -0.40292  -0.39896  -0.39432  -0.38368  -0.37482
 Alpha  occ. eigenvalues --   -0.36542  -0.35978  -0.35792  -0.35298  -0.34381
 Alpha  occ. eigenvalues --   -0.34188  -0.33163  -0.32415  -0.31731  -0.31531
 Alpha  occ. eigenvalues --   -0.30835  -0.30545  -0.30048  -0.29223  -0.28809
 Alpha  occ. eigenvalues --   -0.22350  -0.21570  -0.19576  -0.19098  -0.18143
 Alpha  occ. eigenvalues --   -0.09893
 Alpha virt. eigenvalues --   -0.00160  -0.00001   0.00422   0.01015   0.01581
 Alpha virt. eigenvalues --    0.01650   0.01874   0.02334   0.03168   0.03689
 Alpha virt. eigenvalues --    0.03714   0.04585   0.04820   0.05354   0.05615

  Beta  occ. eigenvalues --  -19.00656 -19.00645 -10.15788 -10.15746 -10.15642
  Beta  occ. eigenvalues --  -10.15204 -10.15040 -10.14402 -10.14356 -10.14330
  Beta  occ. eigenvalues --  -10.13987 -10.13974 -10.13372 -10.12989 -10.12699
  Beta  occ. eigenvalues --  -10.12654 -10.11821 -10.11502  -0.92800  -0.92457
  Beta  occ. eigenvalues --   -0.81864  -0.79164  -0.76977  -0.73461  -0.71569
  Beta  occ. eigenvalues --   -0.71369  -0.67898  -0.64254  -0.61524  -0.59348
  Beta  occ. eigenvalues --   -0.56632  -0.55956  -0.54365  -0.51159  -0.47675
  Beta  occ. eigenvalues --   -0.45995  -0.45399  -0.42594  -0.42379  -0.41710
  Beta  occ. eigenvalues --   -0.40292  -0.39896  -0.39432  -0.38368  -0.37482
  Beta  occ. eigenvalues --   -0.36542  -0.35978  -0.35792  -0.35298  -0.34381
  Beta  occ. eigenvalues --   -0.34188  -0.33163  -0.32415  -0.31731  -0.31531
  Beta  occ. eigenvalues --   -0.30835  -0.30545  -0.30048  -0.29223  -0.28809
  Beta  occ. eigenvalues --   -0.22350  -0.21570  -0.19576  -0.19098  -0.18143
  Beta  occ. eigenvalues --   -0.09893
  Beta virt. eigenvalues --   -0.00160  -0.00001   0.00422   0.01015   0.01581
  Beta virt. eigenvalues --    0.01650   0.01874   0.02334   0.03168   0.03689
  Beta virt. eigenvalues --    0.03714   0.04585   0.04820   0.05354   0.05615

 Mulliken charges and spin densities:
               1          2
     1  C    0.096180   0.000000
     2  C   -0.489178   0.000000
     3  C   -0.461372   0.000000
     4  C    0.280970  -0.000000
     5  C   -0.117180   0.000000
     6  C   -0.013252   0.000000
     7  C   -0.760556  -0.000000
     8  C    0.898155   0.000000
     9  C    1.034181  -0.000000
    10  C   -1.073336   0.000000
    11  O   -0.691417   0.000000
    12  O   -0.668859  -0.000000
    13  H    0.147928  -0.000000
    14  C   -0.375387  -0.000000
    15  H    0.148864   0.000000
    16  C   -0.556496   0.000000
    17  C   -0.579924   0.000000
    18  C   -0.192607  -0.000000
    19  C   -0.177601   0.000000
    20  C   -0.669369   0.000000
    21  H    0.143117  -0.000000
    22  H    0.140989  -0.000000
    23  H    0.177391  -0.000000
    24  H    0.152659  -0.000000
    25  H    0.165469   0.000000
    26  H    0.133172   0.000000
    27  H    0.142596   0.000000
    28  H    0.111909  -0.000000
    29  H    0.171938  -0.000000
    30  H    0.105876   0.000000
    31  H    0.097874   0.000000
    32  H    0.128091  -0.000000
    33  H    0.125935   0.000000
    34  H    0.139995   0.000000
    35  H    0.142857  -0.000000
    36  H    0.140387  -0.000000
 Sum of Mulliken charges =  -2.00000   0.00000

 Dipole moment (field-independent basis, Debye):
    X=             13.4456    Y=             -1.8363    Z=             -1.4972  Tot=             13.6528
 Quadrupole moment (field-independent basis, Debye-Ang):
   XX=           -163.3027   YY=           -166.5772   ZZ=           -125.1531
   XY=             20.1902   XZ=             -4.2899   YZ=              8.4576

 Normal termination of Gaussian 16 at Sun Jan 21 08:56:09 2024.
