 Gaussian 16, Revision A.03,
 Gaussian 16:  ES64L-G16RevA.03 25-Dec-2016

 ----------------------------------------------------------------
 #P UB3LYP/6-311++G(d,p) SCRF=(PCM,Solvent=n,n-DiMethylFormamide)
 ----------------------------------------------------------------

 ------------------
 Quinone PCM in DMF
 ------------------
 Symbolic Z-matrix:
 Charge =  0 Multiplicity = 1

                         Standard orientation:
 ---------------------------------------------------------------------
 Center     Atomic      Atomic             Coordinates (Angstroms)
 Number     Number       Type             X           Y           Z
 ---------------------------------------------------------------------
      1          6           0        9.887524    1.085046    1.236348
      2          6           0       10.441300    2.201477    0.617414
      3          6           0        9.821890    2.756675   -0.503811
      4          6           0        8.649153    2.199273   -1.010198
      5          6           0        8.086356    1.081292   -0.397088
      6          6           0        8.711747    0.525142    0.730880
      7          6           0        8.112626   -0.657807    1.374936
      8          6           0        6.854381   -1.213139    0.798510
      9          6           0        6.237923   -0.700349   -0.294793
     10          6           0        6.821579    0.488065   -0.951666
     11          8           0        8.584764   -1.216591    2.358770
     12          8           0        6.291372    0.986127   -1.935049
     13          6           0        4.963890   -1.275174   -0.846860
     14          6           0        3.702592   -0.595838   -0.271226
     15          6           0        2.407593   -1.181132   -0.843568
     16          6           0        1.143167   -0.522069   -0.280964
     17          6           0       -0.155691   -1.105247   -0.849024
     18          6           0       -1.420710   -0.446542   -0.287223
     19          6           0       -2.719671   -1.029089   -0.855396
     20          6           0       -3.983575   -0.369093   -0.291871
     21          6           0       -5.280364   -0.957026   -0.864621
     22          6           0       -6.527396   -0.287583   -0.288912
     23         16           0       -8.049582   -1.042658   -1.020957
     24          6           0       -9.326707   -0.093440   -0.185733
     25          6           0       -9.815687    1.089324   -0.748099
     26          6           0       -9.871280   -0.542853    1.020809
     27          6           0      -10.876059    0.184729    1.654283
     28          6           0      -11.369373    1.371691    1.101951
     29          6           0      -10.820464    1.810791   -0.107689
     30          6           0      -12.482392    2.138181    1.774231
     31          1           0       10.349795    0.636243    2.107013
     32          1           0       11.353260    2.639234    1.006507
     33          1           0       10.254885    3.626558   -0.984586
     34          1           0        8.156086    2.617193   -1.879061
     35          8           0        6.379755   -2.283085    1.457081
     36          1           0        4.929303   -2.345351   -0.627315
     37          1           0        4.969117   -1.149545   -1.932409
     38          1           0        3.746444    0.477170   -0.485822
     39          1           0        3.703324   -0.702886    0.819450
     40          1           0        2.375786   -2.259172   -0.639463
     41          1           0        2.415970   -1.076397   -1.935881
     42          1           0        1.175923    0.555708   -0.485785
     43          1           0        1.137770   -0.624024    0.811975
     44          1           0       -0.188030   -2.183271   -0.644664
     45          1           0       -0.149964   -1.003645   -1.941932
     46          1           0       -1.387981    0.631500   -0.491463
     47          1           0       -1.426332   -0.548200    0.805793
     48          1           0       -2.753107   -2.106928   -0.651227
     49          1           0       -2.715011   -0.926846   -1.948105
     50          1           0       -3.951446    0.708425   -0.497062
     51          1           0       -3.989323   -0.472336    0.800616
     52          1           0       -5.316525   -2.032657   -0.657650
     53          1           0       -5.279972   -0.849141   -1.955255
     54          1           0       -6.533698    0.781458   -0.513637
     55          1           0       -6.570704   -0.413425    0.795372
     56          1           0       -9.408567    1.440394   -1.689241
     57          1           0       -9.507148   -1.464641    1.459503
     58          1           0      -11.284463   -0.178949    2.592090
     59          1           0      -11.185112    2.728551   -0.558552
     60          1           0      -12.457277    2.008943    2.858729
     61          1           0      -13.461800    1.792004    1.425985
     62          1           0      -12.418102    3.207013    1.557632
     63          1           0        7.008964   -2.453894    2.183603
 ---------------------------------------------------------------------

 SCF Done:  E(UB3LYP) =  -1672.42593467     A.U. after   17 cycles

 The electronic state is 1-A.
 Alpha  occ. eigenvalues --  -88.84533 -19.18058 -19.15128 -19.13078 -10.29514
 Alpha  occ. eigenvalues --  -10.28227 -10.26890 -10.21283 -10.21154 -10.20776
 Alpha  occ. eigenvalues --  -10.20548 -10.20347 -10.20177 -10.20008 -10.19966
 Alpha  occ. eigenvalues --  -10.19844 -10.19322 -10.18499 -10.18498 -10.18020
 Alpha  occ. eigenvalues --  -10.18018 -10.17803 -10.17240 -10.16930 -10.16905
 Alpha  occ. eigenvalues --  -10.16595 -10.16298 -10.16218 -10.16116 -10.16079
 Alpha  occ. eigenvalues --  -10.16042  -7.93147  -5.89543  -5.89189  -5.88509
 Alpha  occ. eigenvalues --   -1.11057  -1.06906  -1.06430  -0.89477  -0.87429
 Alpha  occ. eigenvalues --   -0.84603  -0.82197  -0.81160  -0.80041  -0.78872
 Alpha  occ. eigenvalues --   -0.78232  -0.77271  -0.75700  -0.75120  -0.72799
 Alpha  occ. eigenvalues --   -0.70667  -0.69062  -0.67232  -0.65751  -0.64556
 Alpha  occ. eigenvalues --   -0.62376  -0.61887  -0.60784  -0.60094  -0.58617
 Alpha  occ. eigenvalues --   -0.58076  -0.57689  -0.57583  -0.57441  -0.54456
 Alpha  occ. eigenvalues --   -0.52084  -0.50055  -0.49991  -0.48979  -0.48230
 Alpha  occ. eigenvalues --   -0.47894  -0.47544  -0.47311  -0.46915  -0.46014
 Alpha  occ. eigenvalues --   -0.45948  -0.45519  -0.44752  -0.43952  -0.43275
 Alpha  occ. eigenvalues --   -0.42997  -0.42956  -0.42688  -0.42561  -0.42452
 Alpha  occ. eigenvalues --   -0.41449  -0.41121  -0.40140  -0.39980  -0.39745
 Alpha  occ. eigenvalues --   -0.39168  -0.38505  -0.38193  -0.37899  -0.37414
 Alpha  occ. eigenvalues --   -0.36977  -0.36765  -0.36674  -0.35089  -0.35061
 Alpha  occ. eigenvalues --   -0.34558  -0.34403  -0.33487  -0.33179  -0.32570
 Alpha  occ. eigenvalues --   -0.32422  -0.32300  -0.32146  -0.30874  -0.30359
 Alpha  occ. eigenvalues --   -0.29164  -0.28229  -0.28045  -0.26660  -0.25842
 Alpha  occ. eigenvalues --   -0.25202  -0.23706
 Alpha virt. eigenvalues --   -0.12735  -0.05815  -0.03126  -0.02775  -0.02467
 Alpha virt. eigenvalues --   -0.00968  -0.00640  -0.00202   0.00189   0.00523
 Alpha virt. eigenvalues --    0.00634   0.00853   0.01180   0.01250   0.01562

  Beta  occ. eigenvalues --  -88.84533 -19.18058 -19.15128 -19.13078 -10.29514
  Beta  occ. eigenvalues --  -10.28227 -10.26890 -10.21283 -10.21154 -10.20776
  Beta  occ. eigenvalues --  -10.20548 -10.20347 -10.20177 -10.20008 -10.19966
  Beta  occ. eigenvalues --  -10.19844 -10.19322 -10.18499 -10.18498 -10.18020
  Beta  occ. eigenvalues --  -10.18018 -10.17803 -10.17240 -10.16930 -10.16905
  Beta  occ. eigenvalues --  -10.16595 -10.16298 -10.16218 -10.16116 -10.16079
  Beta  occ. eigenvalues --  -10.16042  -7.93147  -5.89543  -5.89189  -5.88509
  Beta  occ. eigenvalues --   -1.11057  -1.06906  -1.06430  -0.89477  -0.87429
  Beta  occ. eigenvalues --   -0.84603  -0.82197  -0.81160  -0.80041  -0.78872
  Beta  occ. eigenvalues --   -0.78232  -0.77271  -0.75700  -0.75120  -0.72799
  Beta  occ. eigenvalues --   -0.70667  -0.69062  -0.67232  -0.65751  -0.64556
  Beta  occ. eigenvalues --   -0.62376  -0.61887  -0.60784  -0.60094  -0.58617
  Beta  occ. eigenvalues --   -0.58076  -0.57689  -0.57583  -0.57441  -0.54456
  Beta  occ. eigenvalues --   -0.52084  -0.50055  -0.49991  -0.48979  -0.48230
  Beta  occ. eigenvalues --   -0.47894  -0.47544  -0.47311  -0.46915  -0.46014
  Beta  occ. eigenvalues --   -0.45948  -0.45519  -0.44752  -0.43952  -0.43275
  Beta  occ. eigenvalues --   -0.42997  -0.42956  -0.42688  -0.42561  -0.42452
  Beta  occ. eigenvalues --   -0.41449  -0.41121  -0.40140  -0.39980  -0.39745
  Beta  occ. eigenvalues --   -0.39168  -0.38505  -0.38193  -0.37899  -0.37414
  Beta  occ. eigenvalues --   -0.36977  -0.36765  -0.36674  -0.35089  -0.35061
  Beta  occ. eigenvalues --   -0.34558  -0.34403  -0.33487  -0.33179  -0.32570
  Beta  occ. eigenvalues --   -0.32422  -0.32300  -0.32146  -0.30874  -0.30359
  Beta  occ. eigenvalues --   -0.29164  -0.28229  -0.28045  -0.26660  -0.25842
  Beta  occ. eigenvalues --   -0.25202  -0.23706
  Beta virt. eigenvalues --   -0.12735  -0.05815  -0.03126  -0.02775  -0.02467
  Beta virt. eigenvalues --   -0.00968  -0.00640  -0.00202   0.00189   0.00523
  Beta virt. eigenvalues --    0.00634   0.00853   0.01180   0.01250   0.01562

 Mulliken charges and spin densities:
               1          2
     1  C    0.192189   0.000000
     2  C   -0.394550  -0.000000
     3  C   -0.375229   0.000000
     4  C    0.192122   0.000000
     5  C    0.017944   0.000000
     6  C    0.310752  -0.000000
     7  C   -0.711290   0.000000
     8  C   -0.498883   0.000000
     9  C    1.766294  -0.000000
    10  C   -0.797638   0.000000
    11  O   -0.313517   0.000000
    12  O   -0.273984  -0.000000
    13  C   -0.285592   0.000000
    14  C   -0.628933   0.000000
    15  C   -0.149001  -0.000000
    16  C   -0.184801  -0.000000
    17  C   -0.290496   0.000000
    18  C   -0.384439   0.000000
    19  C   -0.213947  -0.000000
    20  C   -0.310903   0.000000
    21  C   -0.058211   0.000000
    22  C   -0.887844   0.000000
    23  S   -0.153861  -0.000000
    24  C    1.358167   0.000000
    25  C   -0.471816  -0.000000
    26  C   -0.478640   0.000000
    27  C   -0.478872  -0.000000
    28  C    0.475892  -0.000000
    29  C   -0.484874   0.000000
    30  C   -0.699416   0.000000
    31  H    0.192369   0.000000
    32  H    0.210929  -0.000000
    33  H    0.208149   0.000000
    34  H    0.189038  -0.000000
    35  O   -0.221211  -0.000000
    36  H    0.232029  -0.000000
    37  H    0.218344  -0.000000
    38  H    0.177795  -0.000000
    39  H    0.176432  -0.000000
    40  H    0.115557  -0.000000
    41  H    0.119364  -0.000000
    42  H    0.128311  -0.000000
    43  H    0.127335  -0.000000
    44  H    0.133982  -0.000000
    45  H    0.134211  -0.000000
    46  H    0.132617  -0.000000
    47  H    0.132492  -0.000000
    48  H    0.130607   0.000000
    49  H    0.130537   0.000000
    50  H    0.132710   0.000000
    51  H    0.132685  -0.000000
    52  H    0.132177  -0.000000
    53  H    0.132445  -0.000000
    54  H    0.214004  -0.000000
    55  H    0.214239  -0.000000
    56  H    0.201347  -0.000000
    57  H    0.201337   0.000000
    58  H    0.195492  -0.000000
    59  H    0.195529   0.000000
    60  H    0.153265   0.000000
    61  H    0.177803   0.000000
    62  H    0.153338  -0.000000
    63  H    0.308118   0.000000
 Sum of Mulliken charges =  -0.00000  -0.00000

 Dipole moment (field-independent basis, Debye):
    X=              2.4787    Y=              3.4900    Z=              2.9108  Tot=              5.1766
 Quadrupole moment (field-independent basis, Debye-Ang):
   XX=           -143.8257   YY=           -189.0342   ZZ=           -201.3332
   XY=             -1.1367   XZ=            -15.9169   YZ=             -1.5877

 Normal termination of Gaussian 16 at Thu Jan 25 06:03:01 2024.
