 Gaussian 16, Revision A.03,
 Gaussian 16:  ES64L-G16RevA.03 25-Dec-2016

 ----------------------------------------------------------------
 #P UB3LYP/6-311++G(d,p) SCRF=(PCM,Solvent=n,n-DiMethylFormamide)
 ----------------------------------------------------------------

 -------
 Reduced
 -------
 Symbolic Z-matrix:
 Charge = -2 Multiplicity = 1

                         Standard orientation:
 ---------------------------------------------------------------------
 Center     Atomic      Atomic             Coordinates (Angstroms)
 Number     Number       Type             X           Y           Z
 ---------------------------------------------------------------------
      1          8           0        2.784695   -1.227962   -0.000024
      2          6           0        1.421050   -1.239856    0.000035
      3          6           0        0.711450   -2.426873    0.000067
      4          6           0       -0.711260   -2.426846    0.000028
      5          6           0       -1.420779   -1.239867   -0.000053
      6          8           0       -2.784839   -1.228570   -0.000085
      7          6           0       -0.717090    0.013165   -0.000027
      8          6           0       -1.466967    1.253104   -0.000009
      9          8           0       -2.797188    1.230325    0.000073
     10          6           0       -0.708317    2.428912    0.000001
     11          6           0        0.708508    2.428814    0.000009
     12          6           0        1.466720    1.252869   -0.000004
     13          8           0        2.797199    1.229631   -0.000027
     14          6           0        0.716855    0.013122    0.000034
     15          1           0        3.005847   -0.192314   -0.000125
     16          1           0        1.263074   -3.364424    0.000074
     17          1           0       -1.262887   -3.364371    0.000053
     18          1           0       -3.006331   -0.194535   -0.000013
     19          1           0       -1.249616    3.374590    0.000036
     20          1           0        1.249963    3.374407   -0.000012
 ---------------------------------------------------------------------

 SCF Done:  E(UB3LYP) =  -686.047510251     A.U. after   15 cycles

 The electronic state is 1-A.
 Alpha  occ. eigenvalues --  -19.09136 -19.09114 -19.04214 -19.04198 -10.19773
 Alpha  occ. eigenvalues --  -10.19771 -10.18347 -10.18345 -10.14814 -10.14773
 Alpha  occ. eigenvalues --  -10.14142 -10.14097 -10.12984 -10.12938  -1.00922
 Alpha  occ. eigenvalues --   -1.00750  -0.94275  -0.94049  -0.81959  -0.76964
 Alpha  occ. eigenvalues --   -0.70974  -0.70285  -0.65180  -0.60146  -0.57938
 Alpha  occ. eigenvalues --   -0.54534  -0.48584  -0.47667  -0.47273  -0.46191
 Alpha  occ. eigenvalues --   -0.43779  -0.39946  -0.39826  -0.39000  -0.37653
 Alpha  occ. eigenvalues --   -0.37458  -0.36305  -0.35437  -0.34798  -0.34351
 Alpha  occ. eigenvalues --   -0.32870  -0.31666  -0.31341  -0.27366  -0.23698
 Alpha  occ. eigenvalues --   -0.22392  -0.22101  -0.21420  -0.18460  -0.12593
 Alpha virt. eigenvalues --    0.00341   0.00511   0.01400   0.01410   0.01760
 Alpha virt. eigenvalues --    0.03040   0.03592   0.05170   0.05588   0.05676
 Alpha virt. eigenvalues --    0.07072   0.07677   0.08392   0.08757   0.09235

  Beta  occ. eigenvalues --  -19.09136 -19.09114 -19.04214 -19.04198 -10.19773
  Beta  occ. eigenvalues --  -10.19771 -10.18347 -10.18345 -10.14814 -10.14773
  Beta  occ. eigenvalues --  -10.14142 -10.14097 -10.12984 -10.12938  -1.00922
  Beta  occ. eigenvalues --   -1.00750  -0.94275  -0.94049  -0.81959  -0.76964
  Beta  occ. eigenvalues --   -0.70974  -0.70285  -0.65180  -0.60146  -0.57938
  Beta  occ. eigenvalues --   -0.54534  -0.48584  -0.47667  -0.47273  -0.46191
  Beta  occ. eigenvalues --   -0.43779  -0.39946  -0.39826  -0.39000  -0.37653
  Beta  occ. eigenvalues --   -0.37458  -0.36305  -0.35437  -0.34798  -0.34351
  Beta  occ. eigenvalues --   -0.32870  -0.31666  -0.31341  -0.27366  -0.23698
  Beta  occ. eigenvalues --   -0.22392  -0.22101  -0.21420  -0.18460  -0.12593
  Beta virt. eigenvalues --    0.00341   0.00511   0.01400   0.01410   0.01760
  Beta virt. eigenvalues --    0.03040   0.03592   0.05170   0.05588   0.05676
  Beta virt. eigenvalues --    0.07072   0.07677   0.08392   0.08757   0.09235

 Mulliken charges and spin densities:
               1          2
     1  O   -0.517093   0.000000
     2  C   -0.272132  -0.000000
     3  C   -0.101489  -0.000000
     4  C   -0.100839  -0.000000
     5  C   -0.272476  -0.000000
     6  O   -0.515984   0.000000
     7  C    0.413384   0.000000
     8  C   -0.316339   0.000000
     9  O   -0.700568  -0.000000
    10  C   -0.196701  -0.000000
    11  C   -0.196356  -0.000000
    12  C   -0.314600   0.000000
    13  O   -0.700315   0.000000
    14  C    0.412321   0.000000
    15  H    0.385896   0.000000
    16  H    0.161199  -0.000000
    17  H    0.161252  -0.000000
    18  H    0.385298  -0.000000
    19  H    0.142751  -0.000000
    20  H    0.142792  -0.000000
 Sum of Mulliken charges =  -2.00000   0.00000

 Dipole moment (field-independent basis, Debye):
    X=              0.0003    Y=             -3.0516    Z=             -0.0001  Tot=              3.0516
 Quadrupole moment (field-independent basis, Debye-Ang):
   XX=           -155.2299   YY=           -110.0295   ZZ=            -91.1105
   XY=              0.0302   XZ=             -0.0002   YZ=             -0.0004

 Normal termination of Gaussian 16 at Thu Jan 25 05:45:29 2024.
