 Gaussian 16, Revision A.03,
 Gaussian 16:  ES64L-G16RevA.03 25-Dec-2016

 ----------------------------------------------------------------------
 #P UB3LYP/6-311++G(d,p) nosym opt freq SCRF=(PCM,Solvent=n,n-DiMethylF
 ormamide)
 ----------------------------------------------------------------------

 -------
 Radical
 -------
 Symbolic Z-matrix:
 Charge = -1 Multiplicity = 2

 SCF Done:  E(UB3LYP) =  -1357.73689365     A.U. after   22 cycles
 SCF Done:  E(UB3LYP) =  -1357.73693782     A.U. after   21 cycles
 SCF Done:  E(UB3LYP) =  -1357.73744162     A.U. after   21 cycles
 SCF Done:  E(UB3LYP) =  -1357.73742955     A.U. after   18 cycles
 SCF Done:  E(UB3LYP) =  -1357.73748559     A.U. after   16 cycles
 SCF Done:  E(UB3LYP) =  -1357.73750024     A.U. after   13 cycles
 SCF Done:  E(UB3LYP) =  -1357.73750760     A.U. after   16 cycles
 SCF Done:  E(UB3LYP) =  -1357.73750973     A.U. after   15 cycles
 SCF Done:  E(UB3LYP) =  -1357.73751120     A.U. after   14 cycles
 SCF Done:  E(UB3LYP) =  -1357.73751310     A.U. after   14 cycles
 SCF Done:  E(UB3LYP) =  -1357.73751516     A.U. after   12 cycles
 SCF Done:  E(UB3LYP) =  -1357.73751932     A.U. after   15 cycles
 SCF Done:  E(UB3LYP) =  -1357.73752042     A.U. after   13 cycles
 SCF Done:  E(UB3LYP) =  -1357.73752104     A.U. after   14 cycles
 SCF Done:  E(UB3LYP) =  -1357.73752113     A.U. after   12 cycles
 SCF Done:  E(UB3LYP) =  -1357.73752119     A.U. after   12 cycles
 SCF Done:  E(UB3LYP) =  -1357.73752126     A.U. after   13 cycles
 Optimization completed.
    -- Stationary point found.
 Normal termination of Gaussian 16 at Sun Feb 11 19:08:47 2024.

 ----------------------------------------------------------------------
 #P Geom=AllCheck Guess=TCheck SCRF=Check GenChk UB3LYP/6-311++G(d,p) F
 req
 ----------------------------------------------------------------------

 Structure from the checkpoint file:  "314-rad.chk"
 -------
 Radical
 -------
 Charge = -1 Multiplicity = 2

                          Input orientation:
 ---------------------------------------------------------------------
 Center     Atomic      Atomic             Coordinates (Angstroms)
 Number     Number       Type             X           Y           Z
 ---------------------------------------------------------------------
      1          6           0       -4.145004   -0.543591   -3.597859
      2          6           0       -3.126939   -0.871840   -4.475998
      3          6           0       -1.787724   -0.628764   -4.121194
      4          6           0       -3.863117    0.032019   -2.342174
      5          6           0       -2.515535    0.277333   -1.986508
      6          6           0       -1.492267   -0.061282   -2.893683
      7          6           0       -4.960442    0.367880   -1.424756
      8          6           0       -4.612186    0.929066   -0.135542
      9          6           0       -3.278258    1.184438    0.192543
     10          6           0       -2.168929    0.893154   -0.692875
     11          8           0       -6.165732    0.161679   -1.755465
     12          8           0       -0.970438    1.137488   -0.398705
     13          1           0       -5.180996   -0.723513   -3.857486
     14          1           0       -3.360537   -1.315782   -5.437714
     15          1           0       -0.989110   -0.885468   -4.808705
     16          1           0       -0.466942    0.134869   -2.604905
     17          6           0       -5.756489    1.227581    0.797029
     18         16           0       -2.888188    2.038470    1.722141
     19          6           0       -1.990014    0.840350    2.705577
     20          6           0       -1.189958    1.309532    3.727573
     21          6           0       -0.514333    0.414212    4.596574
     22          6           0       -0.656685   -0.995646    4.394978
     23          6           0       -1.480303   -1.445090    3.328014
     24          6           0       -2.133916   -0.558234    2.508493
     25          6           0        0.311110    0.872126    5.660073
     26          6           0        0.959111   -0.020258    6.482525
     27          6           0        0.816015   -1.415061    6.282896
     28          6           0        0.025602   -1.889577    5.260990
     29          1           0       -6.119313    2.254715    0.665997
     30          1           0       -5.460394    1.122162    1.840594
     31          1           0       -6.593632    0.564596    0.578194
     32          1           0       -1.063836    2.376934    3.878599
     33          1           0       -1.594896   -2.512373    3.167895
     34          1           0       -2.761909   -0.920266    1.703708
     35          1           0        0.422188    1.940458    5.814055
     36          1           0        1.584769    0.343040    7.290224
     37          1           0        1.332406   -2.106730    6.938819
     38          1           0       -0.086168   -2.957467    5.103709
 ---------------------------------------------------------------------

 SCF Done:  E(UB3LYP) =  -1357.73752126     A.U. after    1 cycles

 Alpha  occ. eigenvalues --  -88.84932 -19.07804 -19.07798 -10.22938 -10.22281
 Alpha  occ. eigenvalues --  -10.21177 -10.19319 -10.19156 -10.18848 -10.18255
 Alpha  occ. eigenvalues --  -10.18229 -10.18100 -10.18040 -10.17995 -10.17928
 Alpha  occ. eigenvalues --  -10.17920 -10.17822 -10.17643 -10.17587 -10.17510
 Alpha  occ. eigenvalues --  -10.17444 -10.17233 -10.17176 -10.15491  -7.93534
 Alpha  occ. eigenvalues --   -5.89929  -5.89528  -5.88944  -1.00425  -0.99960
 Alpha  occ. eigenvalues --   -0.88482  -0.86112  -0.84177  -0.82160  -0.78512
 Alpha  occ. eigenvalues --   -0.77112  -0.75561  -0.75172  -0.73487  -0.71978
 Alpha  occ. eigenvalues --   -0.68309  -0.65927  -0.63013  -0.62014  -0.60364
 Alpha  occ. eigenvalues --   -0.60038  -0.58767  -0.55684  -0.52180  -0.51713
 Alpha  occ. eigenvalues --   -0.51234  -0.49670  -0.48387  -0.46722  -0.45410
 Alpha  occ. eigenvalues --   -0.45268  -0.44381  -0.43443  -0.42694  -0.42460
 Alpha  occ. eigenvalues --   -0.42161  -0.41859  -0.41492  -0.40387  -0.40074
 Alpha  occ. eigenvalues --   -0.39774  -0.38584  -0.38407  -0.37566  -0.37246
 Alpha  occ. eigenvalues --   -0.36218  -0.35109  -0.34674  -0.34520  -0.34106
 Alpha  occ. eigenvalues --   -0.33859  -0.32614  -0.29939  -0.27843  -0.27126
 Alpha  occ. eigenvalues --   -0.25795  -0.25210  -0.24830  -0.23990  -0.23510
 Alpha  occ. eigenvalues --   -0.21004  -0.15648
 Alpha virt. eigenvalues --   -0.05244  -0.03784  -0.02626  -0.02231  -0.00521
 Alpha virt. eigenvalues --    0.00057   0.00243   0.00702   0.01034   0.01523
 Alpha virt. eigenvalues --    0.02032   0.02631   0.02780   0.03360   0.03793

  Beta  occ. eigenvalues --  -88.84932 -19.07257 -19.07131 -10.22808 -10.22116
  Beta  occ. eigenvalues --  -10.21164 -10.19191 -10.19156 -10.18847 -10.18230
  Beta  occ. eigenvalues --  -10.18099 -10.18040 -10.18025 -10.17995 -10.17927
  Beta  occ. eigenvalues --  -10.17918 -10.17822 -10.17599 -10.17552 -10.17492
  Beta  occ. eigenvalues --  -10.17411 -10.17236 -10.17161 -10.15506  -7.93534
  Beta  occ. eigenvalues --   -5.89933  -5.89532  -5.88937  -0.99464  -0.98789
  Beta  occ. eigenvalues --   -0.88474  -0.85905  -0.84099  -0.81804  -0.78462
  Beta  occ. eigenvalues --   -0.77005  -0.75388  -0.75018  -0.73440  -0.71750
  Beta  occ. eigenvalues --   -0.68151  -0.65275  -0.63006  -0.61920  -0.60360
  Beta  occ. eigenvalues --   -0.59914  -0.58507  -0.55426  -0.52163  -0.51573
  Beta  occ. eigenvalues --   -0.51128  -0.49524  -0.48254  -0.46490  -0.45383
  Beta  occ. eigenvalues --   -0.45224  -0.44283  -0.42936  -0.42653  -0.42408
  Beta  occ. eigenvalues --   -0.41685  -0.41616  -0.40955  -0.40316  -0.39870
  Beta  occ. eigenvalues --   -0.39184  -0.38398  -0.38344  -0.37122  -0.36315
  Beta  occ. eigenvalues --   -0.35357  -0.34640  -0.34492  -0.34074  -0.33944
  Beta  occ. eigenvalues --   -0.33680  -0.32309  -0.29919  -0.27538  -0.25221
  Beta  occ. eigenvalues --   -0.24902  -0.24633  -0.24258  -0.23711  -0.23127
  Beta  occ. eigenvalues --   -0.20855
  Beta virt. eigenvalues --   -0.09061  -0.05221  -0.03039  -0.02517  -0.01253
  Beta virt. eigenvalues --   -0.00506   0.00075   0.00253   0.00713   0.01040
  Beta virt. eigenvalues --    0.01541   0.02085   0.02658   0.02793   0.03473

 Mulliken charges and spin densities:
               1          2
     1  C   -0.006463   0.032495
     2  C   -0.486612   0.011214
     3  C   -0.544927   0.027053
     4  C    0.117872  -0.001597
     5  C    0.180999   0.007164
     6  C    0.020408   0.020844
     7  C   -0.477980   0.108261
     8  C    0.455819   0.152669
     9  C    1.176498   0.076643
    10  C   -0.738669   0.095374
    11  O   -0.468673   0.247585
    12  O   -0.384132   0.203487
    13  H    0.182920  -0.003060
    14  H    0.180564  -0.001156
    15  H    0.184248  -0.002200
    16  H    0.180580  -0.001697
    17  C   -0.426851  -0.006812
    18  S   -0.653585   0.007217
    19  C    0.444452   0.025767
    20  C   -0.180968   0.009034
    21  C   -0.257200   0.006511
    22  C    0.278930  -0.000460
    23  C   -0.083847  -0.008421
    24  C   -0.374053  -0.023561
    25  C   -0.216956   0.000210
    26  C   -0.326231  -0.000242
    27  C   -0.261630   0.000577
    28  C   -0.296710  -0.000482
    29  H    0.194832   0.012018
    30  H    0.136086   0.003269
    31  H    0.168730   0.000523
    32  H    0.182509   0.000946
    33  H    0.203133   0.000155
    34  H    0.213790   0.000772
    35  H    0.157959  -0.000075
    36  H    0.188035   0.000038
    37  H    0.192331  -0.000042
    38  H    0.144792  -0.000019
 Sum of Mulliken charges =  -1.00000   1.00000

 Dipole moment (field-independent basis, Debye):
    X=             16.4091    Y=             -4.7323    Z=              3.1503  Tot=             17.3659
 Quadrupole moment (field-independent basis, Debye-Ang):
   XX=           -237.6389   YY=           -150.6216   ZZ=           -154.1813
   XY=              8.3907   XZ=            -16.4790   YZ=              0.5830

  Exact polarizability: 474.130 -11.730 338.646 120.931  44.801 550.099
 Approx polarizability: 544.553  -3.182 401.608 122.753  48.738 552.548

                      1                      2                      3
                      A                      A                      A
 Frequencies --      9.0898                26.2679                30.5885
 Red. masses --      6.3745                 6.2163                 4.7057
 Frc consts  --      0.0003                 0.0025                 0.0026
 IR Inten    --      0.6440                 0.6710                 0.9025

                      4                      5                      6
                      A                      A                      A
 Frequencies --     66.9558                72.5735                90.9251
 Red. masses --      1.0698                 8.2084                 5.1292
 Frc consts  --      0.0028                 0.0255                 0.0250
 IR Inten    --      0.0408                16.6289                 4.0733

                      7                      8                      9
                      A                      A                      A
 Frequencies --     98.9292               137.6227               164.0228
 Red. masses --      3.9535                 5.0863                 5.8428
 Frc consts  --      0.0228                 0.0568                 0.0926
 IR Inten    --      0.2355                 0.1824                 1.6764

                     10                     11                     12
                      A                      A                      A
 Frequencies --    181.3701               184.1149               216.8610
 Red. masses --      5.1888                 4.4888                 7.5038
 Frc consts  --      0.1006                 0.0897                 0.2079
 IR Inten    --      3.1741                 1.3648                 3.8542

                     13                     14                     15
                      A                      A                      A
 Frequencies --    263.3756               273.7560               287.3030
 Red. masses --      5.2398                 5.3623                 6.3639
 Frc consts  --      0.2142                 0.2368                 0.3095
 IR Inten    --      0.1286                 0.7062                11.6985

                     16                     17                     18
                      A                      A                      A
 Frequencies --    340.0809               357.3588               379.5521
 Red. masses --      4.2587                 4.9689                11.1224
 Frc consts  --      0.2902                 0.3739                 0.9440
 IR Inten    --      1.5010                 2.7929                 1.9688

                     19                     20                     21
                      A                      A                      A
 Frequencies --    386.3105               403.7331               409.1933
 Red. masses --      8.2296                 3.2207                 5.5918
 Frc consts  --      0.7236                 0.3093                 0.5516
 IR Inten    --     33.4016                 0.9280                 1.6424

                     22                     23                     24
                      A                      A                      A
 Frequencies --    423.5114               439.7657               463.9299
 Red. masses --      6.4638                 3.6797                 4.6115
 Frc consts  --      0.6831                 0.4193                 0.5848
 IR Inten    --      2.1094                 1.9835                 2.3138

                     25                     26                     27
                      A                      A                      A
 Frequencies --    480.2729               503.4873               519.3608
 Red. masses --      2.5886                10.3247                 3.8077
 Frc consts  --      0.3518                 1.5421                 0.6051
 IR Inten    --     38.9298                 0.1833                 1.7730

                     28                     29                     30
                      A                      A                      A
 Frequencies --    523.7764               541.7178               576.3911
 Red. masses --      6.7840                 4.9699                 6.6423
 Frc consts  --      1.0966                 0.8593                 1.3002
 IR Inten    --      1.2578                 5.0627                32.4848

                     31                     32                     33
                      A                      A                      A
 Frequencies --    604.7297               640.3623               648.9078
 Red. masses --      7.3898                 3.5127                 6.8051
 Frc consts  --      1.5922                 0.8487                 1.6883
 IR Inten    --     12.4517                 8.9083                 1.2853

                     34                     35                     36
                      A                      A                      A
 Frequencies --    660.7844               687.0653               690.6619
 Red. masses --      6.2892                 4.6256                 5.4180
 Frc consts  --      1.6179                 1.2865                 1.5227
 IR Inten    --     13.2380                 6.0586                 6.8604

                     37                     38                     39
                      A                      A                      A
 Frequencies --    706.5272               755.4661               772.5875
 Red. masses --      3.0605                 1.2668                 3.1810
 Frc consts  --      0.9001                 0.4260                 1.1187
 IR Inten    --     96.7151                57.3701                 3.0298

                     40                     41                     42
                      A                      A                      A
 Frequencies --    776.1960               788.7023               796.1602
 Red. masses --      4.7803                 1.8434                 3.9771
 Frc consts  --      1.6969                 0.6756                 1.4853
 IR Inten    --      1.2633                43.0228                 2.3424

                     43                     44                     45
                      A                      A                      A
 Frequencies --    809.4213               829.3894               847.8303
 Red. masses --      5.7684                 1.3827                 5.0184
 Frc consts  --      2.2267                 0.5604                 2.1254
 IR Inten    --     44.6121                67.2771                 2.0305

                     46                     47                     48
                      A                      A                      A
 Frequencies --    854.5300               865.9682               892.9597
 Red. masses --      5.8662                 1.4042                 1.4571
 Frc consts  --      2.5238                 0.6204                 0.6846
 IR Inten    --     29.9734                34.1530                 0.1355

                     49                     50                     51
                      A                      A                      A
 Frequencies --    894.1717               952.5498               972.3526
 Red. masses --      1.5951                 4.9746                 1.3322
 Frc consts  --      0.7514                 2.6594                 0.7421
 IR Inten    --     10.9639                36.1181                 3.1004

                     52                     53                     54
                      A                      A                      A
 Frequencies --    974.2948               988.0951               989.0757
 Red. masses --      6.1143                 1.3394                 1.3695
 Frc consts  --      3.4196                 0.7704                 0.7893
 IR Inten    --     25.6891                 2.1515                 2.5646

                     55                     56                     57
                      A                      A                      A
 Frequencies --    998.6300              1004.5510              1029.5925
 Red. masses --      1.2894                 1.2914                 1.9163
 Frc consts  --      0.7576                 0.7678                 1.1968
 IR Inten    --      0.0048                 0.0304                67.1683

                     58                     59                     60
                      A                      A                      A
 Frequencies --   1036.2193              1039.9749              1041.6379
 Red. masses --      2.3774                 1.9417                 1.5950
 Frc consts  --      1.5040                 1.2373                 1.0196
 IR Inten    --     11.7054                 9.2477                25.4248

                     61                     62                     63
                      A                      A                      A
 Frequencies --   1081.2477              1110.7381              1132.9934
 Red. masses --      2.5757                 2.0967                 2.8690
 Frc consts  --      1.7742                 1.5241                 2.1699
 IR Inten    --     36.2393                31.6935                 6.8462

                     64                     65                     66
                      A                      A                      A
 Frequencies --   1151.6153              1158.6846              1168.7386
 Red. masses --      1.5962                 1.4834                 1.2361
 Frc consts  --      1.2473                 1.1733                 0.9948
 IR Inten    --     24.3805                 5.9109                 1.7942

                     67                     68                     69
                      A                      A                      A
 Frequencies --   1174.5743              1202.3635              1218.9377
 Red. masses --      1.1866                 2.1470                 2.1245
 Frc consts  --      0.9645                 1.8287                 1.8598
 IR Inten    --      0.8396                 1.0178                12.1982

                     70                     71                     72
                      A                      A                      A
 Frequencies --   1230.5584              1261.4681              1267.1319
 Red. masses --      3.4921                 2.2147                 1.5531
 Frc consts  --      3.1156                 2.0764                 1.4693
 IR Inten    --     17.7339               127.3883                 1.8259

                     73                     74                     75
                      A                      A                      A
 Frequencies --   1285.7549              1354.0694              1363.9677
 Red. masses --      1.8738                 8.5012                 2.4683
 Frc consts  --      1.8251                 9.1836                 2.7055
 IR Inten    --      6.8963                 4.7254                11.5867

                     76                     77                     78
                      A                      A                      A
 Frequencies --   1369.4877              1388.7772              1393.2572
 Red. masses --      2.9321                 2.7471                 1.4077
 Frc consts  --      3.2400                 3.1217                 1.6099
 IR Inten    --     40.6814                 1.4843               135.8885

                     79                     80                     81
                      A                      A                      A
 Frequencies --   1395.5371              1439.9211              1453.8798
 Red. masses --      6.7567                 3.1774                 1.3595
 Frc consts  --      7.7530                 3.8815                 1.6931
 IR Inten    --      8.6982               236.8098               303.0342

                     82                     83                     84
                      A                      A                      A
 Frequencies --   1459.5900              1469.9324              1480.2891
 Red. masses --      2.3417                 2.2901                 2.0363
 Frc consts  --      2.9393                 2.9154                 2.6290
 IR Inten    --      8.4754               159.9864                11.2091

                     85                     86                     87
                      A                      A                      A
 Frequencies --   1483.1451              1489.7937              1510.5993
 Red. masses --      1.9557                 1.7752                 3.8904
 Frc consts  --      2.5346                 2.3214                 5.2305
 IR Inten    --     44.5406               128.4634               738.0696

                     88                     89                     90
                      A                      A                      A
 Frequencies --   1532.1257              1540.4898              1598.0796
 Red. masses --      3.1507                 5.8042                 6.6875
 Frc consts  --      4.3575                 8.1154                10.0626
 IR Inten    --     56.4181                34.9993                 3.8810

                     91                     92                     93
                      A                      A                      A
 Frequencies --   1605.4101              1620.9309              1630.4314
 Red. masses --      7.6423                 5.3355                 5.9946
 Frc consts  --     11.6051                 8.2595                 9.3889
 IR Inten    --     37.1406                92.4623                 6.1407

                     94                     95                     96
                      A                      A                      A
 Frequencies --   1654.3008              3009.2488              3082.2087
 Red. masses --      6.0017                 1.0538                 1.0785
 Frc consts  --      9.6773                 5.6224                 6.0364
 IR Inten    --     76.6997                62.8070                32.5462

                     97                     98                     99
                      A                      A                      A
 Frequencies --   3127.1152              3158.6176              3160.3653
 Red. masses --      1.1027                 1.0863                 1.0862
 Frc consts  --      6.3534                 6.3856                 6.3922
 IR Inten    --     15.9851                 1.1000                 9.0969

                    100                    101                    102
                      A                      A                      A
 Frequencies --   3160.5016              3161.9956              3163.9380
 Red. masses --      1.0899                 1.0887                 1.0882
 Frc consts  --      6.4142                 6.4136                 6.4181
 IR Inten    --     26.1270                 5.6330                 1.4458

                    103                    104                    105
                      A                      A                      A
 Frequencies --   3174.5100              3174.9535              3187.1161
 Red. masses --      1.0908                 1.0936                 1.0973
 Frc consts  --      6.4768                 6.4949                 6.5669
 IR Inten    --     24.8153                47.7878                43.9008

                    106                    107                    108
                      A                      A                      A
 Frequencies --   3189.1178              3191.1602              3194.4690
 Red. masses --      1.0931                 1.0918                 1.0942
 Frc consts  --      6.5502                 6.5510                 6.5787
 IR Inten    --      9.2873                14.6744                35.9929

 - Thermochemistry -
 -------------------
 Temperature   298.150 Kelvin.  Pressure   1.00000 Atm.
 Atom     1 has atomic number  6 and mass  12.00000

 Molecular mass:   330.07145 amu.
 Principal axes and moments of inertia in atomic units:
                           1         2         3
     Eigenvalues --  3595.20905********************
           X            0.42358   0.79546   0.43339
           Y           -0.04061  -0.46127   0.88633
           Z            0.90495  -0.39303  -0.16308
 This molecule is an asymmetric top.
 Rotational symmetry number  1.
 Warning -- assumption of classical behavior for rotation
           may cause significant error
 Rotational temperatures (Kelvin)      0.02409     0.00535     0.00492
 Rotational constants (GHZ):           0.50199     0.11155     0.10258
 Zero-point vibrational energy     748956.4 (Joules/Mol)
                                  179.00488 (Kcal/Mol)
 Warning -- explicit consideration of  31 degrees of freedom as
           vibrations may cause significant error
 Vibrational temperatures:     13.08    37.79    44.01    96.33   104.42
          (Kelvin)            130.82   142.34   198.01   235.99   260.95
                              264.90   312.01   378.94   393.87   413.37
                              489.30   514.16   546.09   555.81   580.88
                              588.74   609.34   632.72   667.49   691.01
                              724.41   747.24   753.60   779.41   829.30
                              870.07   921.34   933.63   950.72   988.53
                              993.71  1016.54  1086.95  1111.58  1116.77
                             1134.77  1145.50  1164.58  1193.31  1219.84
                             1229.48  1245.94  1284.77  1286.51  1370.51
                             1399.00  1401.79  1421.65  1423.06  1436.81
                             1445.32  1481.35  1490.89  1496.29  1498.68
                             1555.67  1598.10  1630.12  1656.92  1667.09
                             1681.55  1689.95  1729.93  1753.78  1770.50
                             1814.97  1823.12  1849.91  1948.20  1962.45
                             1970.39  1998.14  2004.59  2007.87  2071.73
                             2091.81  2100.02  2114.90  2129.81  2133.92
                             2143.48  2173.42  2204.39  2216.42  2299.28
                             2309.83  2332.16  2345.83  2380.17  4329.64
                             4434.61  4499.22  4544.55  4547.06  4547.26
                             4549.41  4552.20  4567.41  4568.05  4585.55
                             4588.43  4591.37  4596.13

 Zero-point correction=                           0.285262 (Hartree/Particle)
 Thermal correction to Energy=                    0.304789
 Thermal correction to Enthalpy=                  0.305733
 Thermal correction to Gibbs Free Energy=         0.233924
 Sum of electronic and zero-point Energies=          -1357.452259
 Sum of electronic and thermal Energies=             -1357.432733
 Sum of electronic and thermal Enthalpies=           -1357.431788
 Sum of electronic and thermal Free Energies=        -1357.503597

                     E (Thermal)             CV                S
                      KCal/Mol        Cal/Mol-Kelvin    Cal/Mol-Kelvin
 Total                  191.258             77.032            151.134
 Electronic               0.000              0.000              1.377
 Translational            0.889              2.981             43.278
 Rotational               0.889              2.981             35.280
 Vibrational            189.480             71.070             71.199
 Vibration     1          0.593              1.987              8.201
 Vibration     2          0.593              1.985              6.093
 Vibration     3          0.594              1.984              5.791
 Vibration     4          0.598              1.970              4.241
 Vibration     5          0.599              1.967              4.082
 Vibration     6          0.602              1.956              3.640
 Vibration     7          0.604              1.950              3.475
 Vibration     8          0.614              1.916              2.837
 Vibration     9          0.623              1.887              2.503
 Vibration    10          0.630              1.865              2.314
 Vibration    11          0.631              1.861              2.286
 Vibration    12          0.646              1.815              1.985
 Vibration    13          0.670              1.740              1.639
 Vibration    14          0.676              1.722              1.572
 Vibration    15          0.684              1.697              1.490
 Vibration    16          0.720              1.595              1.212
 Vibration    17          0.733              1.560              1.134
 Vibration    18          0.750              1.514              1.041
 Vibration    19          0.755              1.499              1.014
 Vibration    20          0.769              1.462              0.949
 Vibration    21          0.774              1.450              0.929
 Vibration    22          0.786              1.419              0.880
 Vibration    23          0.800              1.383              0.827
 Vibration    24          0.821              1.330              0.755
 Vibration    25          0.837              1.294              0.709
 Vibration    26          0.859              1.242              0.649
 Vibration    27          0.874              1.207              0.611
 Vibration    28          0.879              1.197              0.601
 Vibration    29          0.897              1.158              0.562
 Vibration    30          0.933              1.082              0.492
 Vibration    31          0.963              1.022              0.442

 Optimization completed.
    -- Stationary point found.
 Normal termination of Gaussian 16 at Sun Feb 11 21:54:26 2024.
