 Q-Chem 5.4, Q-Chem, Inc., Pleasanton, CA (2021)
 Q-Chem 5.4.0 for Intel X86 EM64T Linux

User input:
--------------------------------------------------------------
$molecule
0 1
C                 -1.8409430000      1.9087610000     -5.1580670000
C                 -1.7587510000      0.5834440000     -5.5610990000
C                 -1.3482190000     -0.4008790000     -4.6545220000
C                 -1.5141790000      2.2666880000     -3.8437470000
C                 -1.1033480000      1.2811110000     -2.9353400000
C                 -1.0227980000     -0.0544990000     -3.3506810000
C                 -1.6050830000      3.6899720000     -3.4339000000
C                 -0.7532250000      1.6280250000     -1.5348260000
C                 -1.2566440000      4.0408800000     -2.0530100000
C                 -0.8442370000      3.0265670000     -1.1169430000
C                 -1.3416620000      5.3926250000     -1.6442490000
C                 -1.0223220000      5.7063290000     -0.2962680000
C                 -0.6343970000      4.7503000000      0.5974120000
C                 -0.5257690000      3.3792340000      0.2245390000
O                 -1.9720130000      4.5348250000     -4.2653250000
O                 -0.3971720000      0.7183280000     -0.7647090000
N                 -1.6941170000      6.4085570000     -2.4812280000
N                 -0.1294020000      2.4600210000      1.1436340000
C                  0.2057330000      2.7547330000      2.5197590000
H                 -2.1547800000      2.6884600000     -5.8404190000
H                 -2.0125230000      0.3105460000     -6.5793460000
H                 -1.2842570000     -1.4360110000     -4.9710510000
H                 -0.7031920000     -0.7981160000     -2.6318270000
H                 -1.0876170000      6.7417660000      0.0236410000
H                 -0.4020810000      5.0441120000      1.6124510000
H                 -1.9910580000      6.1649010000     -3.4190860000
H                 -1.8565720000      7.3269190000     -2.1054940000
H                 -0.0803420000      1.5070500000      0.7921950000
H                 -0.6406340000      3.1818620000      3.0712680000
H                  1.0536800000      3.4454440000      2.6018980000
H                  0.4860740000      1.8216140000      3.0078210000
$end
$rem
MAX_SCF_CYCLES=200
BASIS  =  6-311++G(d,p)
GUI  =  2
JOB_TYPE  =  SP
METHOD  =  B3LYP
SOLVENT_METHOD = COSMO
$end
$solvent
dielectric 37.219
opticaldielectric 1.43
$end

--------------------------------------------------------------

             Standard Nuclear Orientation (Angstroms)
    I     Atom           X                Y                Z
 ----------------------------------------------------------------
    1      C       3.3561876470    -0.7508064101     0.0114167708
    2      C       4.3267512676     0.2409905069     0.0106408559
    3      C       3.9512394400     1.5894058923     0.0018679379
    4      C       1.9981788392    -0.4071819544     0.0038126456
    5      C       1.6216470501     0.9431886799    -0.0045762185
    6      C       2.6080281871     1.9381266699    -0.0056576339
    7      C       0.9760694337    -1.4829420229     0.0009695127
    8      C       0.1908581166     1.3396630525    -0.0096754903
    9      C      -0.4394903660    -1.0988762004    -0.0083712965
   10      C      -0.8262208733     0.2887724579    -0.0067775685
   11      C      -1.4272206412    -2.1117510060    -0.0070705158
   12      C      -2.7915780350    -1.7170960560     0.0076734358
   13      C      -3.1657485713    -0.4044234755     0.0129935065
   14      C      -2.2036107407     0.6466791528     0.0015763021
   15      O       1.3466827387    -2.6671201261     0.0080225358
   16      O      -0.0939685201     2.5505551056    -0.0137727134
   17      N      -1.1367262524    -3.4427088877    -0.0393246509
   18      N      -2.6188054462     1.9406680309     0.0005289364
   19      C      -4.0009155075     2.3679426402     0.0104704457
   20      H       3.6209530644    -1.8005180297     0.0171817024
   21      H       5.3768322846    -0.0291872139     0.0165022786
   22      H       4.7108310621     2.3632274757     0.0010150990
   23      H       2.2935243884     2.9739405848    -0.0121542241
   24      H      -3.5539918967    -2.4900456970     0.0106637953
   25      H      -4.2194574865    -0.1591039140     0.0237741050
   26      H      -0.1623882249    -3.7140395551     0.0252114571
   27      H      -1.8740160539    -4.1144400253     0.0877086368
   28      H      -1.8662268509     2.6245085029    -0.0070636850
   29      H      -4.5350572810     2.0263316579     0.9054190258
   30      H      -4.5499796499     2.0184714287    -0.8722758687
   31      H      -4.0190666908     3.4575093837     0.0058329607
 ----------------------------------------------------------------

    9    -839.0345814058      4.93e-06  Convergence criterion met
 Total energy in the final basis set =     -839.0345814058
    5    -839.0529624144      6.01e-06  Convergence criterion met
 Total energy in the final basis set =     -839.0529624144

                    Orbital Energies (a.u.)
 --------------------------------------------------------------

 Alpha MOs
 -- Occupied --
-19.1135 -19.1124 -14.3369 -14.3295 -10.2663 -10.2646 -10.2399 -10.2387
-10.2008 -10.1967 -10.1961 -10.1959 -10.1946 -10.1941 -10.1937 -10.1889
-10.1883 -10.1871 -10.1868  -1.0481  -1.0455  -0.9530  -0.9369  -0.8804
 -0.8515  -0.8040  -0.7689  -0.7650  -0.7535  -0.6968  -0.6817  -0.6559
 -0.6423  -0.6062  -0.5882  -0.5675  -0.5477  -0.5354  -0.5207  -0.5013
 -0.4850  -0.4824  -0.4742  -0.4568  -0.4550  -0.4455  -0.4411  -0.4398
 -0.4365  -0.4244  -0.4093  -0.4063  -0.3989  -0.3969  -0.3819  -0.3694
 -0.3652  -0.3583  -0.3482  -0.2866  -0.2775  -0.2755  -0.2703  -0.2660
 -0.2641  -0.1966

          Ground-State Mulliken Net Atomic Charges

     Atom                 Charge (a.u.)
  ----------------------------------------
      1 C                     0.138625
      2 C                    -0.598363
      3 C                    -0.562136
      4 C                     0.077784
      5 C                     0.156316
      6 C                     0.058663
      7 C                    -0.302980
      8 C                    -0.125213
      9 C                     0.632231
     10 C                     0.238044
     11 C                     0.131442
     12 C                    -0.397151
     13 C                    -0.195344
     14 C                    -0.284764
     15 O                    -0.370689
     16 O                    -0.381637
     17 N                    -0.459409
     18 N                    -0.282832
     19 C                    -0.387194
     20 H                     0.200804
     21 H                     0.215861
     22 H                     0.218080
     23 H                     0.194914
     24 H                     0.228050
     25 H                     0.231454
     26 H                     0.347137
     27 H                     0.318961
     28 H                     0.419732
     29 H                     0.177029
     30 H                     0.176769
     31 H                     0.185817
  ----------------------------------------
  Sum of atomic charges =     0.000000

                    Cartesian Multipole Moments
 -----------------------------------------------------------------
    Charge (ESU x 10^10)
                 0.0000
    Dipole Moment (Debye)
         X      -5.3123      Y      -0.9074      Z       0.3863
       Tot       5.4030
    Quadrupole Moments (Debye-Ang)
        XX     -73.1380     XY       8.8204     YY    -104.4914
        XZ      -0.5770     YZ      -1.3901     ZZ    -115.6319

 Total job time:  75.17s(wall), 568.93s(cpu)
        *  Thank you very much for using Q-Chem.  Have a nice day.  *
