 Gaussian 16, Revision A.03,
 Gaussian 16:  ES64L-G16RevA.03 25-Dec-2016

 ----------------------------------------------------------------
 #P UB3LYP/6-311++G(d,p) SCRF=(PCM,Solvent=n,n-DiMethylFormamide)
 ----------------------------------------------------------------

 ------------------
 Quinone PCM in DMF
 ------------------
 Symbolic Z-matrix:
 Charge =  0 Multiplicity = 1

                         Standard orientation:
 ---------------------------------------------------------------------
 Center     Atomic      Atomic             Coordinates (Angstroms)
 Number     Number       Type             X           Y           Z
 ---------------------------------------------------------------------
      1          6           0       -5.898426    0.379771    0.018478
      2          6           0       -6.678841   -0.765387   -0.104228
      3          6           0       -6.068668   -2.014694   -0.232582
      4          6           0       -4.505582    0.271216    0.012708
      5          6           0       -3.888743   -0.982703   -0.116032
      6          6           0       -4.679423   -2.124290   -0.238662
      7          6           0       -3.661949    1.470720    0.141196
      8          6           0       -2.179350    1.301756    0.133399
      9          6           0       -1.552790    0.103040    0.010815
     10          6           0       -2.390976   -1.113825   -0.123175
     11          8           0       -4.103101    2.609395    0.255977
     12          8           0       -1.885433   -2.221440   -0.239281
     13          8           0       -1.513837    2.462602    0.257100
     14          6           0       -0.051615   -0.063695    0.008130
     15          6           0        0.626868    0.627704   -1.211352
     16          6           0        0.621378    0.402045    1.316253
     17          6           0        2.097958   -0.048179    1.354233
     18          6           0        2.794088   -0.043396   -0.036840
     19          6           0        2.099489    0.997056   -0.932988
     20          6           0        4.326268    0.151895    0.085011
     21          6           0        5.049827    0.118095   -1.277377
     22          6           0        4.964322   -0.893257    1.025376
     23          6           0        6.484292   -0.723780    1.162463
     24          6           0        7.184330   -0.750049   -0.200849
     25          6           0        6.571038    0.288421   -1.146809
     26          1           0       -6.347679    1.360150    0.119181
     27          1           0       -7.759825   -0.686831   -0.100149
     28          1           0       -6.678388   -2.906020   -0.328093
     29          1           0       -4.190647   -3.085417   -0.337401
     30          1           0       -2.198206    3.156763    0.324580
     31          1           0        0.121260   -1.138633   -0.075111
     32          1           0        0.080448    1.531796   -1.488353
     33          1           0        0.571300   -0.051696   -2.068152
     34          1           0        0.090267   -0.007734    2.180636
     35          1           0        0.549645    1.489409    1.393982
     36          1           0        2.157723   -1.050767    1.787252
     37          1           0        2.645412    0.614728    2.034565
     38          1           0        2.637056   -1.028732   -0.499962
     39          1           0        2.614426    1.107256   -1.889192
     40          1           0        2.151607    1.976814   -0.442168
     41          1           0        4.495051    1.146395    0.528377
     42          1           0        4.662019    0.896889   -1.938720
     43          1           0        4.834420   -0.842141   -1.767102
     44          1           0        4.747788   -1.896413    0.631191
     45          1           0        4.506127   -0.845779    2.016512
     46          1           0        6.888072   -1.506246    1.813901
     47          1           0        6.696953    0.232507    1.658551
     48          1           0        7.079031   -1.749686   -0.642792
     49          1           0        8.258642   -0.572557   -0.083301
     50          1           0        7.037165    0.225673   -2.135962
     51          1           0        6.788332    1.295030   -0.765652
 ---------------------------------------------------------------------

 SCF Done:  E(UB3LYP) =  -1079.99266765     A.U. after   15 cycles

 The electronic state is 1-A.
 Alpha  occ. eigenvalues --  -19.17853 -19.15088 -19.13065 -10.29437 -10.28259
 Alpha  occ. eigenvalues --  -10.26825 -10.21237 -10.21139 -10.20454 -10.20330
 Alpha  occ. eigenvalues --  -10.20162 -10.19998 -10.19940 -10.18010 -10.16651
 Alpha  occ. eigenvalues --  -10.16558 -10.16446 -10.16320 -10.15991 -10.15886
 Alpha  occ. eigenvalues --  -10.15877 -10.15852 -10.15798 -10.15686 -10.15659
 Alpha  occ. eigenvalues --   -1.10990  -1.06776  -1.06459  -0.89461  -0.85251
 Alpha  occ. eigenvalues --   -0.83603  -0.81717  -0.78590  -0.78175  -0.75616
 Alpha  occ. eigenvalues --   -0.74101  -0.73289  -0.71721  -0.69258  -0.65792
 Alpha  occ. eigenvalues --   -0.64767  -0.62122  -0.61475  -0.60660  -0.59587
 Alpha  occ. eigenvalues --   -0.58546  -0.57299  -0.54965  -0.54420  -0.53636
 Alpha  occ. eigenvalues --   -0.51283  -0.49809  -0.48613  -0.48305  -0.47243
 Alpha  occ. eigenvalues --   -0.47009  -0.46877  -0.45758  -0.45512  -0.44474
 Alpha  occ. eigenvalues --   -0.43903  -0.43432  -0.43188  -0.42511  -0.41837
 Alpha  occ. eigenvalues --   -0.41224  -0.41174  -0.39473  -0.38946  -0.38783
 Alpha  occ. eigenvalues --   -0.37990  -0.37810  -0.37507  -0.37078  -0.36701
 Alpha  occ. eigenvalues --   -0.36308  -0.35343  -0.34563  -0.33736  -0.33114
 Alpha  occ. eigenvalues --   -0.32471  -0.31375  -0.31184  -0.30547  -0.29904
 Alpha  occ. eigenvalues --   -0.29159  -0.28850  -0.28325  -0.28210  -0.27697
 Alpha  occ. eigenvalues --   -0.25584
 Alpha virt. eigenvalues --   -0.12690  -0.05804  -0.02812  -0.01040  -0.00355
 Alpha virt. eigenvalues --   -0.00023   0.00387   0.00728   0.01110   0.01810
 Alpha virt. eigenvalues --    0.02123   0.02176   0.02337   0.02925   0.03311

  Beta  occ. eigenvalues --  -19.17853 -19.15088 -19.13065 -10.29437 -10.28259
  Beta  occ. eigenvalues --  -10.26825 -10.21237 -10.21139 -10.20454 -10.20330
  Beta  occ. eigenvalues --  -10.20162 -10.19998 -10.19940 -10.18010 -10.16651
  Beta  occ. eigenvalues --  -10.16558 -10.16446 -10.16320 -10.15991 -10.15886
  Beta  occ. eigenvalues --  -10.15877 -10.15852 -10.15798 -10.15686 -10.15659
  Beta  occ. eigenvalues --   -1.10990  -1.06776  -1.06459  -0.89461  -0.85251
  Beta  occ. eigenvalues --   -0.83603  -0.81717  -0.78590  -0.78175  -0.75616
  Beta  occ. eigenvalues --   -0.74101  -0.73289  -0.71721  -0.69258  -0.65792
  Beta  occ. eigenvalues --   -0.64767  -0.62122  -0.61475  -0.60660  -0.59587
  Beta  occ. eigenvalues --   -0.58546  -0.57299  -0.54965  -0.54420  -0.53636
  Beta  occ. eigenvalues --   -0.51283  -0.49809  -0.48613  -0.48305  -0.47243
  Beta  occ. eigenvalues --   -0.47009  -0.46877  -0.45758  -0.45512  -0.44474
  Beta  occ. eigenvalues --   -0.43903  -0.43432  -0.43188  -0.42511  -0.41837
  Beta  occ. eigenvalues --   -0.41224  -0.41174  -0.39473  -0.38946  -0.38783
  Beta  occ. eigenvalues --   -0.37990  -0.37810  -0.37507  -0.37078  -0.36701
  Beta  occ. eigenvalues --   -0.36308  -0.35343  -0.34563  -0.33736  -0.33114
  Beta  occ. eigenvalues --   -0.32471  -0.31375  -0.31184  -0.30547  -0.29904
  Beta  occ. eigenvalues --   -0.29159  -0.28850  -0.28325  -0.28210  -0.27697
  Beta  occ. eigenvalues --   -0.25584
  Beta virt. eigenvalues --   -0.12690  -0.05804  -0.02812  -0.01040  -0.00355
  Beta virt. eigenvalues --   -0.00023   0.00387   0.00728   0.01110   0.01810
  Beta virt. eigenvalues --    0.02123   0.02176   0.02337   0.02925   0.03311

 Mulliken charges and spin densities:
               1          2
     1  C    0.134042   0.000000
     2  C   -0.407521  -0.000000
     3  C   -0.477675  -0.000000
     4  C    0.494052   0.000000
     5  C    0.218901  -0.000000
     6  C    0.109499   0.000000
     7  C   -0.513695  -0.000000
     8  C   -0.419470   0.000000
     9  C    0.886366  -0.000000
    10  C   -0.602021  -0.000000
    11  O   -0.308655   0.000000
    12  O   -0.266130  -0.000000
    13  O   -0.182200   0.000000
    14  C    0.843474  -0.000000
    15  C   -0.902471   0.000000
    16  C   -1.154023   0.000000
    17  C   -0.340250  -0.000000
    18  C    0.517991   0.000000
    19  C   -0.609761  -0.000000
    20  C    0.147616  -0.000000
    21  C   -0.313890   0.000000
    22  C   -0.258273   0.000000
    23  C   -0.374228   0.000000
    24  C   -0.402518  -0.000000
    25  C   -0.480063  -0.000000
    26  H    0.193019   0.000000
    27  H    0.205978  -0.000000
    28  H    0.212325   0.000000
    29  H    0.194454  -0.000000
    30  H    0.307365   0.000000
    31  H    0.271385  -0.000000
    32  H    0.190928  -0.000000
    33  H    0.191400   0.000000
    34  H    0.198999  -0.000000
    35  H    0.187478  -0.000000
    36  H    0.151371   0.000000
    37  H    0.171337   0.000000
    38  H    0.165585   0.000000
    39  H    0.137072  -0.000000
    40  H    0.177801   0.000000
    41  H    0.161577  -0.000000
    42  H    0.136980  -0.000000
    43  H    0.165036   0.000000
    44  H    0.166532   0.000000
    45  H    0.159296   0.000000
    46  H    0.171531  -0.000000
    47  H    0.140662   0.000000
    48  H    0.123106  -0.000000
    49  H    0.173244  -0.000000
    50  H    0.171847   0.000000
    51  H    0.134595  -0.000000
 Sum of Mulliken charges =  -0.00000  -0.00000

 Dipole moment (field-independent basis, Debye):
    X=             -2.7871    Y=              0.0817    Z=              0.0278  Tot=              2.7885
 Quadrupole moment (field-independent basis, Debye-Ang):
   XX=           -121.9248   YY=           -156.9461   ZZ=           -152.7308
   XY=             10.0370   XZ=              1.0190   YZ=             -0.2571

 Normal termination of Gaussian 16 at Thu Jan 25 06:02:26 2024.
