 Gaussian 16, Revision A.03,
 Gaussian 16:  ES64L-G16RevA.03 25-Dec-2016

 ----------------------------------------------------------------
 #P UB3LYP/6-311++G(d,p) SCRF=(PCM,Solvent=n,n-DiMethylFormamide)
 ----------------------------------------------------------------

 ------------------
 Quinone PCM in DMF
 ------------------
 Symbolic Z-matrix:
 Charge =  0 Multiplicity = 1

                         Standard orientation:
 ---------------------------------------------------------------------
 Center     Atomic      Atomic             Coordinates (Angstroms)
 Number     Number       Type             X           Y           Z
 ---------------------------------------------------------------------
      1          7           0        4.656494   -0.845926   -0.053014
      2          6           0        3.400063   -0.275142   -0.005039
      3          6           0        3.247275    1.126723   -0.004181
      4          6           0        1.987967    1.696266   -0.001294
      5          6           0        0.834339    0.900196   -0.000919
      6          6           0       -0.497056    1.541962    0.002335
      7          8           0       -0.629163    2.758417    0.005882
      8          6           0       -1.692420    0.641536    0.000852
      9          6           0       -2.969317    1.209671    0.001099
     10          6           0       -4.097337    0.396981   -0.000144
     11          6           0       -3.960284   -0.993876   -0.001264
     12          6           0       -2.694829   -1.568234   -0.000981
     13          6           0       -1.554626   -0.758073   -0.000127
     14          6           0       -0.209210   -1.401798    0.000814
     15          8           0       -0.085879   -2.616234    0.004930
     16          6           0        0.983370   -0.500102   -0.002862
     17          6           0        2.248970   -1.075859   -0.005756
     18          1           0        5.444033   -0.277452    0.215443
     19          1           0        4.740035   -1.819367    0.194161
     20          1           0        4.128934    1.759544   -0.008901
     21          1           0        1.868768    2.772905    0.001005
     22          1           0       -3.051700    2.289520    0.002133
     23          1           0       -5.085140    0.843951   -0.000295
     24          1           0       -4.841170   -1.625836   -0.002354
     25          1           0       -2.564183   -2.643328   -0.001663
     26          1           0        2.323880   -2.157418   -0.010128
 ---------------------------------------------------------------------

 SCF Done:  E(UB3LYP) =  -744.348705703     A.U. after   14 cycles

 The electronic state is 1-A.
 Alpha  occ. eigenvalues --  -19.13134 -19.12272 -14.33851 -10.28285 -10.27591
 Alpha  occ. eigenvalues --  -10.24411 -10.20767 -10.20729 -10.20672 -10.19812
 Alpha  occ. eigenvalues --  -10.19745 -10.19691 -10.19649 -10.19586 -10.19537
 Alpha  occ. eigenvalues --  -10.19216 -10.19153  -1.06594  -1.05734  -0.94397
 Alpha  occ. eigenvalues --   -0.88972  -0.87072  -0.80443  -0.77793  -0.77562
 Alpha  occ. eigenvalues --   -0.75803  -0.68776  -0.66667  -0.64188  -0.62069
 Alpha  occ. eigenvalues --   -0.58716  -0.56586  -0.56123  -0.53103  -0.51153
 Alpha  occ. eigenvalues --   -0.49874  -0.48508  -0.47160  -0.45693  -0.45372
 Alpha  occ. eigenvalues --   -0.45195  -0.44767  -0.44652  -0.43385  -0.41659
 Alpha  occ. eigenvalues --   -0.41294  -0.40487  -0.38162  -0.37762  -0.37398
 Alpha  occ. eigenvalues --   -0.36439  -0.33176  -0.28611  -0.28555  -0.27925
 Alpha  occ. eigenvalues --   -0.27655  -0.27254  -0.23252
 Alpha virt. eigenvalues --   -0.11447  -0.07035  -0.03128  -0.02292  -0.00802
 Alpha virt. eigenvalues --   -0.00101   0.00894   0.01503   0.01961   0.03291
 Alpha virt. eigenvalues --    0.03581   0.03722   0.03884   0.04031   0.04919

  Beta  occ. eigenvalues --  -19.13134 -19.12272 -14.33851 -10.28285 -10.27591
  Beta  occ. eigenvalues --  -10.24411 -10.20767 -10.20729 -10.20672 -10.19812
  Beta  occ. eigenvalues --  -10.19745 -10.19691 -10.19649 -10.19586 -10.19537
  Beta  occ. eigenvalues --  -10.19216 -10.19153  -1.06594  -1.05734  -0.94397
  Beta  occ. eigenvalues --   -0.88972  -0.87072  -0.80443  -0.77793  -0.77562
  Beta  occ. eigenvalues --   -0.75803  -0.68776  -0.66667  -0.64188  -0.62069
  Beta  occ. eigenvalues --   -0.58716  -0.56586  -0.56123  -0.53103  -0.51153
  Beta  occ. eigenvalues --   -0.49874  -0.48508  -0.47160  -0.45693  -0.45372
  Beta  occ. eigenvalues --   -0.45195  -0.44767  -0.44652  -0.43385  -0.41659
  Beta  occ. eigenvalues --   -0.41294  -0.40487  -0.38162  -0.37762  -0.37398
  Beta  occ. eigenvalues --   -0.36439  -0.33176  -0.28611  -0.28555  -0.27925
  Beta  occ. eigenvalues --   -0.27655  -0.27254  -0.23252
  Beta virt. eigenvalues --   -0.11447  -0.07035  -0.03128  -0.02292  -0.00802
  Beta virt. eigenvalues --   -0.00101   0.00894   0.01503   0.01961   0.03291
  Beta virt. eigenvalues --    0.03581   0.03722   0.03884   0.04031   0.04919

 Mulliken charges and spin densities:
               1          2
     1  N   -0.331317  -0.000000
     2  C   -0.467946   0.000000
     3  C   -0.067546  -0.000000
     4  C    0.213975   0.000000
     5  C    0.150447  -0.000000
     6  C   -0.591079   0.000000
     7  O   -0.304151   0.000000
     8  C    0.110238  -0.000000
     9  C    0.191620   0.000000
    10  C   -0.423773  -0.000000
    11  C   -0.414530  -0.000000
    12  C    0.167526   0.000000
    13  C    0.285789   0.000000
    14  C   -0.729812  -0.000000
    15  O   -0.275773   0.000000
    16  C    0.553157  -0.000000
    17  C    0.005631   0.000000
    18  H    0.287049   0.000000
    19  H    0.287149  -0.000000
    20  H    0.210552  -0.000000
    21  H    0.185666  -0.000000
    22  H    0.185633   0.000000
    23  H    0.205627  -0.000000
    24  H    0.206143   0.000000
    25  H    0.184517  -0.000000
    26  H    0.175211   0.000000
 Sum of Mulliken charges =  -0.00000  -0.00000

 Dipole moment (field-independent basis, Debye):
    X=              3.1779    Y=             -1.3034    Z=              0.9077  Tot=              3.5527
 Quadrupole moment (field-independent basis, Debye-Ang):
   XX=            -50.4368   YY=           -110.0419   ZZ=           -101.7973
   XY=              0.8415   XZ=              4.9238   YZ=             -1.0007

 Normal termination of Gaussian 16 at Sun Jan 14 01:03:53 2024.
