 Q-Chem 5.4, Q-Chem, Inc., Pleasanton, CA (2021)
 Q-Chem 5.4.0 for Intel X86 EM64T Linux

User input:
--------------------------------------------------------------
$molecule
0 1
C                  1.2058380000      4.2606610000      5.3248840000
C                  1.5527180000      4.0160780000      3.9095680000
C                  1.0768540000      2.9524100000      3.2545380000
C                  0.1743450000      1.9718840000      3.9047400000
C                 -0.1289000000      2.1751600000      5.3563560000
C                  0.3510670000      3.2339290000      6.0308710000
O                  1.5798460000      5.2570650000      5.9101280000
O                 -0.3093460000      1.0578500000      3.2653960000
H                  2.1974440000      4.7545550000      3.4467280000
H                  1.3019660000      2.7529750000      2.2128330000
S                 -1.1209720000      0.8717760000      6.1959430000
C                  0.2026370000      3.5118890000      7.5120590000
O                  1.0424190000      3.1763360000      8.3015060000
O                 -0.8800770000      4.2448440000      7.7648380000
C                 -1.0950150000      4.5780250000      9.1557550000
H                 -1.9878210000      5.1981090000      9.1672710000
H                 -0.2374160000      5.1251130000      9.5470380000
H                 -1.2478230000      3.6640250000      9.7297870000
C                 -2.7057030000      0.8763770000      5.3462030000
C                 -2.9582400000     -0.0846820000      4.3707240000
C                 -3.6612970000      1.8200830000      5.7218780000
C                 -4.2062230000     -0.0941400000      3.7532500000
C                 -4.9005260000      1.8044200000      5.0872200000
C                 -5.1711800000      0.8487720000      4.1075310000
O                 -0.4470250000     -0.4020490000      5.9614090000
O                 -1.3505850000      1.3667240000      7.5561100000
H                 -2.1905730000     -0.7999960000      4.1087470000
H                 -3.4408660000      2.5373010000      6.5026320000
H                 -4.4237430000     -0.8381230000      2.9960430000
H                 -5.6566210000      2.5288750000      5.3661600000
H                 -6.1397610000      0.8369830000      3.6206140000
$end

$rem
BASIS  =  6-311++G(d,p)
GUI  =  2
JOB_TYPE  =  SP
METHOD  =  B3LYP
SCF_CONVERGENCE  = 8
SOLVENT_METHOD = sm12
$end

$smx
solvent dimethylformamide
charges CM5
$end

--------------------------------------------------------------

             Standard Nuclear Orientation (Angstroms)
    I     Atom           X                Y                Z
 ----------------------------------------------------------------
    1      C       1.2058380000     4.2606610000     5.3248840000
    2      C       1.5527180000     4.0160780000     3.9095680000
    3      C       1.0768540000     2.9524100000     3.2545380000
    4      C       0.1743450000     1.9718840000     3.9047400000
    5      C      -0.1289000000     2.1751600000     5.3563560000
    6      C       0.3510670000     3.2339290000     6.0308710000
    7      O       1.5798460000     5.2570650000     5.9101280000
    8      O      -0.3093460000     1.0578500000     3.2653960000
    9      H       2.1974440000     4.7545550000     3.4467280000
   10      H       1.3019660000     2.7529750000     2.2128330000
   11      S      -1.1209720000     0.8717760000     6.1959430000
   12      C       0.2026370000     3.5118890000     7.5120590000
   13      O       1.0424190000     3.1763360000     8.3015060000
   14      O      -0.8800770000     4.2448440000     7.7648380000
   15      C      -1.0950150000     4.5780250000     9.1557550000
   16      H      -1.9878210000     5.1981090000     9.1672710000
   17      H      -0.2374160000     5.1251130000     9.5470380000
   18      H      -1.2478230000     3.6640250000     9.7297870000
   19      C      -2.7057030000     0.8763770000     5.3462030000
   20      C      -2.9582400000    -0.0846820000     4.3707240000
   21      C      -3.6612970000     1.8200830000     5.7218780000
   22      C      -4.2062230000    -0.0941400000     3.7532500000
   23      C      -4.9005260000     1.8044200000     5.0872200000
   24      C      -5.1711800000     0.8487720000     4.1075310000
   25      O      -0.4470250000    -0.4020490000     5.9614090000
   26      O      -1.3505850000     1.3667240000     7.5561100000
   27      H      -2.1905730000    -0.7999960000     4.1087470000
   28      H      -3.4408660000     2.5373010000     6.5026320000
   29      H      -4.4237430000    -0.8381230000     2.9960430000
   30      H      -5.6566210000     2.5288750000     5.3661600000
   31      H      -6.1397610000     0.8369830000     3.6206140000
 ----------------------------------------------------------------

   16   -1389.2268025541      7.85e-09  Convergence criterion met
 Total energy in the final basis set =    -1389.2599526163

                    Orbital Energies (a.u.)
 --------------------------------------------------------------

 Alpha MOs
 -- Occupied --
-89.0727 -19.1864 -19.1595 -19.1560 -19.1361 -19.1348 -19.1343 -10.3317
-10.3077 -10.3071 -10.2595 -10.2581 -10.2256 -10.2243 -10.2239 -10.2226
-10.2052 -10.2027 -10.1969 -10.1951 -10.1942  -8.1365  -6.0989  -6.0986
 -6.0975  -1.1345  -1.1295  -1.0919  -1.0890  -1.0474  -1.0297  -0.8920
 -0.8865  -0.8281  -0.7935  -0.7732  -0.7602  -0.7273  -0.7010  -0.6629
 -0.6417  -0.6322  -0.6006  -0.5867  -0.5590  -0.5537  -0.5426  -0.5254
 -0.5047  -0.4989  -0.4975  -0.4920  -0.4832  -0.4769  -0.4690  -0.4633
 -0.4623  -0.4499  -0.4468  -0.4410  -0.4377  -0.4263  -0.4068  -0.3962
 -0.3887  -0.3746  -0.3700  -0.3612  -0.3540  -0.3414  -0.3329  -0.3252
 -0.3228  -0.3191  -0.3092  -0.3078  -0.2904  -0.2808  -0.2769

          Ground-State Mulliken Net Atomic Charges

     Atom                 Charge (a.u.)
  ----------------------------------------
      1 C                    -0.644547
      2 C                     0.955043
      3 C                     1.480776
      4 C                    -0.518364
      5 C                    -0.757521
      6 C                     0.185299
      7 O                    -0.232437
      8 O                    -0.241911
      9 H                     0.394158
     10 H                     0.410093
     11 S                    -0.486335
     12 C                    -1.326883
     13 O                    -0.198837
     14 O                     0.111741
     15 C                    -0.100008
     16 H                     0.240861
     17 H                     0.191517
     18 H                     0.188736
     19 C                    -0.138542
     20 C                    -0.710462
     21 C                    -0.144365
     22 C                    -0.087796
     23 C                     0.030546
     24 C                     0.296460
     25 O                    -0.190231
     26 O                    -0.079352
     27 H                     0.219345
     28 H                     0.223508
     29 H                     0.300445
     30 H                     0.316562
     31 H                     0.312502
  ----------------------------------------
  Sum of atomic charges =     0.000000

                    Cartesian Multipole Moments
 -----------------------------------------------------------------
    Charge (ESU x 10^10)
                 0.0000
    Dipole Moment (Debye)
         X      -4.4381      Y       3.5032      Z      -4.7272
       Tot       7.3699
    Quadrupole Moments (Debye-Ang)
        XX    -102.7602     XY     -10.6191     YY    -119.5076
        XZ     -30.5008     YZ      14.8570     ZZ    -173.6168

 Total job time:  907.67s(wall), 7115.78s(cpu)
        *  Thank you very much for using Q-Chem.  Have a nice day.  *
