 Q-Chem 5.4, Q-Chem, Inc., Pleasanton, CA (2021)
 Q-Chem 5.4.0 for Intel X86 EM64T Linux

User input:
--------------------------------------------------------------
$molecule
0 1
C                  0.2648120000      1.4370410000     -0.8552090000
C                 -1.0133780000      0.6595150000     -0.8552600000
C                 -0.9691690000     -0.6901470000     -0.8552820000
C                  0.3435880000     -1.4028390000     -0.8552560000
C                  1.6217780000     -0.6253130000     -0.8551900000
C                  1.5775700000      0.7243490000     -0.8551640000
O                  0.2452630000      2.6601170000     -0.8551610000
O                  0.3631370000     -2.6259150000     -0.8552550000
C                  2.7887440000      1.6115740000     -0.8550980000
C                  2.8971190000     -1.4272510000     -0.8551550000
C                 -2.2887190000      1.4614520000     -0.8552840000
C                 -2.1803430000     -1.5773730000     -0.8553340000
H                  3.7144140000      1.0392270000     -0.8550060000
H                  2.7793770000      2.2700090000      0.0180530000
H                  2.7795180000      2.2699460000     -1.7283000000
H                  2.6693430000     -2.4915690000     -0.8551840000
H                  3.5045500000     -1.2034240000      0.0264330000
H                  3.5046190000     -1.2033900000     -1.7366880000
H                 -2.0609430000      2.5257710000     -0.8552520000
H                 -2.8962140000      1.2375890000      0.0262510000
H                 -2.8961550000      1.2376290000     -1.7368700000
H                 -3.1060140000     -1.0050250000     -0.8553200000
H                 -2.1710560000     -2.2358160000      0.0178120000
H                 -2.1710380000     -2.2357370000     -1.7285410000
$end
$rem
MAX_SCF_CYCLES=200
BASIS  =  6-311++G(d,p)
GUI  =  2
JOB_TYPE  =  SP
METHOD  =  B3LYP
SOLVENT_METHOD = COSMO
$end
$solvent
dielectric 37.219
opticaldielectric 1.43
$end

--------------------------------------------------------------

             Standard Nuclear Orientation (Angstroms)
    I     Atom           X                Y                Z
 ----------------------------------------------------------------
    1      C       0.0119441855    -1.4204361365     0.0000142907
    2      C      -1.2935054474    -0.6896026293     0.0000055991
    3      C      -1.2980925726     0.6607754321     0.0000041022
    4      C      -0.0119444702     1.4204358083     0.0000113456
    5      C       1.2935051632     0.6896023009     0.0000050373
    6      C       1.2980932880    -0.6607757245     0.0000025341
    7      O       0.0366012842    -2.6434198217    -0.0000116899
    8      O      -0.0366015672     2.6434194927    -0.0000116737
    9      C       2.5405344308    -1.5036580827    -0.0000041099
   10      C       2.5390369786     1.5370984485     0.0000002987
   11      C      -2.5390372985    -1.5370977778    -0.0000006624
   12      C      -2.5405337511     1.5036587894    -0.0000032537
   13      H       3.4449193841    -0.8982376527    -0.0000739650
   14      H       2.5549962187    -2.1620166627    -0.8731432143
   15      H       2.5550718902    -2.1619184361     0.8732097882
   16      H       2.2729527791     2.5924912242     0.0000014710
   17      H       3.1541906317     1.3353506455    -0.8815620385
   18      H       3.1541972506     1.3353496237     0.8815589631
   19      H      -2.2729530628    -2.5924915529    -0.0000048346
   20      H      -3.1541926460    -1.3353467736    -0.8815613267
   21      H      -3.1541958037    -1.3353541529     0.8815596748
   22      H      -3.4449196638     0.8982373220    -0.0000393986
   23      H      -2.5550128178     2.1619923015    -0.8731611510
   24      H      -2.5550549351     2.1619441765     0.8731918498
 ----------------------------------------------------------------

    8    -538.8813458695      2.70e-06  Convergence criterion met
 Total energy in the final basis set =     -538.8813458695
    4    -538.8926569145      4.56e-06  Convergence criterion met
 Total energy in the final basis set =     -538.8926569145

                    Orbital Energies (a.u.)
 --------------------------------------------------------------

 Alpha MOs
 -- Occupied --
-19.1345 -19.1344 -10.2780 -10.2780 -10.2072 -10.2071 -10.2063 -10.2063
-10.1698 -10.1698 -10.1682 -10.1682  -1.0677  -1.0658  -0.8636  -0.8255
 -0.7476  -0.7438  -0.7171  -0.6625  -0.6531  -0.5762  -0.5736  -0.5393
 -0.4831  -0.4661  -0.4660  -0.4396  -0.4330  -0.4296  -0.4174  -0.4154
 -0.4098  -0.4085  -0.3962  -0.3923  -0.3906  -0.3870  -0.3793  -0.3621
 -0.2904  -0.2896  -0.2701  -0.2630

          Ground-State Mulliken Net Atomic Charges

     Atom                 Charge (a.u.)
  ----------------------------------------
      1 C                    -1.051335
      2 C                     0.416331
      3 C                     0.825141
      4 C                    -1.051805
      5 C                     0.417109
      6 C                     0.824972
      7 O                    -0.290525
      8 O                    -0.290509
      9 C                    -0.481744
     10 C                    -0.557881
     11 C                    -0.557788
     12 C                    -0.481317
     13 H                     0.181184
     14 H                     0.190566
     15 H                     0.190574
     16 H                     0.200893
     17 H                     0.188281
     18 H                     0.188277
     19 H                     0.200885
     20 H                     0.188417
     21 H                     0.188417
     22 H                     0.180608
     23 H                     0.190625
     24 H                     0.190623
  ----------------------------------------
  Sum of atomic charges =     0.000000

                    Cartesian Multipole Moments
 -----------------------------------------------------------------
    Charge (ESU x 10^10)
                 0.0000
    Dipole Moment (Debye)
         X       0.0002      Y      -0.0000      Z       0.0003
       Tot       0.0004
    Quadrupole Moments (Debye-Ang)
        XX     -57.6477     XY       0.0409     YY     -92.0062
        XZ      -0.0000     YZ       0.0006     ZZ     -70.7078

 Total job time:  41.78s(wall), 251.88s(cpu)
        *  Thank you very much for using Q-Chem.  Have a nice day.  *
