 Gaussian 16, Revision A.03,
 Gaussian 16:  ES64L-G16RevA.03 25-Dec-2016

 --------------------------------------
 #P UB3LYP/6-311++G(d,p) nosym opt freq
 --------------------------------------

 --------
 Oxidized
 --------
 Symbolic Z-matrix:
 Charge =  0 Multiplicity = 1

 SCF Done:  E(UB3LYP) =  -538.881303382     A.U. after   14 cycles
 SCF Done:  E(UB3LYP) =  -538.881302817     A.U. after    9 cycles
 SCF Done:  E(UB3LYP) =  -538.881303459     A.U. after    9 cycles
 Optimization completed.
    -- Stationary point found.
 Normal termination of Gaussian 16 at Sat Jan  6 05:43:29 2024.

 ----------------------------------------------------------------------
 #P Geom=AllCheck Guess=TCheck SCRF=Check GenChk UB3LYP/6-311++G(d,p) F
 req
 ----------------------------------------------------------------------

 Structure from the checkpoint file:  "053.chk"
 --------
 Oxidized
 --------
 Charge =  0 Multiplicity = 1

                          Input orientation:
 ---------------------------------------------------------------------
 Center     Atomic      Atomic             Coordinates (Angstroms)
 Number     Number       Type             X           Y           Z
 ---------------------------------------------------------------------
      1          6           0        0.264812    1.437041   -0.855209
      2          6           0       -1.013378    0.659515   -0.855260
      3          6           0       -0.969169   -0.690147   -0.855282
      4          6           0        0.343588   -1.402839   -0.855256
      5          6           0        1.621778   -0.625313   -0.855190
      6          6           0        1.577570    0.724349   -0.855164
      7          8           0        0.245263    2.660117   -0.855161
      8          8           0        0.363137   -2.625915   -0.855255
      9          6           0        2.788744    1.611574   -0.855098
     10          6           0        2.897119   -1.427251   -0.855155
     11          6           0       -2.288719    1.461452   -0.855284
     12          6           0       -2.180343   -1.577373   -0.855334
     13          1           0        3.714414    1.039227   -0.855006
     14          1           0        2.779377    2.270009    0.018053
     15          1           0        2.779518    2.269946   -1.728300
     16          1           0        2.669343   -2.491569   -0.855184
     17          1           0        3.504550   -1.203424    0.026433
     18          1           0        3.504619   -1.203390   -1.736688
     19          1           0       -2.060943    2.525771   -0.855252
     20          1           0       -2.896214    1.237589    0.026251
     21          1           0       -2.896155    1.237629   -1.736870
     22          1           0       -3.106014   -1.005025   -0.855320
     23          1           0       -2.171056   -2.235816    0.017812
     24          1           0       -2.171038   -2.235737   -1.728541
 ---------------------------------------------------------------------

 SCF Done:  E(UB3LYP) =  -538.881303459     A.U. after    1 cycles

 Alpha  occ. eigenvalues --  -19.13019 -19.13019 -10.27517 -10.27516 -10.21031
 Alpha  occ. eigenvalues --  -10.21030 -10.20946 -10.20945 -10.17816 -10.17816
 Alpha  occ. eigenvalues --  -10.17632 -10.17632  -1.06300  -1.06096  -0.86661
 Alpha  occ. eigenvalues --   -0.83041  -0.75241  -0.74992  -0.72331  -0.66891
 Alpha  occ. eigenvalues --   -0.65554  -0.57758  -0.57748  -0.54113  -0.47949
 Alpha  occ. eigenvalues --   -0.46933  -0.45885  -0.44544  -0.44044  -0.43257
 Alpha  occ. eigenvalues --   -0.42339  -0.41960  -0.41729  -0.41408  -0.39999
 Alpha  occ. eigenvalues --   -0.39880  -0.39311  -0.39258  -0.38232  -0.36712
 Alpha  occ. eigenvalues --   -0.29082  -0.28439  -0.26865  -0.26681
 Alpha virt. eigenvalues --   -0.12326  -0.01937  -0.01534  -0.00414   0.00684
 Alpha virt. eigenvalues --    0.01178   0.02051   0.02121   0.02445   0.03023
 Alpha virt. eigenvalues --    0.03988   0.04694   0.04929   0.05461   0.05960

  Beta  occ. eigenvalues --  -19.13019 -19.13019 -10.27517 -10.27516 -10.21031
  Beta  occ. eigenvalues --  -10.21030 -10.20946 -10.20945 -10.17816 -10.17816
  Beta  occ. eigenvalues --  -10.17632 -10.17632  -1.06300  -1.06096  -0.86661
  Beta  occ. eigenvalues --   -0.83041  -0.75241  -0.74992  -0.72331  -0.66891
  Beta  occ. eigenvalues --   -0.65554  -0.57758  -0.57748  -0.54113  -0.47949
  Beta  occ. eigenvalues --   -0.46933  -0.45885  -0.44544  -0.44044  -0.43257
  Beta  occ. eigenvalues --   -0.42339  -0.41960  -0.41729  -0.41408  -0.39999
  Beta  occ. eigenvalues --   -0.39880  -0.39311  -0.39258  -0.38232  -0.36712
  Beta  occ. eigenvalues --   -0.29082  -0.28439  -0.26865  -0.26681
  Beta virt. eigenvalues --   -0.12326  -0.01937  -0.01534  -0.00414   0.00684
  Beta virt. eigenvalues --    0.01178   0.02051   0.02121   0.02445   0.03023
  Beta virt. eigenvalues --    0.03988   0.04694   0.04929   0.05461   0.05960

 Mulliken charges and spin densities:
               1          2
     1  C   -1.188894   0.000000
     2  C    0.469424   0.000000
     3  C    0.830059  -0.000000
     4  C   -1.188893  -0.000000
     5  C    0.469424  -0.000000
     6  C    0.830060   0.000000
     7  O   -0.210706  -0.000000
     8  O   -0.210706  -0.000000
     9  C   -0.427162  -0.000000
    10  C   -0.535831   0.000000
    11  C   -0.535831   0.000000
    12  C   -0.427162  -0.000000
    13  H    0.159417  -0.000000
    14  H    0.180198   0.000000
    15  H    0.180201   0.000000
    16  H    0.216152   0.000000
    17  H    0.163569   0.000000
    18  H    0.163572   0.000000
    19  H    0.216152  -0.000000
    20  H    0.163570   0.000000
    21  H    0.163572   0.000000
    22  H    0.159417  -0.000000
    23  H    0.180200   0.000000
    24  H    0.180200   0.000000
 Sum of Mulliken charges =  -0.00000  -0.00000

 Dipole moment (field-independent basis, Debye):
    X=             -0.0000    Y=              0.0000    Z=             -0.0001  Tot=              0.0001
 Quadrupole moment (field-independent basis, Debye-Ang):
   XX=            -61.3362   YY=            -87.7125   ZZ=            -71.0731
   XY=              0.9652   XZ=              0.0003   YZ=             -0.0003

  Exact polarizability: 132.701  -0.193 165.124   0.002   0.002  76.591
 Approx polarizability: 161.996  -2.778 322.819   0.001   0.004 120.915

                      1                      2                      3
                      A                      A                      A
 Frequencies --     36.0594                46.2277                55.8834
 Red. masses --      1.0976                 1.0432                 4.0763
 Frc consts  --      0.0008                 0.0013                 0.0075
 IR Inten    --      0.0452                 0.0000                10.2729

                      4                      5                      6
                      A                      A                      A
 Frequencies --     65.1717                65.4018               104.9272
 Red. masses --      1.0947                 1.2322                 2.1307
 Frc consts  --      0.0027                 0.0031                 0.0138
 IR Inten    --      0.0000                 0.0337                 0.0065

                      7                      8                      9
                      A                      A                      A
 Frequencies --    110.0693               198.8616               290.5050
 Red. masses --      3.3720                 3.4243                 2.7943
 Frc consts  --      0.0241                 0.0798                 0.1389
 IR Inten    --      0.0000                 0.1105                 1.3437

                     10                     11                     12
                      A                      A                      A
 Frequencies --    314.5003               314.9512               333.2244
 Red. masses --      3.4825                 2.6554                 2.6049
 Frc consts  --      0.2029                 0.1552                 0.1704
 IR Inten    --      0.0000                 0.0000                 0.5931

                     13                     14                     15
                      A                      A                      A
 Frequencies --    355.1305               410.5734               415.7143
 Red. masses --      4.4312                 3.8851                 5.2003
 Frc consts  --      0.3293                 0.3859                 0.5295
 IR Inten    --      0.0000                 0.0000                 0.0000

                     16                     17                     18
                      A                      A                      A
 Frequencies --    430.1363               442.1894               521.3888
 Red. masses --      9.7401                 6.4535                 3.3976
 Frc consts  --      1.0618                 0.7435                 0.5442
 IR Inten    --     29.0820                 0.0000                 0.0399

                     19                     20                     21
                      A                      A                      A
 Frequencies --    543.4428               617.7191               683.7468
 Red. masses --      6.7273                 5.1302                 3.1093
 Frc consts  --      1.1706                 1.1534                 0.8564
 IR Inten    --      0.0000                 5.3103                 0.0000

                     22                     23                     24
                      A                      A                      A
 Frequencies --    716.4492               778.2303               828.7331
 Red. masses --      4.9256                 6.5834                 2.2516
 Frc consts  --      1.4896                 2.3492                 0.9111
 IR Inten    --     18.1221                 0.0000                15.8998

                     25                     26                     27
                      A                      A                      A
 Frequencies --    873.7924               977.6427               995.7317
 Red. masses --      3.1246                 1.6359                 3.8903
 Frc consts  --      1.4056                 0.9213                 2.2726
 IR Inten    --     11.6227                 0.0000                 0.0000

                     28                     29                     30
                      A                      A                      A
 Frequencies --   1015.8736              1037.5572              1054.3203
 Red. masses --      1.3719                 1.5167                 1.5799
 Frc consts  --      0.8341                 0.9620                 1.0347
 IR Inten    --      0.0000                 0.1496                77.2566

                     31                     32                     33
                      A                      A                      A
 Frequencies --   1056.6000              1057.6261              1105.1697
 Red. masses --      1.5398                 1.5618                 2.0336
 Frc consts  --      1.0128                 1.0293                 1.4634
 IR Inten    --      0.0011                 0.0000                 0.0000

                     34                     35                     36
                      A                      A                      A
 Frequencies --   1140.4020              1148.5608              1270.8493
 Red. masses --      2.5467                 3.5219                 4.1828
 Frc consts  --      1.9514                 2.7374                 3.9802
 IR Inten    --     19.3430                 0.0000                74.9407

                     37                     38                     39
                      A                      A                      A
 Frequencies --   1297.9527              1345.4435              1404.2635
 Red. masses --      9.8274                 3.6302                 1.2630
 Frc consts  --      9.7545                 3.8718                 1.4674
 IR Inten    --    142.0548                 0.0000                34.7325

                     40                     41                     42
                      A                      A                      A
 Frequencies --   1406.4259              1414.9459              1417.2453
 Red. masses --      1.2950                 1.2420                 1.3127
 Frc consts  --      1.5092                 1.4651                 1.5535
 IR Inten    --      0.0000                33.8502                 0.0000

                     43                     44                     45
                      A                      A                      A
 Frequencies --   1470.4643              1471.9252              1473.2176
 Red. masses --      1.0869                 1.0961                 1.0437
 Frc consts  --      1.3847                 1.3991                 1.3346
 IR Inten    --      4.3754                 0.0000                 0.0000

                     46                     47                     48
                      A                      A                      A
 Frequencies --   1473.3948              1491.1095              1492.1027
 Red. masses --      1.0435                 1.0525                 1.0702
 Frc consts  --      1.3347                 1.3787                 1.4038
 IR Inten    --     24.3649                35.2179                 0.0000

                     49                     50                     51
                      A                      A                      A
 Frequencies --   1504.3322              1504.5577              1662.4735
 Red. masses --      1.0438                 1.0443                 7.9939
 Frc consts  --      1.3917                 1.3928                13.0173
 IR Inten    --      0.0000                 9.7206                62.2971

                     52                     53                     54
                      A                      A                      A
 Frequencies --   1695.4244              1698.5077              1705.0123
 Red. masses --     11.6343                12.4095                 8.8268
 Frc consts  --     19.7037                21.0930                15.1186
 IR Inten    --      0.0000               461.2026                 0.0000

                     55                     56                     57
                      A                      A                      A
 Frequencies --   3032.1462              3032.2251              3039.9161
 Red. masses --      1.0399                 1.0399                 1.0389
 Frc consts  --      5.6328                 5.6332                 5.6565
 IR Inten    --     28.5476                 0.0000                18.4313

                     58                     59                     60
                      A                      A                      A
 Frequencies --   3039.9812              3079.6831              3079.7996
 Red. masses --      1.0389                 1.1000                 1.1000
 Frc consts  --      5.6569                 6.1466                 6.1472
 IR Inten    --      0.0000                 0.0000                32.2341

                     61                     62                     63
                      A                      A                      A
 Frequencies --   3083.6982              3083.7057              3138.5375
 Red. masses --      1.0986                 1.0985                 1.0975
 Frc consts  --      6.1549                 6.1544                 6.3697
 IR Inten    --      0.0002                 6.2226                 0.0003

                     64                     65                     66
                      A                      A                      A
 Frequencies --   3138.5627              3140.9837              3141.1388
 Red. masses --      1.0975                 1.0988                 1.0988
 Frc consts  --      6.3698                 6.3873                 6.3875
 IR Inten    --     19.9175                12.0468                 0.0000

 - Thermochemistry -
 -------------------
 Temperature   298.150 Kelvin.  Pressure   1.00000 Atm.
 Atom     1 has atomic number  6 and mass  12.00000

 Molecular mass:   164.08373 amu.
 Principal axes and moments of inertia in atomic units:
                           1         2         3
     Eigenvalues --  1614.929051775.659303346.26050
           X            0.99904  -0.04379  -0.00004
           Y            0.04379   0.99904  -0.00002
           Z            0.00004   0.00002   1.00000
 This molecule is an asymmetric top.
 Rotational symmetry number  1.
 Warning -- assumption of classical behavior for rotation
           may cause significant error
 Rotational temperatures (Kelvin)      0.05363     0.04878     0.02588
 Rotational constants (GHZ):           1.11754     1.01638     0.53933
 Zero-point vibrational energy     510641.2 (Joules/Mol)
                                  122.04617 (Kcal/Mol)
 Warning -- explicit consideration of  20 degrees of freedom as
           vibrations may cause significant error
 Vibrational temperatures:     51.88    66.51    80.40    93.77    94.10
          (Kelvin)            150.97   158.37   286.12   417.97   452.50
                              453.14   479.44   510.95   590.72   598.12
                              618.87   636.21   750.16   781.89   888.76
                              983.76  1030.81  1119.70  1192.36  1257.19
                             1406.61  1432.64  1461.62  1492.81  1516.93
                             1520.21  1521.69  1590.09  1640.78  1652.52
                             1828.47  1867.46  1935.79  2020.42  2023.53
                             2035.79  2039.10  2115.67  2117.77  2119.63
                             2119.89  2145.37  2146.80  2164.40  2164.72
                             2391.93  2439.34  2443.77  2453.13  4362.58
                             4362.70  4373.76  4373.85  4430.98  4431.14
                             4436.75  4436.76  4515.66  4515.69  4519.17
                             4519.40

 Zero-point correction=                           0.194493 (Hartree/Particle)
 Thermal correction to Energy=                    0.207988
 Thermal correction to Enthalpy=                  0.208932
 Thermal correction to Gibbs Free Energy=         0.152841
 Sum of electronic and zero-point Energies=           -538.686811
 Sum of electronic and thermal Energies=              -538.673316
 Sum of electronic and thermal Enthalpies=            -538.672371
 Sum of electronic and thermal Free Energies=         -538.728463

                     E (Thermal)             CV                S
                      KCal/Mol        Cal/Mol-Kelvin    Cal/Mol-Kelvin
 Total                  130.514             47.066            118.054
 Electronic               0.000              0.000              0.000
 Translational            0.889              2.981             41.194
 Rotational               0.889              2.981             30.640
 Vibrational            128.737             41.105             46.220
 Vibration     1          0.594              1.982              5.465
 Vibration     2          0.595              1.979              4.973
 Vibration     3          0.596              1.975              4.598
 Vibration     4          0.597              1.971              4.294
 Vibration     5          0.597              1.971              4.287
 Vibration     6          0.605              1.945              3.361
 Vibration     7          0.606              1.941              3.268
 Vibration     8          0.637              1.841              2.144
 Vibration     9          0.686              1.691              1.471
 Vibration    10          0.702              1.646              1.339
 Vibration    11          0.702              1.645              1.336
 Vibration    12          0.715              1.609              1.244
 Vibration    13          0.731              1.565              1.143
 Vibration    14          0.775              1.447              0.925
 Vibration    15          0.779              1.436              0.907
 Vibration    16          0.791              1.405              0.858
 Vibration    17          0.802              1.378              0.820
 Vibration    18          0.876              1.203              0.607
 Vibration    19          0.899              1.154              0.558
 Vibration    20          0.977              0.994              0.420

 Optimization completed.
    -- Stationary point found.
 Normal termination of Gaussian 16 at Sat Jan  6 06:07:06 2024.
