 Gaussian 16, Revision A.03,
 Gaussian 16:  ES64L-G16RevA.03 25-Dec-2016

 ----------------------------------------------------------------------
 #P UB3LYP/6-311++G(d,p) nosym opt freq SCRF=(PCM,Solvent=n,n-DiMethylF
 ormamide)
 ----------------------------------------------------------------------

 -------
 Reduced
 -------
 Symbolic Z-matrix:
 Charge = -2 Multiplicity = 1

 SCF Done:  E(UB3LYP) =  -839.686966011     A.U. after   19 cycles
 SCF Done:  E(UB3LYP) =  -839.689485353     A.U. after   13 cycles
 SCF Done:  E(UB3LYP) =  -839.690129826     A.U. after   13 cycles
 SCF Done:  E(UB3LYP) =  -839.690310691     A.U. after   13 cycles
 SCF Done:  E(UB3LYP) =  -839.690449192     A.U. after   14 cycles
 SCF Done:  E(UB3LYP) =  -839.690511418     A.U. after   12 cycles
 SCF Done:  E(UB3LYP) =  -839.690554346     A.U. after   12 cycles
 SCF Done:  E(UB3LYP) =  -839.690565079     A.U. after   11 cycles
 SCF Done:  E(UB3LYP) =  -839.690566121     A.U. after   10 cycles
 Optimization completed.
    -- Stationary point found.
 Normal termination of Gaussian 16 at Sat Feb 10 22:51:43 2024.

 ----------------------------------------------------------------------
 #P Geom=AllCheck Guess=TCheck SCRF=Check GenChk UB3LYP/6-311++G(d,p) F
 req
 ----------------------------------------------------------------------

 Structure from the checkpoint file:  "189-an.chk"
 -------
 Reduced
 -------
 Charge = -2 Multiplicity = 1

                          Input orientation:
 ---------------------------------------------------------------------
 Center     Atomic      Atomic             Coordinates (Angstroms)
 Number     Number       Type             X           Y           Z
 ---------------------------------------------------------------------
      1          8           0       -4.889020    1.175286    0.162992
      2          6           0       -3.675229    0.504342    0.098703
      3          6           0       -3.640422   -0.914005    0.002747
      4          6           0       -2.419807   -1.547408   -0.060898
      5          6           0       -1.187761   -0.844126   -0.034717
      6          6           0        0.053339   -1.573065   -0.107394
      7          8           0        0.097864   -2.867100   -0.197868
      8          6           0        1.241851   -0.758566   -0.073005
      9          6           0        2.518169   -1.374987   -0.136904
     10          6           0        3.693481   -0.658716   -0.109674
     11          6           0        3.632684    0.758862   -0.014639
     12          8           0        4.798235    1.512586    0.013979
     13          6           0        2.426473    1.404946    0.051234
     14          6           0        1.187731    0.689388    0.026710
     15          6           0       -0.047841    1.409699    0.099947
     16          8           0       -0.093307    2.719176    0.192852
     17          6           0       -1.231434    0.604097    0.065090
     18          6           0       -2.515128    1.232329    0.129095
     19          1           0       -5.606870    0.532994    0.134261
     20          1           0       -4.566989   -1.481072   -0.019878
     21          1           0       -2.375201   -2.628156   -0.135777
     22          1           0        2.545590   -2.456649   -0.209193
     23          1           0        4.656000   -1.160464   -0.159936
     24          1           0        5.557741    0.922454   -0.045405
     25          1           0        2.392188    2.485280    0.125759
     26          1           0       -2.552336    2.312874    0.201922
 ---------------------------------------------------------------------

 SCF Done:  E(UB3LYP) =  -839.690566121     A.U. after    1 cycles

 Alpha  occ. eigenvalues --  -19.14091 -19.14090 -19.02217 -19.00978 -10.21137
 Alpha  occ. eigenvalues --  -10.21136 -10.17741 -10.16305 -10.15312 -10.15308
 Alpha  occ. eigenvalues --  -10.15193 -10.15192 -10.13907 -10.13904 -10.13832
 Alpha  occ. eigenvalues --  -10.13827 -10.13490 -10.13486  -1.04541  -1.04540
 Alpha  occ. eigenvalues --   -0.93455  -0.91695  -0.82652  -0.82036  -0.75157
 Alpha  occ. eigenvalues --   -0.72729  -0.72692  -0.70310  -0.64444  -0.61184
 Alpha  occ. eigenvalues --   -0.60677  -0.56607  -0.55849  -0.52407  -0.52210
 Alpha  occ. eigenvalues --   -0.48437  -0.46673  -0.45506  -0.44045  -0.41342
 Alpha  occ. eigenvalues --   -0.40644  -0.39927  -0.39836  -0.39401  -0.39339
 Alpha  occ. eigenvalues --   -0.38091  -0.36485  -0.36427  -0.35653  -0.35206
 Alpha  occ. eigenvalues --   -0.33139  -0.31957  -0.31931  -0.31373  -0.29880
 Alpha  occ. eigenvalues --   -0.28113  -0.23284  -0.22120  -0.21162  -0.20094
 Alpha  occ. eigenvalues --   -0.20074  -0.19110  -0.10511
 Alpha virt. eigenvalues --   -0.02586  -0.00162   0.00239   0.00649   0.01410
 Alpha virt. eigenvalues --    0.01762   0.02342   0.02515   0.03962   0.04578
 Alpha virt. eigenvalues --    0.04795   0.05230   0.06496   0.06782   0.07100

  Beta  occ. eigenvalues --  -19.14091 -19.14090 -19.02217 -19.00978 -10.21137
  Beta  occ. eigenvalues --  -10.21136 -10.17741 -10.16305 -10.15312 -10.15308
  Beta  occ. eigenvalues --  -10.15193 -10.15192 -10.13907 -10.13904 -10.13832
  Beta  occ. eigenvalues --  -10.13827 -10.13490 -10.13486  -1.04541  -1.04540
  Beta  occ. eigenvalues --   -0.93455  -0.91695  -0.82652  -0.82036  -0.75157
  Beta  occ. eigenvalues --   -0.72729  -0.72692  -0.70310  -0.64444  -0.61184
  Beta  occ. eigenvalues --   -0.60677  -0.56607  -0.55849  -0.52407  -0.52210
  Beta  occ. eigenvalues --   -0.48437  -0.46673  -0.45506  -0.44045  -0.41342
  Beta  occ. eigenvalues --   -0.40644  -0.39927  -0.39836  -0.39401  -0.39339
  Beta  occ. eigenvalues --   -0.38091  -0.36485  -0.36427  -0.35653  -0.35206
  Beta  occ. eigenvalues --   -0.33139  -0.31957  -0.31931  -0.31373  -0.29880
  Beta  occ. eigenvalues --   -0.28113  -0.23284  -0.22120  -0.21162  -0.20094
  Beta  occ. eigenvalues --   -0.20074  -0.19110  -0.10511
  Beta virt. eigenvalues --   -0.02586  -0.00162   0.00239   0.00649   0.01410
  Beta virt. eigenvalues --    0.01762   0.02342   0.02515   0.03962   0.04578
  Beta virt. eigenvalues --    0.04795   0.05230   0.06496   0.06782   0.07100

 Mulliken charges and spin densities:
               1          2
     1  O   -0.308949  -0.000000
     2  C   -0.642922   0.000000
     3  C   -0.092952  -0.000000
     4  C   -0.049204  -0.000000
     5  C    0.172567   0.000000
     6  C   -0.368072   0.000000
     7  O   -0.658428  -0.000000
     8  C    0.173930  -0.000000
     9  C   -0.048781  -0.000000
    10  C   -0.093653  -0.000000
    11  C   -0.642112  -0.000000
    12  O   -0.308693  -0.000000
    13  C   -0.434442   0.000000
    14  C    0.701641  -0.000000
    15  C   -0.480176   0.000000
    16  O   -0.714846  -0.000000
    17  C    0.702788   0.000000
    18  C   -0.433160  -0.000000
    19  H    0.287601   0.000000
    20  H    0.161771  -0.000000
    21  H    0.154051  -0.000000
    22  H    0.154706  -0.000000
    23  H    0.161411   0.000000
    24  H    0.287501  -0.000000
    25  H    0.158878  -0.000000
    26  H    0.159544  -0.000000
 Sum of Mulliken charges =  -2.00000   0.00000

 Dipole moment (field-independent basis, Debye):
    X=              0.1459    Y=             -4.3247    Z=             -0.3210  Tot=              4.3390
 Quadrupole moment (field-independent basis, Debye-Ang):
   XX=           -113.9682   YY=           -175.2025   ZZ=           -116.6033
   XY=              2.1017   XZ=              0.0325   YZ=             -4.1157

  Exact polarizability: 564.221   7.126 367.556  -6.893  14.491 154.160
 Approx polarizability: 624.792   7.030 431.726  -7.679  17.845 170.183

                      1                      2                      3
                      A                      A                      A
 Frequencies --     55.5500                97.7529               126.9673
 Red. masses --      8.1755                 5.3111                 7.8019
 Frc consts  --      0.0149                 0.0299                 0.0741
 IR Inten    --     19.1191                 0.0255                16.3994

                      4                      5                      6
                      A                      A                      A
 Frequencies --    169.5445               173.4694               182.2929
 Red. masses --      7.2024                 6.7816                 6.1962
 Frc consts  --      0.1220                 0.1202                 0.1213
 IR Inten    --      7.1462                18.3633                 0.3235

                      7                      8                      9
                      A                      A                      A
 Frequencies --    215.4108               224.0789               249.7772
 Red. masses --      1.0862                 1.0874                 8.6670
 Frc consts  --      0.0297                 0.0322                 0.3186
 IR Inten    --    163.2184               155.7492                 6.7199

                     10                     11                     12
                      A                      A                      A
 Frequencies --    287.9946               324.9830               331.3396
 Red. masses --      6.7179                 8.4422                 5.9972
 Frc consts  --      0.3283                 0.5253                 0.3879
 IR Inten    --      5.9680                 1.0334                 0.0031

                     13                     14                     15
                      A                      A                      A
 Frequencies --    345.8112               377.9149               401.6041
 Red. masses --     12.8636                 7.9826                 4.8922
 Frc consts  --      0.9063                 0.6717                 0.4649
 IR Inten    --      1.3531                28.8829                 1.1195

                     16                     17                     18
                      A                      A                      A
 Frequencies --    406.8898               458.4320               466.0685
 Red. masses --      4.8158                 4.4001                 4.5285
 Frc consts  --      0.4698                 0.5448                 0.5796
 IR Inten    --      9.9624                17.3421                 0.0062

                     19                     20                     21
                      A                      A                      A
 Frequencies --    472.5870               493.6574               584.7876
 Red. masses --      2.8427                12.8321                 5.0004
 Frc consts  --      0.3741                 1.8425                 1.0075
 IR Inten    --      0.0210                 4.9029                 0.0153

                     22                     23                     24
                      A                      A                      A
 Frequencies --    588.1661               597.8222               635.8994
 Red. masses --      5.4558                 7.4852                 3.0213
 Frc consts  --      1.1120                 1.5762                 0.7198
 IR Inten    --     46.3192                29.9242                50.7515

                     25                     26                     27
                      A                      A                      A
 Frequencies --    650.5816               701.8538               703.7169
 Red. masses --      7.7019                 6.7067                 4.5421
 Frc consts  --      1.9207                 1.9465                 1.3253
 IR Inten    --      6.3102                 3.5980                 0.1136

                     28                     29                     30
                      A                      A                      A
 Frequencies --    715.8848               732.7091               749.7708
 Red. masses --      4.8385                 6.4702                 2.3099
 Frc consts  --      1.4610                 2.0466                 0.7651
 IR Inten    --     60.3884                40.3554                21.7185

                     31                     32                     33
                      A                      A                      A
 Frequencies --    765.0680               783.4353               786.7294
 Red. masses --      1.4894                 8.0124                 3.3140
 Frc consts  --      0.5136                 2.8975                 1.2085
 IR Inten    --      0.1003               279.0677                32.0309

                     34                     35                     36
                      A                      A                      A
 Frequencies --    875.3787               884.5138               924.0274
 Red. masses --      1.4414                 1.4070                 4.4594
 Frc consts  --      0.6508                 0.6486                 2.2433
 IR Inten    --     30.8031                45.2682                 6.0567

                     37                     38                     39
                      A                      A                      A
 Frequencies --    926.0110               961.3080               966.9833
 Red. masses --      5.6506                 1.2999                 1.3009
 Frc consts  --      2.8548                 0.7078                 0.7167
 IR Inten    --     23.2575                 2.2202                 6.3603

                     40                     41                     42
                      A                      A                      A
 Frequencies --    992.6179              1071.8563              1106.5766
 Red. masses --      2.4645                 3.5026                 1.8609
 Frc consts  --      1.4307                 2.3709                 1.3426
 IR Inten    --    170.9259               411.4329               204.3713

                     43                     44                     45
                      A                      A                      A
 Frequencies --   1124.0711              1139.1957              1167.5518
 Red. masses --      1.8007                 1.9798                 1.3807
 Frc consts  --      1.3405                 1.5138                 1.1089
 IR Inten    --    169.6650              1280.7492               647.2132

                     46                     47                     48
                      A                      A                      A
 Frequencies --   1192.1087              1192.3832              1201.3838
 Red. masses --      1.6605                 1.5503                 3.1427
 Frc consts  --      1.3903                 1.2986                 2.6725
 IR Inten    --     56.7072               120.0720                72.2450

                     49                     50                     51
                      A                      A                      A
 Frequencies --   1212.4978              1234.3733              1265.8483
 Red. masses --      3.8738                 2.0955                 2.6864
 Frc consts  --      3.3555                 1.8812                 2.5362
 IR Inten    --    384.9364                 1.5272                 9.1823

                     52                     53                     54
                      A                      A                      A
 Frequencies --   1307.4305              1347.4781              1353.1401
 Red. masses --      5.4682                 4.6472                 4.8182
 Frc consts  --      5.5072                 4.9715                 5.1978
 IR Inten    --    153.8267              2761.5593               389.9230

                     55                     56                     57
                      A                      A                      A
 Frequencies --   1356.4244              1425.1627              1452.8613
 Red. masses --      2.1203                 4.9180                 3.3533
 Frc consts  --      2.2984                 5.8853                 4.1704
 IR Inten    --    476.7925                 5.2205               241.8797

                     58                     59                     60
                      A                      A                      A
 Frequencies --   1477.3151              1490.3785              1508.7573
 Red. masses --      5.4191                 3.0657                 5.8301
 Frc consts  --      6.9682                 4.0122                 7.8193
 IR Inten    --     51.8942               107.4793               120.2987

                     61                     62                     63
                      A                      A                      A
 Frequencies --   1538.9095              1572.0954              1626.7066
 Red. masses --      5.5262                 6.9722                 5.6517
 Frc consts  --      7.7109                10.1526                 8.8114
 IR Inten    --     17.3727                64.5709               964.0598

                     64                     65                     66
                      A                      A                      A
 Frequencies --   1643.8688              3140.5651              3142.5800
 Red. masses --      6.2725                 1.0882                 1.0882
 Frc consts  --      9.9867                 6.3238                 6.3321
 IR Inten    --     16.4753                27.5839                32.6904

                     67                     68                     69
                      A                      A                      A
 Frequencies --   3174.5181              3178.8077              3181.3746
 Red. masses --      1.0912                 1.0903                 1.0890
 Frc consts  --      6.4789                 6.4911                 6.4939
 IR Inten    --     39.7997                23.5506                47.5713

                     70                     71                     72
                      A                      A                      A
 Frequencies --   3187.7563              3821.8916              3822.3507
 Red. masses --      1.0881                 1.0664                 1.0664
 Frc consts  --      6.5146                 9.1774                 9.1794
 IR Inten    --     28.9489               179.6784               132.3385

 - Thermochemistry -
 -------------------
 Temperature   298.150 Kelvin.  Pressure   1.00000 Atm.
 Atom     1 has atomic number  8 and mass  15.99491

 Molecular mass:   240.04226 amu.
 Principal axes and moments of inertia in atomic units:
                           1         2         3
     Eigenvalues --  1904.637726749.128348653.75541
           X            0.99928  -0.03363   0.01779
           Y            0.03476   0.99708  -0.06802
           Z           -0.01545   0.06859   0.99753
 This molecule is an asymmetric top.
 Rotational symmetry number  1.
 Warning -- assumption of classical behavior for rotation
           may cause significant error
 Rotational temperatures (Kelvin)      0.04548     0.01283     0.01001
 Rotational constants (GHZ):           0.94755     0.26740     0.20855
 Zero-point vibrational energy     478791.0 (Joules/Mol)
                                  114.43380 (Kcal/Mol)
 Warning -- explicit consideration of  23 degrees of freedom as
           vibrations may cause significant error
 Vibrational temperatures:     79.92   140.64   182.68   243.94   249.58
          (Kelvin)            262.28   309.93   322.40   359.37   414.36
                              467.58   476.72   497.55   543.74   577.82
                              585.42   659.58   670.57   679.95   710.26
                              841.38   846.24   860.13   914.92   936.04
                             1009.81  1012.49  1030.00  1054.20  1078.75
                             1100.76  1127.19  1131.93  1259.47  1272.62
                             1329.47  1332.32  1383.11  1391.27  1428.16
                             1542.16  1592.12  1617.29  1639.05  1679.85
                             1715.18  1715.57  1728.52  1744.51  1775.99
                             1821.27  1881.10  1938.72  1946.87  1951.59
                             2050.49  2090.34  2125.53  2144.32  2170.77
                             2214.15  2261.89  2340.47  2365.16  4518.57
                             4521.47  4567.42  4573.60  4577.29  4586.47
                             5498.85  5499.51

 Zero-point correction=                           0.182362 (Hartree/Particle)
 Thermal correction to Energy=                    0.196465
 Thermal correction to Enthalpy=                  0.197409
 Thermal correction to Gibbs Free Energy=         0.142193
 Sum of electronic and zero-point Energies=           -839.508204
 Sum of electronic and thermal Energies=              -839.494101
 Sum of electronic and thermal Enthalpies=            -839.493157
 Sum of electronic and thermal Free Energies=         -839.548373

                     E (Thermal)             CV                S
                      KCal/Mol        Cal/Mol-Kelvin    Cal/Mol-Kelvin
 Total                  123.283             56.919            116.211
 Electronic               0.000              0.000              0.000
 Translational            0.889              2.981             42.328
 Rotational               0.889              2.981             33.075
 Vibrational            121.506             50.957             40.808
 Vibration     1          0.596              1.975              4.609
 Vibration     2          0.603              1.951              3.499
 Vibration     3          0.611              1.926              2.991
 Vibration     4          0.625              1.880              2.441
 Vibration     5          0.627              1.875              2.398
 Vibration     6          0.630              1.864              2.305
 Vibration     7          0.645              1.818              1.997
 Vibration     8          0.649              1.804              1.926
 Vibration     9          0.663              1.763              1.732
 Vibration    10          0.685              1.696              1.486
 Vibration    11          0.709              1.626              1.285
 Vibration    12          0.714              1.613              1.254
 Vibration    13          0.724              1.584              1.185
 Vibration    14          0.748              1.517              1.047
 Vibration    15          0.767              1.467              0.957
 Vibration    16          0.772              1.455              0.938
 Vibration    17          0.816              1.342              0.771
 Vibration    18          0.823              1.325              0.749
 Vibration    19          0.829              1.311              0.730
 Vibration    20          0.849              1.264              0.674
 Vibration    21          0.942              1.064              0.477
 Vibration    22          0.945              1.057              0.470
 Vibration    23          0.956              1.036              0.453

                           ! Non-Optimized Parameters !
 Normal termination of Gaussian 16 at Sun Feb 11 00:08:24 2024.
