 Gaussian 16, Revision A.03,
 Gaussian 16:  ES64L-G16RevA.03 25-Dec-2016

 ----------------------------------------------------------------------
 #P UB3LYP/6-311++G(d,p) nosym opt freq SCRF=(PCM,Solvent=n,n-DiMethylF
 ormamide)
 ----------------------------------------------------------------------

 -------
 Reduced
 -------
 Symbolic Z-matrix:
 Charge = -3 Multiplicity = 1

 SCF Done:  E(UB3LYP) =  -1158.97297379     A.U. after   18 cycles
 SCF Done:  E(UB3LYP) =  -1158.97819190     A.U. after   15 cycles
 SCF Done:  E(UB3LYP) =  -1158.97880715     A.U. after   13 cycles
 SCF Done:  E(UB3LYP) =  -1158.97877274     A.U. after   14 cycles
 SCF Done:  E(UB3LYP) =  -1158.97895781     A.U. after   14 cycles
 SCF Done:  E(UB3LYP) =  -1158.97899188     A.U. after   13 cycles
 SCF Done:  E(UB3LYP) =  -1158.97899963     A.U. after   11 cycles
 SCF Done:  E(UB3LYP) =  -1158.97900108     A.U. after   11 cycles
 SCF Done:  E(UB3LYP) =  -1158.97900164     A.U. after   11 cycles
 SCF Done:  E(UB3LYP) =  -1158.97900230     A.U. after    9 cycles
 SCF Done:  E(UB3LYP) =  -1158.97900246     A.U. after    9 cycles
 SCF Done:  E(UB3LYP) =  -1158.97900247     A.U. after    9 cycles
 Optimization completed.
    -- Stationary point found.
 Normal termination of Gaussian 16 at Sun Feb 11 16:04:13 2024.

 ----------------------------------------------------------------------
 #P Geom=AllCheck Guess=TCheck SCRF=Check GenChk UB3LYP/6-311++G(d,p) F
 req
 ----------------------------------------------------------------------

 Structure from the checkpoint file:  "315-an.chk"
 -------
 Reduced
 -------
 Charge = -3 Multiplicity = 1

                          Input orientation:
 ---------------------------------------------------------------------
 Center     Atomic      Atomic             Coordinates (Angstroms)
 Number     Number       Type             X           Y           Z
 ---------------------------------------------------------------------
      1          6           0       -5.037861   -0.093613   -3.937428
      2          6           0       -4.486559   -0.077528   -5.204175
      3          6           0       -3.082550   -0.006351   -5.353258
      4          6           0       -4.240554   -0.041699   -2.768188
      5          6           0       -2.813650    0.029813   -2.919706
      6          6           0       -2.277425    0.045479   -4.232433
      7          6           0       -4.901480   -0.066164   -1.458968
      8          6           0       -3.997397   -0.027415   -0.369545
      9          6           0       -2.581386    0.044281   -0.525830
     10          6           0       -1.928411    0.081529   -1.763657
     11          8           0       -6.192954   -0.118622   -1.380722
     12          8           0       -0.625420    0.153024   -1.901471
     13         16           0       -4.620528   -0.068377    1.325500
     14          8           0       -5.484373    1.141093    1.556464
     15          8           0       -5.389421   -1.344590    1.527780
     16          8           0       -3.415044   -0.033291    2.223900
     17          1           0       -6.111524   -0.150432   -3.800498
     18          1           0       -5.125965   -0.120545   -6.080615
     19          1           0       -2.641332    0.006272   -6.345424
     20          1           0       -1.198675    0.097868   -4.328248
     21          1           0       -1.975399    0.071236    0.372468
 ---------------------------------------------------------------------

 SCF Done:  E(UB3LYP) =  -1158.97900247     A.U. after    1 cycles

 Alpha  occ. eigenvalues --  -89.01390 -19.06020 -19.06005 -19.05957 -19.01615
 Alpha  occ. eigenvalues --  -19.01061 -10.17943 -10.16696 -10.15173 -10.15045
 Alpha  occ. eigenvalues --  -10.14679 -10.14650 -10.14331 -10.14189 -10.14128
 Alpha  occ. eigenvalues --  -10.11862  -8.07288  -6.03590  -6.03570  -6.03397
 Alpha  occ. eigenvalues --   -1.07187  -0.93545  -0.93475  -0.93040  -0.91713
 Alpha  occ. eigenvalues --   -0.82723  -0.76974  -0.72328  -0.71252  -0.65098
 Alpha  occ. eigenvalues --   -0.61045  -0.58426  -0.55028  -0.52254  -0.47590
 Alpha  occ. eigenvalues --   -0.47282  -0.44262  -0.42895  -0.42385  -0.41923
 Alpha  occ. eigenvalues --   -0.40214  -0.39717  -0.37749  -0.37276  -0.35489
 Alpha  occ. eigenvalues --   -0.35009  -0.32284  -0.32256  -0.31381  -0.30500
 Alpha  occ. eigenvalues --   -0.30431  -0.30309  -0.26860  -0.26783  -0.25982
 Alpha  occ. eigenvalues --   -0.22919  -0.22591  -0.22148  -0.21446  -0.19518
 Alpha  occ. eigenvalues --   -0.19012  -0.11627
 Alpha virt. eigenvalues --   -0.00848   0.00460   0.00474   0.01776   0.02116
 Alpha virt. eigenvalues --    0.03414   0.03936   0.05046   0.05545   0.06150
 Alpha virt. eigenvalues --    0.06324   0.06809   0.07443   0.08092   0.08509

  Beta  occ. eigenvalues --  -89.01390 -19.06020 -19.06005 -19.05957 -19.01615
  Beta  occ. eigenvalues --  -19.01061 -10.17943 -10.16696 -10.15173 -10.15045
  Beta  occ. eigenvalues --  -10.14679 -10.14650 -10.14331 -10.14189 -10.14128
  Beta  occ. eigenvalues --  -10.11862  -8.07288  -6.03590  -6.03570  -6.03397
  Beta  occ. eigenvalues --   -1.07187  -0.93545  -0.93475  -0.93040  -0.91713
  Beta  occ. eigenvalues --   -0.82723  -0.76974  -0.72328  -0.71252  -0.65098
  Beta  occ. eigenvalues --   -0.61045  -0.58426  -0.55028  -0.52254  -0.47590
  Beta  occ. eigenvalues --   -0.47282  -0.44262  -0.42895  -0.42385  -0.41923
  Beta  occ. eigenvalues --   -0.40214  -0.39717  -0.37749  -0.37276  -0.35489
  Beta  occ. eigenvalues --   -0.35009  -0.32284  -0.32256  -0.31381  -0.30500
  Beta  occ. eigenvalues --   -0.30431  -0.30309  -0.26860  -0.26783  -0.25982
  Beta  occ. eigenvalues --   -0.22919  -0.22591  -0.22148  -0.21446  -0.19518
  Beta  occ. eigenvalues --   -0.19012  -0.11627
  Beta virt. eigenvalues --   -0.00848   0.00460   0.00474   0.01776   0.02116
  Beta virt. eigenvalues --    0.03414   0.03936   0.05046   0.05545   0.06150
  Beta virt. eigenvalues --    0.06324   0.06809   0.07443   0.08092   0.08509

 Mulliken charges and spin densities:
               1          2
     1  C    0.049968  -0.000000
     2  C   -0.451631  -0.000000
     3  C   -0.399897   0.000000
     4  C   -0.025421   0.000000
     5  C    0.471173   0.000000
     6  C   -0.016429  -0.000000
     7  C   -0.627050   0.000000
     8  C   -0.562644  -0.000000
     9  C    0.076713  -0.000000
    10  C   -0.429826  -0.000000
    11  O   -0.626580  -0.000000
    12  O   -0.732490  -0.000000
    13  S    0.836658   0.000000
    14  O   -0.435710  -0.000000
    15  O   -0.438714  -0.000000
    16  O   -0.495986  -0.000000
    17  H    0.149201   0.000000
    18  H    0.159707  -0.000000
    19  H    0.162359   0.000000
    20  H    0.144657   0.000000
    21  H    0.191944  -0.000000
 Sum of Mulliken charges =  -3.00000   0.00000

 Dipole moment (field-independent basis, Debye):
    X=             56.6120    Y=              0.3273    Z=              3.9210  Tot=             56.7486
 Quadrupole moment (field-independent basis, Debye-Ang):
   XX=           -404.9092   YY=           -121.4017   ZZ=           -167.7118
   XY=             -4.3900   XZ=              7.2405   YZ=              1.3331

  Exact polarizability: 306.134   7.517 156.755  -1.591   0.826 379.877
 Approx polarizability: 354.845   9.061 173.792   6.025   1.391 403.716

                      1                      2                      3
                      A                      A                      A
 Frequencies --     52.8092                72.9455               117.8244
 Red. masses --      9.6360                10.3205                 4.4988
 Frc consts  --      0.0158                 0.0324                 0.0368
 IR Inten    --      8.1045                 1.3096                 0.3736

                      4                      5                      6
                      A                      A                      A
 Frequencies --    159.0862               168.9596               205.7024
 Red. masses --     11.1259                 9.0932                 5.9867
 Frc consts  --      0.1659                 0.1529                 0.1493
 IR Inten    --     13.2650                 3.1592                 0.0409

                      7                      8                      9
                      A                      A                      A
 Frequencies --    246.6828               269.7283               299.0880
 Red. masses --     13.3022                 7.1304                 8.0095
 Frc consts  --      0.4769                 0.3056                 0.4221
 IR Inten    --      3.4500                 8.5043                 0.3398

                     10                     11                     12
                      A                      A                      A
 Frequencies --    305.2167               357.4901               398.0250
 Red. masses --     15.4639                10.8634                 8.4528
 Frc consts  --      0.8488                 0.8180                 0.7890
 IR Inten    --      7.6011                14.2594                 0.8629

                     13                     14                     15
                      A                      A                      A
 Frequencies --    436.5686               474.9218               477.7170
 Red. masses --      3.2209                10.1495                 6.5662
 Frc consts  --      0.3617                 1.3488                 0.8829
 IR Inten    --     10.0017                 2.3169                16.1260

                     16                     17                     18
                      A                      A                      A
 Frequencies --    493.0991               498.2295               540.2466
 Red. masses --      9.4453                14.1915                 7.7271
 Frc consts  --      1.3531                 2.0756                 1.3288
 IR Inten    --     18.5985                41.5995                22.8207

                     19                     20                     21
                      A                      A                      A
 Frequencies --    574.1520               619.4019               638.4386
 Red. masses --     10.2768                10.2364                 2.9116
 Frc consts  --      1.9960                 2.3139                 0.6992
 IR Inten    --    153.1376               306.1606                 3.2880

                     22                     23                     24
                      A                      A                      A
 Frequencies --    668.3553               691.8474               721.3422
 Red. masses --      6.4479                 3.4629                 6.2701
 Frc consts  --      1.6970                 0.9766                 1.9222
 IR Inten    --     25.4190                67.1832                68.9942

                     25                     26                     27
                      A                      A                      A
 Frequencies --    773.8689               783.1038               812.9547
 Red. masses --      1.8240                 3.1075                 9.4622
 Frc consts  --      0.6436                 1.1228                 3.6845
 IR Inten    --     80.8531                11.6643               214.6124

                     28                     29                     30
                      A                      A                      A
 Frequencies --    837.2008               841.8157               866.8024
 Red. masses --      4.9293                 1.5684                 1.5370
 Frc consts  --      2.0356                 0.6549                 0.6804
 IR Inten    --     16.7341                41.1887                 2.6355

                     31                     32                     33
                      A                      A                      A
 Frequencies --    948.9480               970.7368               982.8681
 Red. masses --     16.5316                 1.3739                 1.2612
 Frc consts  --      8.7710                 0.7628                 0.7179
 IR Inten    --    587.6517                 3.1711                 0.5190

                     34                     35                     36
                      A                      A                      A
 Frequencies --   1021.1520              1059.9295              1062.8485
 Red. masses --      2.2777                19.9674                18.2242
 Frc consts  --      1.3993                13.2168                12.1295
 IR Inten    --    106.5587               631.0665               630.9774

                     37                     38                     39
                      A                      A                      A
 Frequencies --   1069.7884              1088.5366              1136.1938
 Red. masses --      3.0159                 2.8755                 1.5258
 Frc consts  --      2.0336                 2.0075                 1.1605
 IR Inten    --    146.8167                65.8294                15.3682

                     40                     41                     42
                      A                      A                      A
 Frequencies --   1151.9708              1201.4502              1223.7645
 Red. masses --      1.6851                 1.7767                 2.9068
 Frc consts  --      1.3175                 1.5111                 2.5648
 IR Inten    --     16.7149               177.3601               203.4555

                     43                     44                     45
                      A                      A                      A
 Frequencies --   1264.8177              1310.3819              1353.8855
 Red. masses --      2.6767                 4.6050                 8.7024
 Frc consts  --      2.5229                 4.6588                 9.3984
 IR Inten    --     47.6356               458.9026               492.7906

                     46                     47                     48
                      A                      A                      A
 Frequencies --   1366.7823              1420.0045              1439.6303
 Red. masses --      5.5826                 2.6188                 2.9022
 Frc consts  --      6.1445                 3.1112                 3.5438
 IR Inten    --   1155.1716               349.4354                62.6345

                     49                     50                     51
                      A                      A                      A
 Frequencies --   1504.1097              1514.3019              1591.6445
 Red. masses --      4.3190                 4.1863                 7.5433
 Frc consts  --      5.7569                 5.6559                11.2592
 IR Inten    --    180.2234               319.9146                 4.7076

                     52                     53                     54
                      A                      A                      A
 Frequencies --   1614.4726              3139.6928              3154.8718
 Red. masses --      5.6975                 1.0848                 1.0893
 Frc consts  --      8.7497                 6.3003                 6.3878
 IR Inten    --      4.1726                16.6753                30.1467

                     55                     56                     57
                      A                      A                      A
 Frequencies --   3169.6029              3174.6167              3175.2167
 Red. masses --      1.0922                 1.0883                 1.0925
 Frc consts  --      6.4650                 6.4624                 6.4895
 IR Inten    --     34.0548                65.9461                46.4005

 - Thermochemistry -
 -------------------
 Temperature   298.150 Kelvin.  Pressure   1.00000 Atm.
 Atom     1 has atomic number  6 and mass  12.00000

 Molecular mass:   236.98577 amu.
 Principal axes and moments of inertia in atomic units:
                           1         2         3
     Eigenvalues --  1821.691605387.105996855.10612
           X           -0.25650   0.96516  -0.05167
           Y           -0.01201   0.05027   0.99866
           Z            0.96647   0.25678  -0.00131
 This molecule is an asymmetric top.
 Rotational symmetry number  1.
 Warning -- assumption of classical behavior for rotation
           may cause significant error
 Rotational temperatures (Kelvin)      0.04755     0.01608     0.01263
 Rotational constants (GHZ):           0.99070     0.33501     0.26327
 Zero-point vibrational energy     344021.1 (Joules/Mol)
                                   82.22303 (Kcal/Mol)
 Warning -- explicit consideration of  20 degrees of freedom as
           vibrations may cause significant error
 Vibrational temperatures:     75.98   104.95   169.52   228.89   243.10
          (Kelvin)            295.96   354.92   388.08   430.32   439.14
                              514.35   572.67   628.12   683.31   687.33
                              709.46   716.84   777.29   826.08   891.18
                              918.57   961.61   995.41  1037.85  1113.42
                             1126.71  1169.66  1204.55  1211.18  1247.14
                             1365.32  1396.67  1414.13  1469.21  1525.00
                             1529.20  1539.19  1566.16  1634.73  1657.43
                             1728.62  1760.72  1819.79  1885.35  1947.94
                             1966.49  2043.07  2071.31  2164.08  2178.74
                             2290.02  2322.87  4517.32  4539.16  4560.35
                             4567.57  4568.43

 Zero-point correction=                           0.131031 (Hartree/Particle)
 Thermal correction to Energy=                    0.143499
 Thermal correction to Enthalpy=                  0.144444
 Thermal correction to Gibbs Free Energy=         0.091815
 Sum of electronic and zero-point Energies=          -1158.847972
 Sum of electronic and thermal Energies=             -1158.835503
 Sum of electronic and thermal Enthalpies=           -1158.834559
 Sum of electronic and thermal Free Energies=        -1158.887187

                     E (Thermal)             CV                S
                      KCal/Mol        Cal/Mol-Kelvin    Cal/Mol-Kelvin
 Total                   90.047             48.970            110.766
 Electronic               0.000              0.000              0.000
 Translational            0.889              2.981             42.290
 Rotational               0.889              2.981             32.575
 Vibrational             88.270             43.009             35.900
 Vibration     1          0.596              1.976              4.709
 Vibration     2          0.599              1.967              4.072
 Vibration     3          0.608              1.935              3.136
 Vibration     4          0.621              1.892              2.561
 Vibration     5          0.625              1.881              2.447
 Vibration     6          0.640              1.832              2.081
 Vibration     7          0.661              1.768              1.754
 Vibration     8          0.674              1.729              1.598
 Vibration     9          0.692              1.675              1.422
 Vibration    10          0.696              1.664              1.388
 Vibration    11          0.733              1.560              1.133
 Vibration    12          0.764              1.474              0.970
 Vibration    13          0.797              1.390              0.837
 Vibration    14          0.832              1.306              0.724
 Vibration    15          0.834              1.299              0.716
 Vibration    16          0.849              1.265              0.676
 Vibration    17          0.854              1.254              0.663
 Vibration    18          0.895              1.161              0.565
 Vibration    19          0.930              1.087              0.496
 Vibration    20          0.979              0.991              0.417

 Optimization completed.
    -- Stationary point found.
 Normal termination of Gaussian 16 at Sun Feb 11 16:56:06 2024.
