 Q-Chem 5.4, Q-Chem, Inc., Pleasanton, CA (2021)
 Q-Chem 5.4.0 for Intel X86 EM64T Linux

User input:
--------------------------------------------------------------
$molecule
0 1
C                  5.8582800000     -5.2294190000      1.1624730000
C                  6.7774480000     -5.1320140000      0.1218010000
C                  6.5988900000     -4.1640260000     -0.8788280000
C                  4.7625820000     -4.3706110000      1.2145560000
C                  4.5845240000     -3.4057400000      0.2171320000
C                  5.5036350000     -3.3068200000     -0.8251360000
C                  3.7870750000     -4.4878610000      2.3357600000
C                  2.6232710000     -3.5509800000      2.3596720000
C                  2.4502830000     -2.6154830000      1.3917030000
C                  3.4164530000     -2.4802640000      0.2601250000
O                  3.9375960000     -5.3272940000      3.2090250000
O                  3.2564900000     -1.6362350000     -0.6070890000
H                  5.9825790000     -5.9704590000      1.9409810000
H                  5.3526240000     -2.5557180000     -1.5891420000
Br                 8.2500700000     -6.3392050000      0.1158460000
Br                 7.8130780000     -3.9704660000     -2.3328340000
C                  1.6627100000     -3.7020780000      3.5055590000
C                  1.2860600000     -1.6650870000      1.3988220000
H                  1.9881160000     -4.4955770000      4.1752660000
H                  0.6573920000     -3.9390340000      3.1426800000
H                  1.5839000000     -2.7703020000      4.0743910000
H                  0.3371110000     -2.2103560000      1.3896960000
H                  1.3224530000     -1.0091720000      0.5313480000
H                  1.2907890000     -1.0500290000      2.3044450000
$end
$rem
MAX_SCF_CYCLES=200
BASIS  =  6-311++G(d,p)
GUI  =  2
JOB_TYPE  =  SP
METHOD  =  B3LYP
SOLVENT_METHOD = PCM
$end
$pcm
theory = CPCM
$end
$solvent
dielectric 37.219
opticaldielectric 1.43
$end

--------------------------------------------------------------

             Standard Nuclear Orientation (Angstroms)
    I     Atom           X                Y                Z
 ----------------------------------------------------------------
    1      C       5.8582800000    -5.2294190000     1.1624730000
    2      C       6.7774480000    -5.1320140000     0.1218010000
    3      C       6.5988900000    -4.1640260000    -0.8788280000
    4      C       4.7625820000    -4.3706110000     1.2145560000
    5      C       4.5845240000    -3.4057400000     0.2171320000
    6      C       5.5036350000    -3.3068200000    -0.8251360000
    7      C       3.7870750000    -4.4878610000     2.3357600000
    8      C       2.6232710000    -3.5509800000     2.3596720000
    9      C       2.4502830000    -2.6154830000     1.3917030000
   10      C       3.4164530000    -2.4802640000     0.2601250000
   11      O       3.9375960000    -5.3272940000     3.2090250000
   12      O       3.2564900000    -1.6362350000    -0.6070890000
   13      H       5.9825790000    -5.9704590000     1.9409810000
   14      H       5.3526240000    -2.5557180000    -1.5891420000
   15      Br      8.2500700000    -6.3392050000     0.1158460000
   16      Br      7.8130780000    -3.9704660000    -2.3328340000
   17      C       1.6627100000    -3.7020780000     3.5055590000
   18      C       1.2860600000    -1.6650870000     1.3988220000
   19      H       1.9881160000    -4.4955770000     4.1752660000
   20      H       0.6573920000    -3.9390340000     3.1426800000
   21      H       1.5839000000    -2.7703020000     4.0743910000
   22      H       0.3371110000    -2.2103560000     1.3896960000
   23      H       1.3224530000    -1.0091720000     0.5313480000
   24      H       1.2907890000    -1.0500290000     2.3044450000
 ----------------------------------------------------------------

    9   -5761.0023979509      2.02e-06  Convergence criterion met
 Total energy in the final basis set =    -5761.0023979509

                    Orbital Energies (a.u.)
 --------------------------------------------------------------

 Alpha MOs
 -- Occupied --
********-482.8502 -62.5031 -62.5031 -56.3237 -56.3236 -56.3197 -56.3197
-56.3194 -56.3194 -19.1390 -19.1390 -10.2878 -10.2878 -10.2668 -10.2663
-10.2185 -10.2180 -10.2156 -10.2151 -10.2151 -10.2149 -10.1711 -10.1711
 -8.7119  -8.7119  -6.5437  -6.5436  -6.5304  -6.5304  -6.5297  -6.5296
 -2.6545  -2.6544  -2.6508  -2.6507  -2.6504  -2.6502  -2.6398  -2.6397
 -2.6397  -2.6397  -1.0737  -1.0719  -0.9193  -0.8658  -0.8355  -0.8320
 -0.7752  -0.7650  -0.7495  -0.6992  -0.6795  -0.6449  -0.6127  -0.5923
 -0.5533  -0.5160  -0.5148  -0.4818  -0.4690  -0.4680  -0.4639  -0.4620
 -0.4337  -0.4292  -0.4212  -0.4149  -0.4080  -0.4040  -0.3994  -0.3952
 -0.3812  -0.3761  -0.3383  -0.3382  -0.3260  -0.2980  -0.2963  -0.2860
 -0.2792  -0.2785  -0.2658

          Ground-State Mulliken Net Atomic Charges

     Atom                 Charge (a.u.)
  ----------------------------------------
      1 C                    -0.129468
      2 C                     0.056247
      3 C                     0.059318
      4 C                     0.669321
      5 C                     0.663918
      6 C                    -0.132347
      7 C                    -1.417682
      8 C                     1.024872
      9 C                     1.025099
     10 C                    -1.415469
     11 O                    -0.270074
     12 O                    -0.270666
     13 H                     0.236645
     14 H                     0.237188
     15 Br                   -0.196689
     16 Br                   -0.199583
     17 C                    -0.544500
     18 C                    -0.542482
     19 H                     0.198404
     20 H                     0.189079
     21 H                     0.186127
     22 H                     0.185916
     23 H                     0.197628
     24 H                     0.189199
  ----------------------------------------
  Sum of atomic charges =     0.000000

                    Cartesian Multipole Moments
 -----------------------------------------------------------------
    Charge (ESU x 10^10)
                -0.0000
    Dipole Moment (Debye)
         X      -2.4319      Y       0.9131      Z       1.3209
       Tot       2.9143
    Quadrupole Moments (Debye-Ang)
        XX    -131.6736     XY      11.8337     YY    -131.0600
        XZ      -1.8281     YZ       5.2846     ZZ    -121.2553

 Total job time:  51.08s(wall), 341.71s(cpu)
        *  Thank you very much for using Q-Chem.  Have a nice day.  *
