 Gaussian 16, Revision A.03,
 Gaussian 16:  ES64L-G16RevA.03 25-Dec-2016

 ----------------------------------------------------------------
 #P UB3LYP/6-311++G(d,p) SCRF=(PCM,Solvent=n,n-DiMethylFormamide)
 ----------------------------------------------------------------

 ------------------
 Radical PCM in DMF
 ------------------
 Symbolic Z-matrix:
 Charge = -1 Multiplicity = 2

                         Standard orientation:
 ---------------------------------------------------------------------
 Center     Atomic      Atomic             Coordinates (Angstroms)
 Number     Number       Type             X           Y           Z
 ---------------------------------------------------------------------
      1          6           0       -2.536763    1.108039    0.043548
      2          6           0       -3.597553    0.220765    0.042075
      3          6           0       -3.355714   -1.167388    0.012349
      4          6           0       -1.203788    0.646204    0.018365
      5          6           0       -0.960354   -0.754853   -0.012078
      6          6           0       -2.054171   -1.639313   -0.016822
      7          6           0       -0.102349    1.599182   -0.000931
      8          6           0        1.239445    1.044683   -0.012169
      9          6           0        1.469617   -0.322908    0.013004
     10          6           0        0.409895   -1.298154   -0.037365
     11          8           0       -0.268321    2.855794   -0.028781
     12          8           0        0.634423   -2.532263   -0.098595
     13          7           0        2.269889    1.991115   -0.001752
     14         16           0        3.129488   -1.006039    0.047670
     15          1           0       -2.696171    2.180147    0.062402
     16          1           0       -4.617762    0.593190    0.063193
     17          1           0       -4.188540   -1.864396    0.010806
     18          1           0       -1.836904   -2.701094   -0.043414
     19          1           0        1.870391    2.912152   -0.166175
     20          1           0        3.040280    1.774434   -0.622428
     21          1           0        3.689285    0.058589    0.664311
 ---------------------------------------------------------------------

 SCF Done:  E(UB3LYP) =  -989.013336168     A.U. after   21 cycles

 The electronic state is 2-A.
 Alpha  occ. eigenvalues --  -88.85022 -19.08058 -19.07635 -14.31554 -10.22747
 Alpha  occ. eigenvalues --  -10.22232 -10.20912 -10.19082 -10.17415 -10.17363
 Alpha  occ. eigenvalues --  -10.17267 -10.17189 -10.17012 -10.17003  -7.93664
 Alpha  occ. eigenvalues --   -5.90013  -5.89672  -5.89104  -1.00658  -1.00309
 Alpha  occ. eigenvalues --   -0.91256  -0.85796  -0.80529  -0.76369  -0.75096
 Alpha  occ. eigenvalues --   -0.70772  -0.66700  -0.61314  -0.60173  -0.56275
 Alpha  occ. eigenvalues --   -0.54015  -0.50904  -0.47684  -0.47537  -0.45229
 Alpha  occ. eigenvalues --   -0.43560  -0.42590  -0.42028  -0.41443  -0.40318
 Alpha  occ. eigenvalues --   -0.39975  -0.38368  -0.36640  -0.35320  -0.34925
 Alpha  occ. eigenvalues --   -0.33719  -0.32308  -0.28091  -0.26348  -0.25746
 Alpha  occ. eigenvalues --   -0.25276  -0.24207  -0.21132  -0.14936
 Alpha virt. eigenvalues --   -0.03270  -0.01120  -0.00693   0.00346   0.01443
 Alpha virt. eigenvalues --    0.02297   0.02767   0.02879   0.03748   0.04639
 Alpha virt. eigenvalues --    0.04950   0.05440   0.05635   0.05943   0.06503

  Beta  occ. eigenvalues --  -88.85018 -19.07417 -19.07130 -14.31491 -10.22594
  Beta  occ. eigenvalues --  -10.21981 -10.20779 -10.19031 -10.17376 -10.17276
  Beta  occ. eigenvalues --  -10.17249 -10.17123 -10.17017 -10.16976  -7.93661
  Beta  occ. eigenvalues --   -5.90013  -5.89671  -5.89090  -0.99670  -0.99306
  Beta  occ. eigenvalues --   -0.90985  -0.85589  -0.80227  -0.76127  -0.74889
  Beta  occ. eigenvalues --   -0.70518  -0.65897  -0.61127  -0.59908  -0.55991
  Beta  occ. eigenvalues --   -0.53884  -0.50665  -0.47549  -0.47206  -0.45162
  Beta  occ. eigenvalues --   -0.43114  -0.42283  -0.41204  -0.40993  -0.39999
  Beta  occ. eigenvalues --   -0.39572  -0.36402  -0.36027  -0.34990  -0.34688
  Beta  occ. eigenvalues --   -0.33545  -0.30864  -0.27599  -0.24997  -0.24781
  Beta  occ. eigenvalues --   -0.24682  -0.23702  -0.20342
  Beta virt. eigenvalues --   -0.08549  -0.02520  -0.00718   0.00015   0.00362
  Beta virt. eigenvalues --    0.01459   0.02320   0.02787   0.02910   0.03843
  Beta virt. eigenvalues --    0.04714   0.05170   0.05599   0.05922   0.06564

 Mulliken charges and spin densities:
               1          2
     1  C    0.004878   0.060562
     2  C   -0.367835   0.010722
     3  C   -0.412801   0.058268
     4  C    0.343959   0.028567
     5  C    0.734314   0.056807
     6  C    0.088914   0.005856
     7  C   -1.216493   0.148532
     8  C    0.024883   0.088898
     9  C    1.865772   0.019982
    10  C   -1.503988   0.076213
    11  O   -0.499291   0.236412
    12  O   -0.439063   0.184673
    13  N   -0.375695   0.029018
    14  S   -0.574717   0.007033
    15  H    0.160694  -0.003656
    16  H    0.185842  -0.001304
    17  H    0.185059  -0.004310
    18  H    0.159602  -0.000427
    19  H    0.289852  -0.002398
    20  H    0.254369   0.001010
    21  H    0.091745  -0.000458
 Sum of Mulliken charges =  -1.00000   1.00000

 Dipole moment (field-independent basis, Debye):
    X=             -1.2631    Y=              1.8274    Z=             -0.6219  Tot=              2.3068
 Quadrupole moment (field-independent basis, Debye-Ang):
   XX=            -91.1200   YY=           -124.9212   ZZ=            -95.4041
   XY=             13.4623   XZ=             -1.8390   YZ=             -2.4508

 Normal termination of Gaussian 16 at Sun Jan 21 08:33:08 2024.
