 Q-Chem 5.4, Q-Chem, Inc., Pleasanton, CA (2021)
 Q-Chem 5.4.0 for Intel X86 EM64T Linux

User input:
--------------------------------------------------------------
$molecule
-1 2
C                 -1.3533690000     -2.0334760000      1.1592440000
C                 -1.4144770000     -1.9979140000     -0.2829270000
C                 -0.7795380000     -1.0342550000     -1.0211770000
C                  0.0005960000      0.0207520000     -0.4067030000
C                  0.0632210000     -0.0131460000      1.0422860000
C                 -0.5704190000     -0.9753120000      1.7833520000
O                 -1.9355480000     -2.9187640000      1.8570770000
O                  0.5881130000      0.9120620000     -1.0852000000
C                 -0.5296350000     -1.0448390000      3.2841200000
O                  0.2596700000      0.0287380000      3.8250730000
C                  0.4041330000      0.1194430000      5.1640360000
C                 -0.1629680000     -0.7640340000      6.0942470000
C                  1.1874480000      1.1906000000      5.6274300000
C                  1.3967750000      1.3712800000      6.9869440000
C                  0.0581610000     -0.5670760000      7.4591630000
C                  0.8335360000      0.4930840000      7.9186230000
H                 -1.9957050000     -2.7822580000     -0.7606030000
H                 -0.8390500000     -1.0267290000     -2.1062100000
H                  0.6414120000      0.7665830000      1.5251300000
H                 -0.1092580000     -2.0061550000      3.6030710000
H                 -1.5473630000     -0.9922500000      3.6891450000
H                 -0.7693960000     -1.5956500000      5.7633570000
H                  1.6176940000      1.8631280000      4.8947030000
H                  2.0047680000      2.2044380000      7.3247140000
H                 -0.3872940000     -1.2590980000      8.1667510000
H                  0.9984220000      0.6361370000      8.9806210000
$end
$rem
MAX_SCF_CYCLES=200
BASIS  =  6-311++G(d,p)
GUI  =  2
JOB_TYPE  =  SP
METHOD  =  B3LYP
SOLVENT_METHOD = COSMO
$end
$solvent
dielectric 37.219
opticaldielectric 1.43
$end

--------------------------------------------------------------

             Standard Nuclear Orientation (Angstroms)
    I     Atom           X                Y                Z
 ----------------------------------------------------------------
    1      C       2.3806981925    -1.4362730045     0.0001316124
    2      C       3.7789532740    -1.0760804438     0.0004195074
    3      C       4.2014470123     0.2271073023     0.0003566535
    4      C       3.2737255606     1.3400133651    -0.0000011898
    5      C       1.8683034072     0.9802515806    -0.0003422101
    6      C       1.4425802131    -0.3217475068    -0.0002160203
    7      O       1.9733987346    -2.6378325237     0.0001447152
    8      O       3.6602731507     2.5444007099    -0.0000691725
    9      C      -0.0024200094    -0.7349983310    -0.0004197424
   10      O      -0.8641456308     0.4163613252    -0.0003761899
   11      C      -2.2008145604     0.2286513880    -0.0002246990
   12      C      -2.8357398326    -1.0220674240    -0.0003268277
   13      C      -2.9860635833     1.3944462070     0.0001204277
   14      C      -4.3707681045     1.3088035840     0.0004392945
   15      C      -4.2307741711    -1.0896341801    -0.0000054625
   16      C      -5.0087758405     0.0640392410     0.0003789587
   17      H       4.4890361051    -1.8988672667     0.0006958765
   18      H       5.2594018017     0.4753542351     0.0005884837
   19      H       1.1546193044     1.7963859758    -0.0006951797
   20      H      -0.2152768805    -1.3526734026     0.8803438313
   21      H      -0.2150985977    -1.3525049351    -0.8813479730
   22      H      -2.2543104698    -1.9335322337    -0.0006085943
   23      H      -2.4786823943     2.3519735990     0.0002225656
   24      H      -4.9594113576     2.2206124030     0.0007742915
   25      H      -4.7075481041    -2.0646685361    -0.0000739697
   26      H      -6.0910487897    -0.0005865967     0.0006440307
 ----------------------------------------------------------------

   11    -727.3144940411      4.16e-06  Convergence criterion met
 Total energy in the final basis set =     -727.3144940411
    4    -727.4030179491      7.37e-06  Convergence criterion met
 Total energy in the final basis set =     -727.4030179491

                    Orbital Energies (a.u.)
 --------------------------------------------------------------

 Alpha MOs
 -- Occupied --
-19.1579 -19.0851 -19.0845 -10.2393 -10.2278 -10.2254 -10.2248 -10.1798
-10.1779 -10.1775 -10.1742 -10.1720 -10.1695 -10.1666 -10.1657 -10.1643
 -1.0760  -1.0058  -1.0035  -0.8577  -0.8307  -0.7792  -0.7524  -0.7394
 -0.7045  -0.6738  -0.6181  -0.6100  -0.5807  -0.5632  -0.5393  -0.4947
 -0.4838  -0.4803  -0.4686  -0.4650  -0.4473  -0.4389  -0.4239  -0.4151
 -0.4134  -0.4089  -0.3892  -0.3861  -0.3759  -0.3681  -0.3645  -0.3605
 -0.3312  -0.3304  -0.2877  -0.2625  -0.2575  -0.2517  -0.2452  -0.2297
 -0.1690

 Beta MOs
 -- Occupied --
-19.1579 -19.0780 -19.0778 -10.2392 -10.2279 -10.2237 -10.2235 -10.1788
-10.1779 -10.1775 -10.1742 -10.1720 -10.1695 -10.1656 -10.1644 -10.1633
 -1.0760  -0.9938  -0.9911  -0.8576  -0.8250  -0.7771  -0.7523  -0.7383
 -0.7003  -0.6658  -0.6168  -0.6088  -0.5786  -0.5596  -0.5386  -0.4942
 -0.4817  -0.4791  -0.4663  -0.4624  -0.4463  -0.4363  -0.4237  -0.4141
 -0.4032  -0.3997  -0.3830  -0.3787  -0.3674  -0.3636  -0.3583  -0.3510
 -0.3302  -0.3291  -0.2620  -0.2550  -0.2497  -0.2452  -0.2391  -0.2296

          Ground-State Mulliken Net Atomic Charges

     Atom                 Charge (a.u.)    Spin (a.u.)
  --------------------------------------------------------
      1 C                    -1.072050       0.035585
      2 C                     0.165655       0.122867
      3 C                     0.042680       0.097754
      4 C                    -0.374734       0.153174
      5 C                    -0.457796       0.032446
      6 C                     0.638311       0.089821
      7 O                    -0.513687       0.242867
      8 O                    -0.539209       0.240958
      9 C                    -0.120144      -0.001436
     10 O                    -0.135215       0.000038
     11 C                     0.444162      -0.002555
     12 C                     0.004091      -0.000679
     13 C                    -0.142615       0.000735
     14 C                    -0.285733       0.000508
     15 C                    -0.347669      -0.000028
     16 C                    -0.416864      -0.000282
     17 H                     0.204572      -0.007436
     18 H                     0.209537      -0.007925
     19 H                     0.193200      -0.007784
     20 H                     0.240969       0.005774
     21 H                     0.241191       0.005776
     22 H                     0.188257      -0.000187
     23 H                     0.197026       0.000024
     24 H                     0.219290      -0.000015
     25 H                     0.229683      -0.000009
     26 H                     0.187092       0.000010
  --------------------------------------------------------
  Sum of atomic charges =    -1.000000

                    Cartesian Multipole Moments
 -----------------------------------------------------------------
    Charge (ESU x 10^10)
                -4.8032
    Dipole Moment (Debye)
         X     -12.7926      Y      -1.7318      Z      -0.0001
       Tot      12.9093
    Quadrupole Moments (Debye-Ang)
        XX    -131.2923     XY     -13.1455     YY    -128.5783
        XZ      -0.0035     YZ       0.0025     ZZ    -100.3684

 Total job time:  63.85s(wall), 467.37s(cpu)
        *  Thank you very much for using Q-Chem.  Have a nice day.  *
