 Gaussian 16, Revision A.03,
 Gaussian 16:  ES64L-G16RevA.03 25-Dec-2016

 --------------------------------------
 #P UB3LYP/6-311++G(d,p) nosym opt freq
 --------------------------------------

 --------
 Oxidized
 --------
 Symbolic Z-matrix:
 Charge =  0 Multiplicity = 1

 SCF Done:  E(UB3LYP) =  -5891.40514025     A.U. after   17 cycles
 SCF Done:  E(UB3LYP) =  -5891.40017417     A.U. after   14 cycles
 SCF Done:  E(UB3LYP) =  -5891.40725835     A.U. after   13 cycles
 SCF Done:  E(UB3LYP) =  -5891.40663235     A.U. after   14 cycles
 SCF Done:  E(UB3LYP) =  -5891.40747729     A.U. after   13 cycles
 SCF Done:  E(UB3LYP) =  -5891.40751608     A.U. after   12 cycles
 SCF Done:  E(UB3LYP) =  -5891.40752620     A.U. after   11 cycles
 SCF Done:  E(UB3LYP) =  -5891.40753308     A.U. after   11 cycles
 SCF Done:  E(UB3LYP) =  -5891.40753831     A.U. after   11 cycles
 SCF Done:  E(UB3LYP) =  -5891.40753996     A.U. after   11 cycles
 SCF Done:  E(UB3LYP) =  -5891.40754186     A.U. after   11 cycles
 SCF Done:  E(UB3LYP) =  -5891.40754180     A.U. after   12 cycles
 SCF Done:  E(UB3LYP) =  -5891.40759945     A.U. after   13 cycles
 SCF Done:  E(UB3LYP) =  -5891.40760112     A.U. after   11 cycles
 SCF Done:  E(UB3LYP) =  -5891.40760420     A.U. after   12 cycles
 SCF Done:  E(UB3LYP) =  -5891.40760550     A.U. after   11 cycles
 SCF Done:  E(UB3LYP) =  -5891.40760602     A.U. after   11 cycles
 SCF Done:  E(UB3LYP) =  -5891.40760578     A.U. after   11 cycles
 SCF Done:  E(UB3LYP) =  -5891.40760586     A.U. after    9 cycles
 Optimization completed.
    -- Stationary point found.
 Normal termination of Gaussian 16 at Fri Dec 22 06:02:51 2023.

 ----------------------------------------------------------------------
 #P Geom=AllCheck Guess=TCheck SCRF=Check GenChk UB3LYP/6-311++G(d,p) F
 req
 ----------------------------------------------------------------------

 Structure from the checkpoint file:  "159.chk"
 --------
 Oxidized
 --------
 Charge =  0 Multiplicity = 1

                          Input orientation:
 ---------------------------------------------------------------------
 Center     Atomic      Atomic             Coordinates (Angstroms)
 Number     Number       Type             X           Y           Z
 ---------------------------------------------------------------------
      1          7           0       -2.840880    1.553425    1.139906
      2          6           0       -2.480526    0.545707    0.318910
      3          6           0       -3.465046   -0.170046   -0.413088
      4         35           0       -5.310403    0.317910   -0.238995
      5          6           0       -3.142402   -1.205355   -1.252099
      6          6           0       -1.810260   -1.613015   -1.406098
      7         35           0       -1.589203   -3.064581   -2.634708
      8          6           0       -0.787106   -0.956785   -0.718304
      9          6           0        0.645358   -1.397342   -0.836851
     10          8           0        0.959374   -2.432431   -1.395606
     11          6           0        1.697019   -0.531639   -0.238847
     12          6           0        3.042368   -0.845394   -0.461957
     13          6           0        4.040677   -0.058448    0.096888
     14          6           0        3.704079    1.040852    0.893713
     15          6           0        2.370868    1.350920    1.127253
     16          6           0        1.360192    0.567743    0.557141
     17          6           0       -0.059896    0.911238    0.820105
     18          8           0       -0.312056    1.844413    1.589477
     19          6           0       -1.119579    0.144232    0.134042
     20          1           0       -2.106941    2.056344    1.624990
     21          1           0       -3.808772    1.822582    1.201617
     22          1           0       -3.920682   -1.718897   -1.798963
     23          1           0        3.278377   -1.706579   -1.074098
     24          1           0        5.082379   -0.298722   -0.082803
     25          1           0        4.485249    1.651608    1.331843
     26          1           0        2.087809    2.192261    1.746531
 ---------------------------------------------------------------------

 SCF Done:  E(UB3LYP) =  -5891.40760586     A.U. after    1 cycles

 Alpha  occ. eigenvalues -- -482.85814-482.83435 -62.51097 -62.48706 -56.33132
 Alpha  occ. eigenvalues --  -56.32742 -56.32735 -56.30763 -56.30363 -56.30314
 Alpha  occ. eigenvalues --  -19.13174 -19.12737 -14.34875 -10.28618 -10.28335
 Alpha  occ. eigenvalues --  -10.26989 -10.26073 -10.25448 -10.22851 -10.22155
 Alpha  occ. eigenvalues --  -10.22122 -10.21076 -10.20968 -10.20381 -10.20325
 Alpha  occ. eigenvalues --  -10.20059 -10.20021  -8.72070  -8.69676  -6.55207
 Alpha  occ. eigenvalues --   -6.53908  -6.53905  -6.52877  -6.51547  -6.51407
 Alpha  occ. eigenvalues --   -2.66301  -2.65927  -2.65920  -2.64892  -2.64889
 Alpha  occ. eigenvalues --   -2.63959  -2.63606  -2.63501  -2.62441  -2.62439
 Alpha  occ. eigenvalues --   -1.06696  -1.06445  -0.96692  -0.90139  -0.89034
 Alpha  occ. eigenvalues --   -0.84805  -0.82564  -0.79471  -0.78158  -0.76852
 Alpha  occ. eigenvalues --   -0.74638  -0.69520  -0.67178  -0.65724  -0.61910
 Alpha  occ. eigenvalues --   -0.59602  -0.58902  -0.55894  -0.54823  -0.51991
 Alpha  occ. eigenvalues --   -0.50729  -0.48849  -0.48677  -0.47755  -0.46561
 Alpha  occ. eigenvalues --   -0.45467  -0.45357  -0.45163  -0.44008  -0.42779
 Alpha  occ. eigenvalues --   -0.42018  -0.41179  -0.39743  -0.38602  -0.38131
 Alpha  occ. eigenvalues --   -0.37270  -0.36633  -0.34167  -0.32306  -0.30864
 Alpha  occ. eigenvalues --   -0.30590  -0.28740  -0.28625  -0.28107  -0.27918
 Alpha  occ. eigenvalues --   -0.26036  -0.23446
 Alpha virt. eigenvalues --   -0.12078  -0.07399  -0.04819  -0.04473  -0.02816
 Alpha virt. eigenvalues --   -0.01476  -0.00982  -0.00594   0.00807   0.01380
 Alpha virt. eigenvalues --    0.01501   0.02147   0.03185   0.03374   0.03697

  Beta  occ. eigenvalues -- -482.85814-482.83435 -62.51097 -62.48706 -56.33132
  Beta  occ. eigenvalues --  -56.32742 -56.32735 -56.30763 -56.30363 -56.30314
  Beta  occ. eigenvalues --  -19.13174 -19.12737 -14.34875 -10.28618 -10.28335
  Beta  occ. eigenvalues --  -10.26989 -10.26073 -10.25448 -10.22851 -10.22155
  Beta  occ. eigenvalues --  -10.22122 -10.21076 -10.20968 -10.20381 -10.20325
  Beta  occ. eigenvalues --  -10.20059 -10.20021  -8.72070  -8.69676  -6.55207
  Beta  occ. eigenvalues --   -6.53908  -6.53905  -6.52877  -6.51547  -6.51407
  Beta  occ. eigenvalues --   -2.66301  -2.65927  -2.65920  -2.64892  -2.64889
  Beta  occ. eigenvalues --   -2.63959  -2.63606  -2.63501  -2.62441  -2.62439
  Beta  occ. eigenvalues --   -1.06696  -1.06445  -0.96692  -0.90139  -0.89034
  Beta  occ. eigenvalues --   -0.84805  -0.82564  -0.79471  -0.78158  -0.76852
  Beta  occ. eigenvalues --   -0.74638  -0.69520  -0.67178  -0.65724  -0.61910
  Beta  occ. eigenvalues --   -0.59602  -0.58902  -0.55894  -0.54823  -0.51991
  Beta  occ. eigenvalues --   -0.50729  -0.48849  -0.48677  -0.47755  -0.46561
  Beta  occ. eigenvalues --   -0.45467  -0.45357  -0.45163  -0.44008  -0.42779
  Beta  occ. eigenvalues --   -0.42018  -0.41179  -0.39743  -0.38602  -0.38131
  Beta  occ. eigenvalues --   -0.37270  -0.36633  -0.34167  -0.32306  -0.30864
  Beta  occ. eigenvalues --   -0.30590  -0.28740  -0.28625  -0.28107  -0.27918
  Beta  occ. eigenvalues --   -0.26036  -0.23446
  Beta virt. eigenvalues --   -0.12078  -0.07399  -0.04819  -0.04473  -0.02816
  Beta virt. eigenvalues --   -0.01476  -0.00982  -0.00594   0.00807   0.01380
  Beta virt. eigenvalues --    0.01501   0.02147   0.03185   0.03374   0.03697

 Mulliken charges and spin densities:
               1          2
     1  N   -0.300708   0.000000
     2  C   -0.409895   0.000000
     3  C    0.223573   0.000000
     4  Br  -0.151033  -0.000000
     5  C   -0.003866  -0.000000
     6  C    0.180410   0.000000
     7  Br  -0.117150   0.000000
     8  C    0.482362   0.000000
     9  C   -1.304424   0.000000
    10  O   -0.127190   0.000000
    11  C    0.318846  -0.000000
    12  C    0.138060   0.000000
    13  C   -0.245351  -0.000000
    14  C   -0.451321  -0.000000
    15  C    0.271533   0.000000
    16  C    0.018049   0.000000
    17  C   -0.425449   0.000000
    18  O   -0.249555   0.000000
    19  C    0.548831  -0.000000
    20  H    0.342402   0.000000
    21  H    0.245769  -0.000000
    22  H    0.291565   0.000000
    23  H    0.186319  -0.000000
    24  H    0.177291  -0.000000
    25  H    0.175291  -0.000000
    26  H    0.185641  -0.000000
 Sum of Mulliken charges =  -0.00000   0.00000

 Dipole moment (field-independent basis, Debye):
    X=              0.2621    Y=              2.2885    Z=              1.1299  Tot=              2.5657
 Quadrupole moment (field-independent basis, Debye-Ang):
   XX=           -112.6845   YY=           -139.9659   ZZ=           -137.7047
   XY=             -0.1910   XZ=              0.5030   YZ=             -1.4472

  Exact polarizability: 337.649  -0.867 202.911  15.776  74.854 167.284
 Approx polarizability: 492.585 -18.827 368.119   9.575 146.948 292.118

                      1                      2                      3
                      A                      A                      A
 Frequencies --     16.6385                33.0260                79.9015
 Red. masses --      9.4421                10.8991                 8.8036
 Frc consts  --      0.0015                 0.0070                 0.0331
 IR Inten    --      2.8066                 0.0326                 0.0501

                      4                      5                      6
                      A                      A                      A
 Frequencies --    113.6108               119.3688               132.0454
 Red. masses --      5.4373                 8.5277                18.6004
 Frc consts  --      0.0413                 0.0716                 0.1911
 IR Inten    --      0.1788                 0.7040                 0.0172

                      7                      8                      9
                      A                      A                      A
 Frequencies --    140.3986               174.7683               218.0207
 Red. masses --     15.2644                 6.0457                14.5303
 Frc consts  --      0.1773                 0.1088                 0.4069
 IR Inten    --      0.3665                 1.0613                 0.5624

                     10                     11                     12
                      A                      A                      A
 Frequencies --    242.2679               259.2822               296.5202
 Red. masses --      9.4717                 4.2287                 5.8580
 Frc consts  --      0.3275                 0.1675                 0.3035
 IR Inten    --      1.7719                 6.9891                10.9277

                     13                     14                     15
                      A                      A                      A
 Frequencies --    299.7254               341.5004               357.6187
 Red. masses --      1.5350                 4.5736                 5.9383
 Frc consts  --      0.0812                 0.3143                 0.4475
 IR Inten    --    110.8966                17.8581                 5.9453

                     16                     17                     18
                      A                      A                      A
 Frequencies --    392.9883               417.0752               427.7287
 Red. masses --      7.5405                 6.7708                 3.9145
 Frc consts  --      0.6861                 0.6939                 0.4219
 IR Inten    --      1.3564                 5.8288                 2.8741

                     19                     20                     21
                      A                      A                      A
 Frequencies --    437.2798               454.6771               485.7798
 Red. masses --      5.6396                 9.9045                 8.5212
 Frc consts  --      0.6354                 1.2064                 1.1848
 IR Inten    --      4.2309                19.0630                 1.0047

                     22                     23                     24
                      A                      A                      A
 Frequencies --    490.4265               525.2734               584.1965
 Red. masses --      4.3286                 5.4254                 6.7231
 Frc consts  --      0.6134                 0.8820                 1.3519
 IR Inten    --      8.0526                 0.1554                 6.9188

                     25                     26                     27
                      A                      A                      A
 Frequencies --    625.2464               666.5017               672.0574
 Red. masses --      6.0365                 3.4339                 4.5869
 Frc consts  --      1.3904                 0.8988                 1.2206
 IR Inten    --      0.5498                 3.9064                 9.2155

                     28                     29                     30
                      A                      A                      A
 Frequencies --    697.3923               705.4015               721.7439
 Red. masses --      1.3299                 9.0547                 5.7900
 Frc consts  --      0.3811                 2.6546                 1.7770
 IR Inten    --      9.3394                51.5445                 5.8718

                     31                     32                     33
                      A                      A                      A
 Frequencies --    728.9677               747.3239               803.7700
 Red. masses --      6.4520                 2.2356                 6.2583
 Frc consts  --      2.0200                 0.7356                 2.3821
 IR Inten    --      5.9109                65.8833                 0.4314

                     34                     35                     36
                      A                      A                      A
 Frequencies --    813.1728               814.9227               904.3808
 Red. masses --      4.8169                 2.6646                 7.0094
 Frc consts  --      1.8767                 1.0426                 3.3778
 IR Inten    --     25.9195                16.0291                17.6974

                     37                     38                     39
                      A                      A                      A
 Frequencies --    908.5858               914.5037               949.6232
 Red. masses --      1.3533                 1.3994                 6.6741
 Frc consts  --      0.6582                 0.6895                 3.5461
 IR Inten    --      9.8251                 0.4625                 0.1799

                     40                     41                     42
                      A                      A                      A
 Frequencies --   1002.6314              1017.9843              1024.4746
 Red. masses --      1.3791                 1.3254                 3.7671
 Frc consts  --      0.8168                 0.8092                 2.3295
 IR Inten    --      1.6203                 0.0353               154.2456

                     43                     44                     45
                      A                      A                      A
 Frequencies --   1059.3516              1102.8132              1116.4857
 Red. masses --      1.8979                 2.5160                 2.3306
 Frc consts  --      1.2549                 1.8028                 1.7117
 IR Inten    --      5.9023                50.4497                 3.5587

                     46                     47                     48
                      A                      A                      A
 Frequencies --   1156.3956              1184.1711              1196.5120
 Red. masses --      3.4353                 1.1593                 2.2188
 Frc consts  --      2.7066                 0.9578                 1.8715
 IR Inten    --    143.1222                34.6979                 8.5378

                     49                     50                     51
                      A                      A                      A
 Frequencies --   1259.4681              1273.1668              1304.4061
 Red. masses --      1.7834                 4.6770                 1.9806
 Frc consts  --      1.6667                 4.4667                 1.9855
 IR Inten    --     16.9309               610.7616                30.7929

                     52                     53                     54
                      A                      A                      A
 Frequencies --   1343.9542              1355.5322              1363.6212
 Red. masses --      4.3727                 4.7185                 6.9040
 Frc consts  --      4.6534                 5.1083                 7.5637
 IR Inten    --     65.3011                 2.7508                 2.4359

                     55                     56                     57
                      A                      A                      A
 Frequencies --   1392.7571              1441.0107              1482.0110
 Red. masses --      5.3320                 3.2387                 2.4432
 Frc consts  --      6.0938                 3.9623                 3.1616
 IR Inten    --    151.0062                 5.0255                 3.2663

                     58                     59                     60
                      A                      A                      A
 Frequencies --   1511.0399              1543.0045              1560.1432
 Red. masses --      2.5929                 5.6539                 3.0357
 Frc consts  --      3.4881                 7.9311                 4.3535
 IR Inten    --      1.7616               129.1393               114.6065

                     61                     62                     63
                      A                      A                      A
 Frequencies --   1618.2848              1625.4330              1629.0621
 Red. masses --      7.1614                 2.4479                 5.4920
 Frc consts  --     11.0499                 3.8105                 8.5873
 IR Inten    --     82.3600               205.7201                37.8230

                     64                     65                     66
                      A                      A                      A
 Frequencies --   1672.3404              1726.6889              3170.9295
 Red. masses --      7.8604                12.5392                 1.0872
 Frc consts  --     12.9523                22.0267                 6.4406
 IR Inten    --    120.8807               161.6784                 3.3400

                     67                     68                     69
                      A                      A                      A
 Frequencies --   3185.5919              3204.3594              3207.5039
 Red. masses --      1.0924                 1.0928                 1.0939
 Frc consts  --      6.5316                 6.6111                 6.6306
 IR Inten    --     13.1952                 1.9929                 9.0734

                     70                     71                     72
                      A                      A                      A
 Frequencies --   3214.8492              3489.6754              3676.5124
 Red. masses --      1.0924                 1.0534                 1.0976
 Frc consts  --      6.6518                 7.5585                 8.7413
 IR Inten    --      1.3053                90.3396               131.7083

 - Thermochemistry -
 -------------------
 Temperature   298.150 Kelvin.  Pressure   1.00000 Atm.
 Atom     1 has atomic number  7 and mass  14.00307

 Molecular mass:   378.88435 amu.
 Principal axes and moments of inertia in atomic units:
                           1         2         3
     Eigenvalues --  5621.11918********************
           X            0.99592  -0.06218  -0.06543
           Y            0.00808   0.78339  -0.62148
           Z            0.08990   0.61841   0.78070
 This molecule is an asymmetric top.
 Rotational symmetry number  1.
 Warning -- assumption of classical behavior for rotation
           may cause significant error
 Rotational temperatures (Kelvin)      0.01541     0.00821     0.00536
 Rotational constants (GHZ):           0.32106     0.17098     0.11179
 Zero-point vibrational energy     459520.8 (Joules/Mol)
                                  109.82811 (Kcal/Mol)
 Warning -- explicit consideration of  24 degrees of freedom as
           vibrations may cause significant error
 Vibrational temperatures:     23.94    47.52   114.96   163.46   171.75
          (Kelvin)            189.98   202.00   251.45   313.68   348.57
                              373.05   426.63   431.24   491.34   514.53
                              565.42   600.08   615.41   629.15   654.18
                              698.93   705.61   755.75   840.53   899.59
                              958.95   966.94  1003.39  1014.92  1038.43
                             1048.82  1075.23  1156.45  1169.97  1172.49
                             1301.20  1307.25  1315.77  1366.30  1442.56
                             1464.65  1473.99  1524.17  1586.70  1606.37
                             1663.80  1703.76  1721.51  1812.09  1831.80
                             1876.75  1933.65  1950.31  1961.95  2003.87
                             2073.29  2132.28  2174.05  2220.04  2244.70
                             2328.35  2338.64  2343.86  2406.12  2484.32
                             4562.26  4583.36  4610.36  4614.88  4625.45
                             5020.86  5289.68

 Zero-point correction=                           0.175022 (Hartree/Particle)
 Thermal correction to Energy=                    0.190786
 Thermal correction to Enthalpy=                  0.191731
 Thermal correction to Gibbs Free Energy=         0.129116
 Sum of electronic and zero-point Energies=          -5891.232584
 Sum of electronic and thermal Energies=             -5891.216819
 Sum of electronic and thermal Enthalpies=           -5891.215875
 Sum of electronic and thermal Free Energies=        -5891.278490

                     E (Thermal)             CV                S
                      KCal/Mol        Cal/Mol-Kelvin    Cal/Mol-Kelvin
 Total                  119.720             59.854            131.784
 Electronic               0.000              0.000              0.000
 Translational            0.889              2.981             43.689
 Rotational               0.889              2.981             35.214
 Vibrational            117.943             53.892             52.881
 Vibration     1          0.593              1.986              7.000
 Vibration     2          0.594              1.983              5.639
 Vibration     3          0.600              1.963              3.893
 Vibration     4          0.607              1.938              3.206
 Vibration     5          0.609              1.933              3.111
 Vibration     6          0.612              1.921              2.916
 Vibration     7          0.615              1.913              2.798
 Vibration     8          0.627              1.873              2.384
 Vibration     9          0.646              1.814              1.975
 Vibration    10          0.658              1.776              1.786
 Vibration    11          0.668              1.747              1.667
 Vibration    12          0.690              1.680              1.436
 Vibration    13          0.692              1.674              1.418
 Vibration    14          0.721              1.593              1.205
 Vibration    15          0.733              1.560              1.132
 Vibration    16          0.760              1.485              0.989
 Vibration    17          0.780              1.433              0.902
 Vibration    18          0.789              1.410              0.866
 Vibration    19          0.798              1.389              0.835
 Vibration    20          0.813              1.351              0.782
 Vibration    21          0.842              1.282              0.695
 Vibration    22          0.846              1.271              0.682
 Vibration    23          0.880              1.194              0.598
 Vibration    24          0.941              1.066              0.478

 Optimization completed.
    -- Stationary point found.
 Normal termination of Gaussian 16 at Fri Dec 22 07:16:45 2023.
