 Q-Chem 5.4, Q-Chem, Inc., Pleasanton, CA (2021)
 Q-Chem 5.4.0 for Intel X86 EM64T Linux

User input:
--------------------------------------------------------------
$molecule
0 1
C                 -4.5594670000      0.8903610000      0.3457680000
C                 -3.2154080000      0.2413320000      0.1780080000
C                 -3.0766070000     -1.1084240000     -0.0574780000
C                 -1.8137330000     -1.7181430000     -0.2149830000
O                 -1.7957290000     -3.0376070000     -0.4401450000
C                 -0.6502600000     -0.9345990000     -0.1313120000
C                  0.6563780000     -1.5468030000     -0.2911660000
O                  0.7596740000     -2.7892650000     -0.5069430000
C                  1.8495400000     -0.7155070000     -0.2005200000
C                  3.1220110000     -1.2934660000     -0.3528640000
O                  3.3168340000     -2.5980810000     -0.5829160000
C                  4.2694940000     -0.4743290000     -0.2623810000
C                  4.1576740000      0.8733900000     -0.0285670000
C                  2.8919810000      1.4804840000      0.1284570000
O                  2.8700110000      2.8001910000      0.3537180000
C                  1.7322330000      0.6885980000      0.0432250000
C                  0.4202540000      1.2999690000      0.2031680000
O                  0.3190030000      2.5425430000      0.4187820000
C                 -0.7716750000      0.4687850000      0.1125680000
C                 -2.0428250000      1.0459170000      0.2648650000
O                 -2.2266980000      2.3529520000      0.4949570000
H                 -4.7084690000      1.6725600000     -0.4037990000
H                 -4.6349800000      1.3787550000      1.3212990000
H                 -5.3612630000      0.1570120000      0.2550300000
H                 -3.9503350000     -1.7460830000     -0.1287200000
H                 -0.8490360000     -3.3050550000     -0.5259820000
H                  2.4262860000     -3.0233010000     -0.6173890000
H                  5.2382600000     -0.9438000000     -0.3833390000
H                  5.0349120000      1.5050650000      0.0415250000
H                  1.9232220000      3.0653840000      0.4391710000
H                 -1.3312810000      2.7711600000      0.5279620000
$end

$rem
BASIS  =  6-311++G(d,p)
GUI  =  2
JOB_TYPE  =  SP
METHOD  =  B3LYP
SCF_CONVERGENCE  = 8
SOLVENT_METHOD = sm12
$end

$smx
solvent dimethylformamide
charges CM5
$end

--------------------------------------------------------------

             Standard Nuclear Orientation (Angstroms)
    I     Atom           X                Y                Z
 ----------------------------------------------------------------
    1      C      -4.5594670000     0.8903610000     0.3457680000
    2      C      -3.2154080000     0.2413320000     0.1780080000
    3      C      -3.0766070000    -1.1084240000    -0.0574780000
    4      C      -1.8137330000    -1.7181430000    -0.2149830000
    5      O      -1.7957290000    -3.0376070000    -0.4401450000
    6      C      -0.6502600000    -0.9345990000    -0.1313120000
    7      C       0.6563780000    -1.5468030000    -0.2911660000
    8      O       0.7596740000    -2.7892650000    -0.5069430000
    9      C       1.8495400000    -0.7155070000    -0.2005200000
   10      C       3.1220110000    -1.2934660000    -0.3528640000
   11      O       3.3168340000    -2.5980810000    -0.5829160000
   12      C       4.2694940000    -0.4743290000    -0.2623810000
   13      C       4.1576740000     0.8733900000    -0.0285670000
   14      C       2.8919810000     1.4804840000     0.1284570000
   15      O       2.8700110000     2.8001910000     0.3537180000
   16      C       1.7322330000     0.6885980000     0.0432250000
   17      C       0.4202540000     1.2999690000     0.2031680000
   18      O       0.3190030000     2.5425430000     0.4187820000
   19      C      -0.7716750000     0.4687850000     0.1125680000
   20      C      -2.0428250000     1.0459170000     0.2648650000
   21      O      -2.2266980000     2.3529520000     0.4949570000
   22      H      -4.7084690000     1.6725600000    -0.4037990000
   23      H      -4.6349800000     1.3787550000     1.3212990000
   24      H      -5.3612630000     0.1570120000     0.2550300000
   25      H      -3.9503350000    -1.7460830000    -0.1287200000
   26      H      -0.8490360000    -3.3050550000    -0.5259820000
   27      H       2.4262860000    -3.0233010000    -0.6173890000
   28      H       5.2382600000    -0.9438000000    -0.3833390000
   29      H       5.0349120000     1.5050650000     0.0415250000
   30      H       1.9232220000     3.0653840000     0.4391710000
   31      H      -1.3312810000     2.7711600000     0.5279620000
 ----------------------------------------------------------------

   15   -1029.3166707612      4.24e-09  Convergence criterion met
 Total energy in the final basis set =    -1029.3447950537

                    Orbital Energies (a.u.)
 --------------------------------------------------------------

 Alpha MOs
 -- Occupied --
-19.1663 -19.1659 -19.1656 -19.1652 -19.1465 -19.1444 -10.2940 -10.2922
-10.2710 -10.2704 -10.2702 -10.2694 -10.2162 -10.2154 -10.2147 -10.2144
-10.2118 -10.2064 -10.2057 -10.2012 -10.1745  -1.1003  -1.0980  -1.0882
 -1.0868  -1.0585  -1.0567  -0.8994  -0.8809  -0.8325  -0.7953  -0.7802
 -0.7654  -0.7302  -0.7024  -0.6836  -0.6596  -0.6393  -0.6294  -0.5888
 -0.5642  -0.5584  -0.5521  -0.5488  -0.5453  -0.5033  -0.4889  -0.4821
 -0.4769  -0.4734  -0.4658  -0.4545  -0.4458  -0.4418  -0.4387  -0.4358
 -0.4275  -0.4270  -0.4181  -0.4028  -0.3969  -0.3957  -0.3941  -0.3898
 -0.3802  -0.3783  -0.3409  -0.3311  -0.3084  -0.2970  -0.2894  -0.2810
 -0.2485  -0.2275

          Ground-State Mulliken Net Atomic Charges

     Atom                 Charge (a.u.)
  ----------------------------------------
      1 C                     0.665626
      2 C                     1.666138
      3 C                    -0.455490
      4 C                    -0.628860
      5 O                    -0.336219
      6 C                     0.149626
      7 C                    -0.847689
      8 O                    -0.411942
      9 C                     0.101994
     10 C                    -0.768445
     11 O                    -0.341155
     12 C                     0.712745
     13 C                     0.648882
     14 C                    -0.646219
     15 O                    -0.340744
     16 C                     0.229568
     17 C                    -0.673930
     18 O                    -0.410698
     19 C                    -0.373303
     20 C                    -0.532722
     21 O                    -0.320753
     22 H                     0.200575
     23 H                     0.200465
     24 H                     0.251538
     25 H                     0.236562
     26 H                     0.345409
     27 H                     0.345210
     28 H                     0.308212
     29 H                     0.308386
     30 H                     0.345934
     31 H                     0.371297
  ----------------------------------------
  Sum of atomic charges =     0.000000

                    Cartesian Multipole Moments
 -----------------------------------------------------------------
    Charge (ESU x 10^10)
                 0.0000
    Dipole Moment (Debye)
         X      -1.0656      Y       0.5993      Z       0.1480
       Tot       1.2315
    Quadrupole Moments (Debye-Ang)
        XX    -101.9854     XY       0.5174     YY    -135.5260
        XZ      -0.7491     YZ      -2.3668     ZZ    -122.0978

 Total job time:  869.56s(wall), 6663.92s(cpu)
        *  Thank you very much for using Q-Chem.  Have a nice day.  *
