 Q-Chem 5.4, Q-Chem, Inc., Pleasanton, CA (2021)
 Q-Chem 5.4.0 for Intel X86 EM64T Linux

User input:
--------------------------------------------------------------
$molecule
-1 2
C                 -0.9703480000      3.9908370000     -0.1174870000
C                 -2.2149470000      3.3922560000     -0.1896520000
C                 -2.3216410000      1.9870310000     -0.2068890000
C                  0.2063400000      3.2145970000     -0.0574410000
C                  0.0980500000      1.7964640000     -0.0753200000
C                 -1.1775850000      1.2087000000     -0.1528800000
C                  1.5077700000      3.8665530000     -0.0032190000
C                  2.6692440000      2.9985320000      0.0710980000
C                  2.5528670000      1.6168610000      0.1079380000
C                  1.2906930000      0.9320930000     -0.0131560000
O                  1.6590220000      5.1248260000     -0.0388340000
O                  1.2072530000     -0.3200170000     -0.0625930000
N                  3.8985250000      3.6620400000      0.1503620000
S                  3.9872940000      0.5464660000      0.2483440000
H                 -0.8612180000      5.0693320000     -0.1064990000
H                 -3.1109810000      4.0047540000     -0.2337250000
H                 -3.2988520000      1.5166830000     -0.2639320000
H                 -1.2277270000      0.1258550000     -0.1678220000
H                  3.7498120000      4.6507570000     -0.0374280000
H                  4.6293350000      3.2537820000     -0.4196680000
H                  4.7522460000      1.4487600000      0.9023820000
$end
$rem
MAX_SCF_CYCLES=200
BASIS  =  6-311++G(d,p)
GUI  =  2
JOB_TYPE  =  SP
METHOD  =  B3LYP
SOLVENT_METHOD = COSMO
$end
$solvent
dielectric 37.219
opticaldielectric 1.43
$end

--------------------------------------------------------------

             Standard Nuclear Orientation (Angstroms)
    I     Atom           X                Y                Z
 ----------------------------------------------------------------
    1      C       2.5367629347    -1.1080393724     0.0435479740
    2      C       3.5975530568    -0.2207649963     0.0420749556
    3      C       3.3557143345     1.1673878833     0.0123488789
    4      C       1.2037877268    -0.6462042989     0.0183652631
    5      C       0.9603544667     0.7548528276    -0.0120775466
    6      C       2.0541707247     1.6393132337    -0.0168220685
    7      C       0.1023485836    -1.5991818273    -0.0009308617
    8      C      -1.2394448168    -1.0446825004    -0.0121688659
    9      C      -1.4696170205     0.3229075726     0.0130043895
   10      C      -0.4098948161     1.2981541730    -0.0373651926
   11      O       0.2683214945    -2.8557938973    -0.0287811139
   12      O      -0.6344226128     2.5322627235    -0.0985947338
   13      N      -2.2698887545    -1.9911148550    -0.0017518593
   14      S      -3.1294876133     1.0060386406     0.0476696185
   15      H       2.6961713381    -2.1801471290     0.0624020825
   16      H       4.6177623472    -0.5931897577     0.0631927083
   17      H       4.1885404268     1.8643963510     0.0108062783
   18      H       1.8369036760     2.7010941320    -0.0434140013
   19      H      -1.8703914047    -2.9121516361    -0.1661752820
   20      H      -3.0402799598    -1.7744339497    -0.6224279645
   21      H      -3.6892854292    -0.0585890551     0.6643105230
 ----------------------------------------------------------------

   10    -988.9349051310      7.63e-06  Convergence criterion met
 Total energy in the final basis set =     -988.9349051310
    5    -989.0211949591      5.91e-06  Convergence criterion met
 Total energy in the final basis set =     -989.0211949591

                    Orbital Energies (a.u.)
 --------------------------------------------------------------

 Alpha MOs
 -- Occupied --
-88.8497 -19.0844 -19.0804 -14.3141 -10.2307 -10.2254 -10.2105 -10.1923
-10.1755 -10.1751 -10.1720 -10.1712 -10.1701 -10.1700  -7.9363  -5.8997
 -5.8964  -5.8907  -1.0106  -1.0074  -0.9122  -0.8588  -0.8060  -0.7642
 -0.7516  -0.7080  -0.6686  -0.6134  -0.6022  -0.5637  -0.5403  -0.5089
 -0.4778  -0.4757  -0.4523  -0.4366  -0.4271  -0.4218  -0.4180  -0.4053
 -0.4010  -0.3877  -0.3668  -0.3538  -0.3497  -0.3379  -0.3250  -0.2819
 -0.2652  -0.2587  -0.2571  -0.2462  -0.2121  -0.1525

 Beta MOs
 -- Occupied --
-88.8497 -19.0781 -19.0755 -14.3135 -10.2291 -10.2228 -10.2092 -10.1918
-10.1751 -10.1742 -10.1718 -10.1707 -10.1701 -10.1698  -7.9363  -5.8997
 -5.8964  -5.8906  -1.0010  -0.9974  -0.9096  -0.8568  -0.8030  -0.7617
 -0.7495  -0.7055  -0.6606  -0.6114  -0.5996  -0.5608  -0.5389  -0.5065
 -0.4752  -0.4735  -0.4517  -0.4314  -0.4230  -0.4151  -0.4129  -0.4026
 -0.3974  -0.3647  -0.3637  -0.3504  -0.3474  -0.3363  -0.3107  -0.2768
 -0.2520  -0.2511  -0.2497  -0.2412  -0.2045

          Ground-State Mulliken Net Atomic Charges

     Atom                 Charge (a.u.)    Spin (a.u.)
  --------------------------------------------------------
      1 C                     0.003872       0.063105
      2 C                    -0.391710       0.010439
      3 C                    -0.440170       0.058914
      4 C                     0.321132       0.024854
      5 C                     0.718172       0.054181
      6 C                     0.089613       0.007412
      7 C                    -1.160564       0.159414
      8 C                     0.034685       0.086259
      9 C                     1.830918       0.017592
     10 C                    -1.471081       0.083187
     11 O                    -0.531026       0.229199
     12 O                    -0.468697       0.179057
     13 N                    -0.398454       0.030512
     14 S                    -0.582321       0.007217
     15 H                     0.175007      -0.003607
     16 H                     0.207144      -0.001311
     17 H                     0.206471      -0.004304
     18 H                     0.173321      -0.000400
     19 H                     0.302709      -0.002229
     20 H                     0.271969       0.000974
     21 H                     0.109012      -0.000465
  --------------------------------------------------------
  Sum of atomic charges =    -1.000000

                    Cartesian Multipole Moments
 -----------------------------------------------------------------
    Charge (ESU x 10^10)
                -4.8032
    Dipole Moment (Debye)
         X       1.3131      Y      -1.9261      Z      -0.6518
       Tot       2.4205
    Quadrupole Moments (Debye-Ang)
        XX     -88.6169     XY      14.3045     YY    -125.7597
        XZ       1.9052     YZ       2.6318     ZZ     -95.3446

 Total job time:  85.67s(wall), 392.86s(cpu)
        *  Thank you very much for using Q-Chem.  Have a nice day.  *
