 Gaussian 16, Revision A.03,
 Gaussian 16:  ES64L-G16RevA.03 25-Dec-2016

 --------------------------------------
 #P UB3LYP/6-311++G(d,p) nosym opt freq
 --------------------------------------

 -------
 Radical
 -------
 Symbolic Z-matrix:
 Charge = -1 Multiplicity = 2

 SCF Done:  E(UB3LYP) =  -988.934967201     A.U. after   25 cycles
 Optimization completed.
    -- Stationary point found.
 Normal termination of Gaussian 16 at Mon Jan  8 01:25:30 2024.

 ----------------------------------------------------------------------
 #P Geom=AllCheck Guess=TCheck SCRF=Check GenChk UB3LYP/6-311++G(d,p) F
 req
 ----------------------------------------------------------------------

 Structure from the checkpoint file:  "270-rad.chk"
 -------
 Radical
 -------
 Charge = -1 Multiplicity = 2

                          Input orientation:
 ---------------------------------------------------------------------
 Center     Atomic      Atomic             Coordinates (Angstroms)
 Number     Number       Type             X           Y           Z
 ---------------------------------------------------------------------
      1          6           0       -0.970348    3.990837   -0.117487
      2          6           0       -2.214947    3.392256   -0.189652
      3          6           0       -2.321641    1.987031   -0.206889
      4          6           0        0.206340    3.214597   -0.057441
      5          6           0        0.098050    1.796464   -0.075320
      6          6           0       -1.177585    1.208700   -0.152880
      7          6           0        1.507770    3.866553   -0.003219
      8          6           0        2.669244    2.998532    0.071098
      9          6           0        2.552867    1.616861    0.107938
     10          6           0        1.290693    0.932093   -0.013156
     11          8           0        1.659022    5.124826   -0.038834
     12          8           0        1.207253   -0.320017   -0.062593
     13          7           0        3.898525    3.662040    0.150362
     14         16           0        3.987294    0.546466    0.248344
     15          1           0       -0.861218    5.069332   -0.106499
     16          1           0       -3.110981    4.004754   -0.233725
     17          1           0       -3.298852    1.516683   -0.263932
     18          1           0       -1.227727    0.125855   -0.167822
     19          1           0        3.749812    4.650757   -0.037428
     20          1           0        4.629335    3.253782   -0.419668
     21          1           0        4.752246    1.448760    0.902382
 ---------------------------------------------------------------------

 SCF Done:  E(UB3LYP) =  -988.934967201     A.U. after    2 cycles

 Alpha  occ. eigenvalues --  -88.72914 -18.94889 -18.94224 -14.19740 -10.09615
 Alpha  occ. eigenvalues --  -10.09248 -10.08285 -10.06532 -10.05613 -10.05493
 Alpha  occ. eigenvalues --  -10.04952 -10.04903 -10.04885 -10.04816  -7.81530
 Alpha  occ. eigenvalues --   -5.77888  -5.77537  -5.76963  -0.87463  -0.86872
 Alpha  occ. eigenvalues --   -0.79161  -0.73509  -0.68140  -0.64138  -0.62849
 Alpha  occ. eigenvalues --   -0.58542  -0.54117  -0.49196  -0.47973  -0.43870
 Alpha  occ. eigenvalues --   -0.41860  -0.38913  -0.35831  -0.34992  -0.33099
 Alpha  occ. eigenvalues --   -0.31261  -0.30261  -0.29451  -0.28664  -0.27390
 Alpha  occ. eigenvalues --   -0.27232  -0.25074  -0.24500  -0.23139  -0.22648
 Alpha  occ. eigenvalues --   -0.21310  -0.19713  -0.15618  -0.13831  -0.13360
 Alpha  occ. eigenvalues --   -0.11996  -0.10820  -0.08750  -0.01933
 Alpha virt. eigenvalues --    0.08390   0.08668   0.09052   0.10345   0.11019
 Alpha virt. eigenvalues --    0.11403   0.12124   0.13209   0.13558   0.14497
 Alpha virt. eigenvalues --    0.15145   0.15784   0.16470   0.17179   0.17906

  Beta  occ. eigenvalues --  -88.72911 -18.94213 -18.93661 -14.19695 -10.09506
  Beta  occ. eigenvalues --  -10.09029 -10.08164 -10.06457 -10.05594 -10.05415
  Beta  occ. eigenvalues --  -10.04926 -10.04926 -10.04839 -10.04712  -7.81527
  Beta  occ. eigenvalues --   -5.77889  -5.77537  -5.76948  -0.86381  -0.85870
  Beta  occ. eigenvalues --   -0.78902  -0.73304  -0.67821  -0.63890  -0.62663
  Beta  occ. eigenvalues --   -0.58300  -0.53329  -0.49026  -0.47703  -0.43610
  Beta  occ. eigenvalues --   -0.41745  -0.38687  -0.35704  -0.34673  -0.33033
  Beta  occ. eigenvalues --   -0.30961  -0.30120  -0.28698  -0.28160  -0.26883
  Beta  occ. eigenvalues --   -0.26734  -0.24294  -0.22956  -0.22809  -0.22239
  Beta  occ. eigenvalues --   -0.21064  -0.18330  -0.15147  -0.12616  -0.11952
  Beta  occ. eigenvalues --   -0.11384  -0.10273  -0.07864
  Beta virt. eigenvalues --    0.04502   0.08383   0.08687   0.09681   0.10337
  Beta virt. eigenvalues --    0.11411   0.12095   0.12152   0.13218   0.13584
  Beta virt. eigenvalues --    0.14501   0.15163   0.15842   0.16502   0.17237

 Mulliken charges and spin densities:
               1          2
     1  C   -0.020291   0.049572
     2  C   -0.282297   0.013794
     3  C   -0.337404   0.063763
     4  C    0.430295   0.043361
     5  C    0.842716   0.073872
     6  C    0.086548  -0.005769
     7  C   -1.460008   0.121494
     8  C   -0.065468   0.086974
     9  C    2.078248   0.036562
    10  C   -1.652906   0.042422
    11  O   -0.424040   0.249906
    12  O   -0.340407   0.207736
    13  N   -0.341664   0.021095
    14  S   -0.594820   0.007551
    15  H    0.150792  -0.003277
    16  H    0.126639  -0.001545
    17  H    0.126226  -0.004928
    18  H    0.152615  -0.000099
    19  H    0.267917  -0.002813
    20  H    0.214000   0.000872
    21  H    0.043309  -0.000544
 Sum of Mulliken charges =  -1.00000   1.00000

 Dipole moment (field-independent basis, Debye):
    X=             -6.0902    Y=             -9.7357    Z=             -0.5043  Tot=             11.4947
 Quadrupole moment (field-independent basis, Debye-Ang):
   XX=           -106.9465   YY=           -145.7106   ZZ=            -95.8995
   XY=             -8.1637   XZ=             -2.8141   YZ=             -2.0868

  Exact polarizability: 253.910 -10.512 205.835   9.924  -2.399  93.256
 Approx polarizability: 370.958   2.695 385.320  15.187   0.069 145.111

                      1                      2                      3
                      A                      A                      A
 Frequencies --     73.4075               107.8660               149.7798
 Red. masses --      8.2861                 5.0035                 5.2106
 Frc consts  --      0.0263                 0.0343                 0.0689
 IR Inten    --      6.3450                 4.0754                 2.4727

                      4                      5                      6
                      A                      A                      A
 Frequencies --    161.0160               173.9209               242.9390
 Red. masses --      4.2393                 6.7465                 2.1431
 Frc consts  --      0.0648                 0.1202                 0.0745
 IR Inten    --      1.8031                 2.4260                12.0082

                      7                      8                      9
                      A                      A                      A
 Frequencies --    282.9409               286.4091               310.0043
 Red. masses --      3.9468                 2.6211                 6.5028
 Frc consts  --      0.1862                 0.1267                 0.3682
 IR Inten    --      2.2602                 9.2628                 0.2454

                     10                     11                     12
                      A                      A                      A
 Frequencies --    371.5344               375.9436               413.4920
 Red. masses --      6.5927                 8.4366                 5.9579
 Frc consts  --      0.5362                 0.7025                 0.6002
 IR Inten    --      0.6240                 3.3939                 2.6354

                     13                     14                     15
                      A                      A                      A
 Frequencies --    423.7173               450.6889               476.7150
 Red. masses --      6.0420                 3.5786                 1.1277
 Frc consts  --      0.6391                 0.4283                 0.1510
 IR Inten    --      3.9187                 1.5073                58.3260

                     16                     17                     18
                      A                      A                      A
 Frequencies --    504.1783               536.1869               582.7557
 Red. masses --     10.6959                 4.5574                 7.2386
 Frc consts  --      1.6019                 0.7720                 1.4484
 IR Inten    --      2.8826                 3.2145                 4.2053

                     19                     20                     21
                      A                      A                      A
 Frequencies --    665.3138               676.1349               691.6603
 Red. masses --      6.4551                 5.2829                 3.4267
 Frc consts  --      1.6835                 1.4229                 0.9658
 IR Inten    --     18.7222                 6.9921                34.0817

                     22                     23                     24
                      A                      A                      A
 Frequencies --    705.0492               765.8616               776.0672
 Red. masses --      3.6010                 2.2026                 2.6437
 Frc consts  --      1.0547                 0.7612                 0.9381
 IR Inten    --     39.4596                34.7526                12.1396

                     25                     26                     27
                      A                      A                      A
 Frequencies --    793.4454               826.6822               845.9070
 Red. masses --      1.9181                 3.9016                 3.0970
 Frc consts  --      0.7115                 1.5710                 1.3057
 IR Inten    --    232.7119                51.8245                18.0696

                     28                     29                     30
                      A                      A                      A
 Frequencies --    864.6553               944.3022               973.4860
 Red. masses --      1.4200                 1.4804                 1.3219
 Frc consts  --      0.6255                 0.7778                 0.7381
 IR Inten    --      0.0928                 1.1301                 2.0900

                     31                     32                     33
                      A                      A                      A
 Frequencies --    976.3897              1021.3528              1048.0249
 Red. masses --      1.2870                 4.5354                 2.1003
 Frc consts  --      0.7229                 2.7875                 1.3592
 IR Inten    --      1.1196                24.5155                 6.1127

                     34                     35                     36
                      A                      A                      A
 Frequencies --   1100.4986              1136.0537              1157.3633
 Red. masses --      2.5306                 1.6929                 1.2944
 Frc consts  --      1.8057                 1.2873                 1.0215
 IR Inten    --      2.5663                26.3382                 9.5030

                     37                     38                     39
                      A                      A                      A
 Frequencies --   1195.0548              1227.4054              1243.2349
 Red. masses --      3.1615                 1.8927                 3.8870
 Frc consts  --      2.6602                 1.6800                 3.5398
 IR Inten    --      8.7476                 7.7180                33.0857

                     40                     41                     42
                      A                      A                      A
 Frequencies --   1294.9272              1354.8441              1401.0654
 Red. masses --      2.1472                 9.9824                 3.1239
 Frc consts  --      2.1213                10.7960                 3.6130
 IR Inten    --     34.3010                20.2676                59.4887

                     43                     44                     45
                      A                      A                      A
 Frequencies --   1462.2101              1471.4793              1512.3653
 Red. masses --      3.1926                 2.8147                 7.1392
 Frc consts  --      4.0218                 3.5908                 9.6209
 IR Inten    --    121.0672                35.0417               446.2383

                     46                     47                     48
                      A                      A                      A
 Frequencies --   1540.9330              1543.4524              1599.4609
 Red. masses --      7.1081                 5.3547                 2.1801
 Frc consts  --      9.9442                 7.5158                 3.2861
 IR Inten    --    127.9819                66.9423                 9.8774

                     49                     50                     51
                      A                      A                      A
 Frequencies --   1617.6300              1624.9674              2628.1732
 Red. masses --      2.0856                 5.9140                 1.0380
 Frc consts  --      3.2154                 9.2007                 4.2241
 IR Inten    --     54.5609                37.5186                12.6140

                     52                     53                     54
                      A                      A                      A
 Frequencies --   3132.7963              3152.2294              3180.5942
 Red. masses --      1.0846                 1.0911                 1.0913
 Frc consts  --      6.2715                 6.3877                 6.5044
 IR Inten    --     16.1337                50.1801                11.9805

                     55                     56                     57
                      A                      A                      A
 Frequencies --   3183.1457              3472.0111              3584.8586
 Red. masses --      1.0929                 1.0481                 1.0954
 Frc consts  --      6.5246                 7.4442                 8.2944
 IR Inten    --     26.6831                11.5902                19.4157

 - Thermochemistry -
 -------------------
 Temperature   298.150 Kelvin.  Pressure   1.00000 Atm.
 Atom     1 has atomic number  6 and mass  12.00000

 Molecular mass:   205.01975 amu.
 Principal axes and moments of inertia in atomic units:
                           1         2         3
     Eigenvalues --  1750.958603442.933225185.41639
           X            0.95877   0.27685  -0.06413
           Y           -0.27671   0.96089   0.01125
           Z            0.06473   0.00696   0.99788
 This molecule is an asymmetric top.
 Rotational symmetry number  1.
 Warning -- assumption of classical behavior for rotation
           may cause significant error
 Rotational temperatures (Kelvin)      0.04947     0.02516     0.01670
 Rotational constants (GHZ):           1.03072     0.52419     0.34804
 Zero-point vibrational energy     384686.6 (Joules/Mol)
                                   91.94231 (Kcal/Mol)
 Warning -- explicit consideration of  18 degrees of freedom as
           vibrations may cause significant error
 Vibrational temperatures:    105.62   155.20   215.50   231.67   250.23
          (Kelvin)            349.53   407.09   412.08   446.03   534.56
                              540.90   594.92   609.63   648.44   685.89
                              725.40   771.45   838.46   957.24   972.81
                              995.14  1014.41  1101.90  1116.59  1141.59
                             1189.41  1217.07  1244.05  1358.64  1400.63
                             1404.81  1469.50  1507.87  1583.37  1634.53
                             1665.19  1719.42  1765.96  1788.74  1863.11
                             1949.32  2015.82  2103.79  2117.13  2175.96
                             2217.06  2220.68  2301.27  2327.41  2337.97
                             3781.36  4507.40  4535.36  4576.17  4579.84
                             4995.45  5157.81

 Zero-point correction=                           0.146519 (Hartree/Particle)
 Thermal correction to Energy=                    0.158158
 Thermal correction to Enthalpy=                  0.159102
 Thermal correction to Gibbs Free Energy=         0.108393
 Sum of electronic and zero-point Energies=           -988.788448
 Sum of electronic and thermal Energies=              -988.776809
 Sum of electronic and thermal Enthalpies=            -988.775865
 Sum of electronic and thermal Free Energies=         -988.826574

                     E (Thermal)             CV                S
                      KCal/Mol        Cal/Mol-Kelvin    Cal/Mol-Kelvin
 Total                   99.246             45.832            106.726
 Electronic               0.000              0.000              1.377
 Translational            0.889              2.981             41.858
 Rotational               0.889              2.981             31.814
 Vibrational             97.468             39.871             31.676
 Vibration     1          0.599              1.967              4.060
 Vibration     2          0.606              1.943              3.307
 Vibration     3          0.618              1.903              2.675
 Vibration     4          0.622              1.890              2.538
 Vibration     5          0.627              1.875              2.393
 Vibration     6          0.659              1.774              1.781
 Vibration     7          0.682              1.705              1.516
 Vibration     8          0.684              1.699              1.495
 Vibration     9          0.699              1.655              1.362
 Vibration    10          0.743              1.531              1.073
 Vibration    11          0.747              1.521              1.055
 Vibration    12          0.777              1.441              0.914
 Vibration    13          0.786              1.419              0.879
 Vibration    14          0.809              1.359              0.794
 Vibration    15          0.833              1.302              0.719
 Vibration    16          0.859              1.241              0.648
 Vibration    17          0.891              1.170              0.574
 Vibration    18          0.940              1.069              0.480

                           ! Non-Optimized Parameters !
 Normal termination of Gaussian 16 at Mon Jan  8 01:57:04 2024.
