 Q-Chem 5.4, Q-Chem, Inc., Pleasanton, CA (2021)
 Q-Chem 5.4.0 for Intel X86 EM64T Linux

User input:
--------------------------------------------------------------
$molecule
0 1
C                  1.3491530000      1.4895290000     -2.4702500000
C                 -0.0883360000      1.7427850000     -2.7019630000
C                 -1.0633830000      0.9765630000     -2.1812580000
C                 -0.6829530000     -0.1922050000     -1.3238680000
C                  0.7569820000     -0.4424440000     -1.0734570000
O                  2.2048090000      2.2186620000     -2.9444120000
O                 -1.5329430000     -0.9234560000     -0.8433630000
H                 -0.3068470000      2.6060880000     -3.3224120000
C                  1.7191440000      0.3175480000     -1.6168360000
C                  3.1843380000      0.0808760000     -1.3017940000
C                  4.0840360000     -0.4253660000     -2.3725110000
C                  5.4615680000     -0.4846560000     -2.1164890000
C                  3.5936340000     -0.8643530000     -3.6082770000
C                  6.3311770000     -0.9694520000     -3.0842200000
C                  5.8344000000     -1.4078510000     -4.3139620000
C                  4.4660520000     -1.3576700000     -4.5740990000
O                  3.5692080000      0.2946520000     -0.1686760000
H                  5.8261430000     -0.1432250000     -1.1555200000
H                  2.5307940000     -0.8309270000     -3.8168820000
H                  7.3959510000     -1.0074590000     -2.8848910000
H                  6.5145660000     -1.7873290000     -5.0683000000
H                  4.0803570000     -1.6999520000     -5.5273320000
C                 -2.5251830000      1.2163880000     -2.3977850000
H                  0.9808170000     -1.2843110000     -0.4267530000
H                 -2.6899200000      2.0836680000     -3.0378680000
H                 -3.0330790000      1.3745740000     -1.4423500000
H                 -2.9948350000      0.3395950000     -2.8519840000
$end

$rem
BASIS  =  6-311++G(d,p)
GUI  =  2
JOB_TYPE  =  SP
METHOD  =  B3LYP
SCF_CONVERGENCE  = 8
SOLVENT_METHOD = sm12
$end

$smx
solvent dimethylformamide
charges CM5
$end

--------------------------------------------------------------

             Standard Nuclear Orientation (Angstroms)
    I     Atom           X                Y                Z
 ----------------------------------------------------------------
    1      C       1.3491530000     1.4895290000    -2.4702500000
    2      C      -0.0883360000     1.7427850000    -2.7019630000
    3      C      -1.0633830000     0.9765630000    -2.1812580000
    4      C      -0.6829530000    -0.1922050000    -1.3238680000
    5      C       0.7569820000    -0.4424440000    -1.0734570000
    6      O       2.2048090000     2.2186620000    -2.9444120000
    7      O      -1.5329430000    -0.9234560000    -0.8433630000
    8      H      -0.3068470000     2.6060880000    -3.3224120000
    9      C       1.7191440000     0.3175480000    -1.6168360000
   10      C       3.1843380000     0.0808760000    -1.3017940000
   11      C       4.0840360000    -0.4253660000    -2.3725110000
   12      C       5.4615680000    -0.4846560000    -2.1164890000
   13      C       3.5936340000    -0.8643530000    -3.6082770000
   14      C       6.3311770000    -0.9694520000    -3.0842200000
   15      C       5.8344000000    -1.4078510000    -4.3139620000
   16      C       4.4660520000    -1.3576700000    -4.5740990000
   17      O       3.5692080000     0.2946520000    -0.1686760000
   18      H       5.8261430000    -0.1432250000    -1.1555200000
   19      H       2.5307940000    -0.8309270000    -3.8168820000
   20      H       7.3959510000    -1.0074590000    -2.8848910000
   21      H       6.5145660000    -1.7873290000    -5.0683000000
   22      H       4.0803570000    -1.6999520000    -5.5273320000
   23      C      -2.5251830000     1.2163880000    -2.3977850000
   24      H       0.9808170000    -1.2843110000    -0.4267530000
   25      H      -2.6899200000     2.0836680000    -3.0378680000
   26      H      -3.0330790000     1.3745740000    -1.4423500000
   27      H      -2.9948350000     0.3395950000    -2.8519840000
 ----------------------------------------------------------------

   15    -765.3576292152      6.61e-09  Convergence criterion met
 Total energy in the final basis set =     -765.3815634579

                    Orbital Energies (a.u.)
 --------------------------------------------------------------

 Alpha MOs
 -- Occupied --
-19.1439 -19.1423 -19.1348 -10.2907 -10.2880 -10.2877 -10.2263 -10.2219
-10.2188 -10.2055 -10.2013 -10.1985 -10.1943 -10.1933 -10.1905 -10.1897
-10.1746  -1.0761  -1.0736  -1.0678  -0.8790  -0.8718  -0.8203  -0.7803
 -0.7664  -0.7320  -0.7118  -0.6569  -0.6334  -0.6258  -0.6073  -0.5678
 -0.5364  -0.5349  -0.5020  -0.4866  -0.4777  -0.4735  -0.4639  -0.4530
 -0.4512  -0.4450  -0.4408  -0.4372  -0.4259  -0.4140  -0.4078  -0.4076
 -0.3899  -0.3779  -0.3759  -0.3614  -0.3190  -0.2982  -0.2938  -0.2909
 -0.2761  -0.2734  -0.2683

          Ground-State Mulliken Net Atomic Charges

     Atom                 Charge (a.u.)
  ----------------------------------------
      1 C                    -1.659777
      2 C                     0.165367
      3 C                     1.251698
      4 C                    -1.402584
      5 C                     1.095049
      6 O                    -0.311440
      7 O                    -0.280992
      8 H                     0.287191
      9 C                     0.709105
     10 C                    -1.178632
     11 C                     0.212248
     12 C                    -0.293057
     13 C                    -0.650547
     14 C                    -0.206348
     15 C                     0.136265
     16 C                     0.036983
     17 O                    -0.289260
     18 H                     0.197162
     19 H                     0.234410
     20 H                     0.281054
     21 H                     0.291951
     22 H                     0.292699
     23 C                     0.133989
     24 H                     0.317854
     25 H                     0.243178
     26 H                     0.190865
     27 H                     0.195568
  ----------------------------------------
  Sum of atomic charges =     0.000000

                    Cartesian Multipole Moments
 -----------------------------------------------------------------
    Charge (ESU x 10^10)
                 0.0000
    Dipole Moment (Debye)
         X      -0.9265      Y      -0.9581      Z      -3.8475
       Tot       4.0718
    Quadrupole Moments (Debye-Ang)
        XX     -87.8472     XY     -18.0680     YY    -102.0393
        XZ      -6.3851     YZ       7.3641     ZZ     -82.9516

 Total job time:  506.47s(wall), 3967.05s(cpu)
        *  Thank you very much for using Q-Chem.  Have a nice day.  *
