 Gaussian 16, Revision A.03,
 Gaussian 16:  ES64L-G16RevA.03 25-Dec-2016

 --------------------------------------
 #P UB3LYP/6-311++G(d,p) nosym opt freq
 --------------------------------------

 --------
 Oxidized
 --------
 Symbolic Z-matrix:
 Charge =  0 Multiplicity = 1

 SCF Done:  E(UB3LYP) =  -765.359116806     A.U. after   17 cycles
 Optimization completed.
    -- Stationary point found.
 Normal termination of Gaussian 16 at Wed Jan 10 04:54:50 2024.

 ----------------------------------------------------------------------
 #P Geom=AllCheck Guess=TCheck SCRF=Check GenChk UB3LYP/6-311++G(d,p) F
 req
 ----------------------------------------------------------------------

 Structure from the checkpoint file:  "080.chk"
 --------
 Oxidized
 --------
 Charge =  0 Multiplicity = 1

                          Input orientation:
 ---------------------------------------------------------------------
 Center     Atomic      Atomic             Coordinates (Angstroms)
 Number     Number       Type             X           Y           Z
 ---------------------------------------------------------------------
      1          6           0        1.349153    1.489529   -2.470250
      2          6           0       -0.088336    1.742785   -2.701963
      3          6           0       -1.063383    0.976563   -2.181258
      4          6           0       -0.682953   -0.192205   -1.323868
      5          6           0        0.756982   -0.442444   -1.073457
      6          8           0        2.204809    2.218662   -2.944412
      7          8           0       -1.532943   -0.923456   -0.843363
      8          1           0       -0.306847    2.606088   -3.322412
      9          6           0        1.719144    0.317548   -1.616836
     10          6           0        3.184338    0.080876   -1.301794
     11          6           0        4.084036   -0.425366   -2.372511
     12          6           0        5.461568   -0.484656   -2.116489
     13          6           0        3.593634   -0.864353   -3.608277
     14          6           0        6.331177   -0.969452   -3.084220
     15          6           0        5.834400   -1.407851   -4.313962
     16          6           0        4.466052   -1.357670   -4.574099
     17          8           0        3.569208    0.294652   -0.168676
     18          1           0        5.826143   -0.143225   -1.155520
     19          1           0        2.530794   -0.830927   -3.816882
     20          1           0        7.395951   -1.007459   -2.884891
     21          1           0        6.514566   -1.787329   -5.068300
     22          1           0        4.080357   -1.699952   -5.527332
     23          6           0       -2.525183    1.216388   -2.397785
     24          1           0        0.980817   -1.284311   -0.426753
     25          1           0       -2.689920    2.083668   -3.037868
     26          1           0       -3.033079    1.374574   -1.442350
     27          1           0       -2.994835    0.339595   -2.851984
 ---------------------------------------------------------------------

 SCF Done:  E(UB3LYP) =  -765.359116806     A.U. after    1 cycles

 Alpha  occ. eigenvalues --  -19.14845 -19.14652 -19.13473 -10.29477 -10.29323
 Alpha  occ. eigenvalues --  -10.28780 -10.23217 -10.23069 -10.22374 -10.21575
 Alpha  occ. eigenvalues --  -10.20431 -10.20298 -10.20047 -10.19673 -10.19651
 Alpha  occ. eigenvalues --  -10.19514 -10.19273  -1.07967  -1.07751  -1.06780
 Alpha  occ. eigenvalues --   -0.88392  -0.87839  -0.82827  -0.78508  -0.77147
 Alpha  occ. eigenvalues --   -0.74359  -0.71771  -0.66330  -0.64096  -0.63134
 Alpha  occ. eigenvalues --   -0.61385  -0.57279  -0.54267  -0.53979  -0.50692
 Alpha  occ. eigenvalues --   -0.49307  -0.48280  -0.47899  -0.47116  -0.45889
 Alpha  occ. eigenvalues --   -0.45736  -0.44918  -0.44664  -0.44368  -0.43150
 Alpha  occ. eigenvalues --   -0.41864  -0.41840  -0.41697  -0.40462  -0.38285
 Alpha  occ. eigenvalues --   -0.37986  -0.36712  -0.32223  -0.30584  -0.29695
 Alpha  occ. eigenvalues --   -0.29527  -0.27975  -0.27692  -0.26985
 Alpha virt. eigenvalues --   -0.14303  -0.08462  -0.04246  -0.03329  -0.01551
 Alpha virt. eigenvalues --   -0.01199  -0.00824   0.00590   0.00912   0.01352
 Alpha virt. eigenvalues --    0.01483   0.02280   0.02920   0.03048   0.04100

  Beta  occ. eigenvalues --  -19.14845 -19.14652 -19.13473 -10.29477 -10.29323
  Beta  occ. eigenvalues --  -10.28780 -10.23217 -10.23069 -10.22374 -10.21575
  Beta  occ. eigenvalues --  -10.20431 -10.20298 -10.20047 -10.19673 -10.19651
  Beta  occ. eigenvalues --  -10.19514 -10.19273  -1.07967  -1.07751  -1.06780
  Beta  occ. eigenvalues --   -0.88392  -0.87839  -0.82827  -0.78508  -0.77147
  Beta  occ. eigenvalues --   -0.74359  -0.71771  -0.66330  -0.64096  -0.63134
  Beta  occ. eigenvalues --   -0.61385  -0.57279  -0.54267  -0.53979  -0.50692
  Beta  occ. eigenvalues --   -0.49307  -0.48280  -0.47899  -0.47116  -0.45889
  Beta  occ. eigenvalues --   -0.45736  -0.44918  -0.44664  -0.44368  -0.43150
  Beta  occ. eigenvalues --   -0.41864  -0.41840  -0.41697  -0.40462  -0.38285
  Beta  occ. eigenvalues --   -0.37986  -0.36712  -0.32223  -0.30584  -0.29695
  Beta  occ. eigenvalues --   -0.29527  -0.27975  -0.27692  -0.26985
  Beta virt. eigenvalues --   -0.14303  -0.08462  -0.04246  -0.03329  -0.01551
  Beta virt. eigenvalues --   -0.01199  -0.00824   0.00590   0.00912   0.01352
  Beta virt. eigenvalues --    0.01483   0.02280   0.02920   0.03048   0.04100

 Mulliken charges and spin densities:
               1          2
     1  C   -0.990707  -0.000000
     2  C   -0.377888   0.000000
     3  C    0.960988  -0.000000
     4  C   -0.985064   0.000000
     5  C    0.483699  -0.000000
     6  O   -0.192925   0.000000
     7  O   -0.205045   0.000000
     8  H    0.211263   0.000000
     9  C    1.106103   0.000000
    10  C   -0.649565  -0.000000
    11  C    0.992677  -0.000000
    12  C    0.301814   0.000000
    13  C   -0.728586  -0.000000
    14  C   -0.416248  -0.000000
    15  C   -0.237084   0.000000
    16  C   -0.302694   0.000000
    17  O   -0.187061   0.000000
    18  H    0.215266   0.000000
    19  H    0.137211  -0.000000
    20  H    0.176460  -0.000000
    21  H    0.160668   0.000000
    22  H    0.187490   0.000000
    23  C   -0.449656   0.000000
    24  H    0.258616  -0.000000
    25  H    0.153231   0.000000
    26  H    0.189114   0.000000
    27  H    0.187922  -0.000000
 Sum of Mulliken charges =  -0.00000  -0.00000

 Dipole moment (field-independent basis, Debye):
    X=             -0.5611    Y=             -0.8290    Z=             -3.2716  Tot=              3.4213
 Quadrupole moment (field-independent basis, Debye-Ang):
   XX=            -89.3700   YY=           -102.3304   ZZ=            -86.0632
   XY=            -15.8649   XZ=             -5.0776   YZ=              6.5741

  Exact polarizability: 233.986   0.314 130.371 -26.073  -0.841 155.933
 Approx polarizability: 349.709  53.413 227.599 -48.284 -12.087 273.417

                      1                      2                      3
                      A                      A                      A
 Frequencies --     20.8739                38.5265                44.8448
 Red. masses --      8.1095                 4.1053                 4.4604
 Frc consts  --      0.0021                 0.0036                 0.0053
 IR Inten    --      1.1598                 0.2075                 2.2795

                      4                      5                      6
                      A                      A                      A
 Frequencies --     84.4421               114.4295               131.7346
 Red. masses --      8.7933                 8.0672                 1.2405
 Frc consts  --      0.0369                 0.0622                 0.0127
 IR Inten    --      6.2114                 2.4023                 0.0217

                      7                      8                      9
                      A                      A                      A
 Frequencies --    168.8101               173.4436               181.0666
 Red. masses --      3.9684                 5.7244                 3.0285
 Frc consts  --      0.0666                 0.1015                 0.0585
 IR Inten    --      2.1514                 3.0878                 0.2682

                     10                     11                     12
                      A                      A                      A
 Frequencies --    243.3822               282.3378               293.5094
 Red. masses --      5.6862                 5.0645                 4.2643
 Frc consts  --      0.1985                 0.2379                 0.2164
 IR Inten    --      1.1135                 4.1741                 2.4591

                     13                     14                     15
                      A                      A                      A
 Frequencies --    380.4228               399.5959               408.1725
 Red. masses --      3.6394                 8.2797                 4.1087
 Frc consts  --      0.3103                 0.7789                 0.4033
 IR Inten    --      2.4837                22.4051                 0.0717

                     16                     17                     18
                      A                      A                      A
 Frequencies --    412.6589               434.3719               474.6494
 Red. masses --      3.5561                 3.9563                10.8142
 Frc consts  --      0.3568                 0.4398                 1.4355
 IR Inten    --      0.6132                 1.8984                 4.5299

                     19                     20                     21
                      A                      A                      A
 Frequencies --    516.1205               569.3089               596.0607
 Red. masses --      5.6603                 5.3011                 5.4632
 Frc consts  --      0.8884                 1.0123                 1.1436
 IR Inten    --      4.8006                19.0470                 8.1311

                     22                     23                     24
                      A                      A                      A
 Frequencies --    630.6864               665.7360               699.0565
 Red. masses --      6.4259                 5.7517                 2.2118
 Frc consts  --      1.5060                 1.5019                 0.6368
 IR Inten    --      0.6366                 6.3138                25.9161

                     25                     26                     27
                      A                      A                      A
 Frequencies --    701.5159               711.4794               726.3113
 Red. masses --      5.5060                 3.9653                 2.7391
 Frc consts  --      1.5965                 1.1826                 0.8513
 IR Inten    --     14.8034                 3.8571                20.8607

                     28                     29                     30
                      A                      A                      A
 Frequencies --    778.8274               793.6379               837.8556
 Red. masses --      2.4997                 4.1887                 3.5018
 Frc consts  --      0.8933                 1.5545                 1.4484
 IR Inten    --     26.6394                 0.6284                26.0365

                     31                     32                     33
                      A                      A                      A
 Frequencies --    859.1401               883.7254               916.8557
 Red. masses --      1.2513                 1.8380                 2.7806
 Frc consts  --      0.5442                 0.8457                 1.3772
 IR Inten    --      1.2925                 9.4712                55.5471

                     34                     35                     36
                      A                      A                      A
 Frequencies --    951.7083               953.5960               997.6264
 Red. masses --      1.6342                 1.4614                 1.3761
 Frc consts  --      0.8721                 0.7830                 0.8069
 IR Inten    --     18.6385                 4.1557                 0.6322

                     37                     38                     39
                      A                      A                      A
 Frequencies --   1014.4306              1016.6616              1019.6277
 Red. masses --      1.3549                 5.4870                 1.6674
 Frc consts  --      0.8215                 3.3415                 1.0214
 IR Inten    --      0.6997                 2.0070                33.0703

                     40                     41                     42
                      A                      A                      A
 Frequencies --   1044.1361              1059.2990              1071.3115
 Red. masses --      2.5006                 1.5367                 3.9218
 Frc consts  --      1.6062                 1.0160                 2.6520
 IR Inten    --      6.7939                 2.3073                12.3461

                     43                     44                     45
                      A                      A                      A
 Frequencies --   1106.5628              1149.0515              1184.8133
 Red. masses --      1.5836                 2.9993                 1.1179
 Frc consts  --      1.1425                 2.3332                 0.9246
 IR Inten    --      2.4566                62.0638                 0.9654

                     46                     47                     48
                      A                      A                      A
 Frequencies --   1198.9766              1224.2970              1242.9930
 Red. masses --      1.1620                 1.9717                 2.8806
 Frc consts  --      0.9842                 1.7412                 2.6222
 IR Inten    --     20.5107                27.0174                61.4625

                     49                     50                     51
                      A                      A                      A
 Frequencies --   1271.1047              1338.1637              1347.4248
 Red. masses --      3.5151                 2.4292                 2.6939
 Frc consts  --      3.3462                 2.5629                 2.8817
 IR Inten    --    261.5938                 8.6341                63.8620

                     52                     53                     54
                      A                      A                      A
 Frequencies --   1353.4028              1366.2093              1416.5071
 Red. masses --      1.9921                 2.7632                 1.2971
 Frc consts  --      2.1498                 3.0387                 1.5334
 IR Inten    --     15.1738                 5.9413                12.3279

                     55                     56                     57
                      A                      A                      A
 Frequencies --   1467.5688              1478.7754              1479.0565
 Red. masses --      1.0430                 2.2222                 1.0706
 Frc consts  --      1.3235                 2.8631                 1.3799
 IR Inten    --      9.0718                19.3412                10.7859

                     58                     59                     60
                      A                      A                      A
 Frequencies --   1520.4200              1618.9581              1637.3636
 Red. masses --      2.1832                 5.4932                 5.5372
 Frc consts  --      2.9735                 8.4830                 8.7465
 IR Inten    --      1.6874                14.2692                40.4455

                     61                     62                     63
                      A                      A                      A
 Frequencies --   1654.2744              1686.7481              1715.1102
 Red. masses --      8.2202                 9.5193                11.3946
 Frc consts  --     13.2540                15.9572                19.7485
 IR Inten    --     17.1472                15.7780               409.1281

                     64                     65                     66
                      A                      A                      A
 Frequencies --   1720.9726              1732.9445              3037.0240
 Red. masses --     10.0003                12.2926                 1.0358
 Frc consts  --     17.4506                21.7503                 5.6288
 IR Inten    --     95.6211               205.3218                 6.9316

                     67                     68                     69
                      A                      A                      A
 Frequencies --   3088.1249              3123.2647              3166.3449
 Red. masses --      1.0987                 1.1033                 1.0858
 Frc consts  --      6.1736                 6.3411                 6.4138
 IR Inten    --      4.8609                10.5576                 0.4408

                     70                     71                     72
                      A                      A                      A
 Frequencies --   3171.2798              3175.7448              3180.0185
 Red. masses --      1.0920                 1.0883                 1.0925
 Frc consts  --      6.4705                 6.4668                 6.5094
 IR Inten    --      4.1169                 4.5296                 0.1475

                     73                     74                     75
                      A                      A                      A
 Frequencies --   3183.5274              3192.5777              3200.5694
 Red. masses --      1.0922                 1.0961                 1.0946
 Frc consts  --      6.5216                 6.5827                 6.6066
 IR Inten    --     20.0643                 9.2933                 6.6818

 - Thermochemistry -
 -------------------
 Temperature   298.150 Kelvin.  Pressure   1.00000 Atm.
 Atom     1 has atomic number  6 and mass  12.00000

 Molecular mass:   226.06299 amu.
 Principal axes and moments of inertia in atomic units:
                           1         2         3
     Eigenvalues --  1702.302417013.011487265.07371
           X            0.95508   0.13239   0.26514
           Y           -0.21575  -0.30277   0.92832
           Z           -0.20318   0.94382   0.26060
 This molecule is an asymmetric top.
 Rotational symmetry number  1.
 Warning -- assumption of classical behavior for rotation
           may cause significant error
 Rotational temperatures (Kelvin)      0.05088     0.01235     0.01192
 Rotational constants (GHZ):           1.06018     0.25734     0.24841
 Zero-point vibrational energy     530736.2 (Joules/Mol)
                                  126.84899 (Kcal/Mol)
 Warning -- explicit consideration of  21 degrees of freedom as
           vibrations may cause significant error
 Vibrational temperatures:     30.03    55.43    64.52   121.49   164.64
          (Kelvin)            189.54   242.88   249.55   260.51   350.17
                              406.22   422.29   547.34   574.93   587.27
                              593.72   624.96   682.91   742.58   819.11
                              857.60   907.42   957.85  1005.79  1009.32
                             1023.66  1045.00  1120.56  1141.87  1205.49
                             1236.11  1271.48  1319.15  1369.30  1372.01
                             1435.36  1459.54  1462.75  1467.02  1502.28
                             1524.09  1541.38  1592.10  1653.23  1704.68
                             1725.06  1761.49  1788.39  1828.84  1925.32
                             1938.64  1947.24  1965.67  2038.04  2111.50
                             2127.63  2128.03  2187.55  2329.32  2355.80
                             2380.13  2426.85  2467.66  2476.10  2493.32
                             4369.60  4443.12  4493.68  4555.66  4562.76
                             4569.19  4575.34  4580.39  4593.41  4604.91

 Zero-point correction=                           0.202147 (Hartree/Particle)
 Thermal correction to Energy=                    0.216843
 Thermal correction to Enthalpy=                  0.217787
 Thermal correction to Gibbs Free Energy=         0.158397
 Sum of electronic and zero-point Energies=           -765.156970
 Sum of electronic and thermal Energies=              -765.142274
 Sum of electronic and thermal Enthalpies=            -765.141330
 Sum of electronic and thermal Free Energies=         -765.200720

                     E (Thermal)             CV                S
                      KCal/Mol        Cal/Mol-Kelvin    Cal/Mol-Kelvin
 Total                  136.071             54.985            124.996
 Electronic               0.000              0.000              0.000
 Translational            0.889              2.981             42.149
 Rotational               0.889              2.981             32.828
 Vibrational            134.293             49.023             50.019
 Vibration     1          0.593              1.986              6.549
 Vibration     2          0.594              1.981              5.333
 Vibration     3          0.595              1.979              5.033
 Vibration     4          0.601              1.960              3.785
 Vibration     5          0.607              1.937              3.192
 Vibration     6          0.612              1.922              2.921
 Vibration     7          0.625              1.881              2.449
 Vibration     8          0.627              1.875              2.398
 Vibration     9          0.630              1.865              2.317
 Vibration    10          0.659              1.774              1.778
 Vibration    11          0.681              1.706              1.519
 Vibration    12          0.688              1.686              1.454
 Vibration    13          0.750              1.512              1.037
 Vibration    14          0.766              1.471              0.964
 Vibration    15          0.773              1.452              0.933
 Vibration    16          0.776              1.443              0.917
 Vibration    17          0.795              1.395              0.844
 Vibration    18          0.831              1.306              0.725
 Vibration    19          0.871              1.214              0.619
 Vibration    20          0.925              1.098              0.506
 Vibration    21          0.954              1.040              0.456

                           ! Non-Optimized Parameters !
 Normal termination of Gaussian 16 at Wed Jan 10 06:29:03 2024.
