 Gaussian 16, Revision A.03,
 Gaussian 16:  ES64L-G16RevA.03 25-Dec-2016

 ----------------------------------------------------------------------
 #P UB3LYP/6-311++G(d,p) nosym opt freq SCRF=(PCM,Solvent=n,n-DiMethylF
 ormamide)
 ----------------------------------------------------------------------

 -------
 Reduced
 -------
 Symbolic Z-matrix:
 Charge = -2 Multiplicity = 1

 SCF Done:  E(UB3LYP) =  -686.018407361     A.U. after   17 cycles
 SCF Done:  E(UB3LYP) =  -686.019563493     A.U. after   14 cycles
 SCF Done:  E(UB3LYP) =  -686.019777735     A.U. after   14 cycles
 SCF Done:  E(UB3LYP) =  -686.019802825     A.U. after   12 cycles
 SCF Done:  E(UB3LYP) =  -686.019810129     A.U. after   12 cycles
 SCF Done:  E(UB3LYP) =  -686.019812631     A.U. after   11 cycles
 Optimization completed.
    -- Stationary point found.
 Normal termination of Gaussian 16 at Sun Feb 11 15:19:34 2024.

 ----------------------------------------------------------------------
 #P Geom=AllCheck Guess=TCheck SCRF=Check GenChk UB3LYP/6-311++G(d,p) F
 req
 ----------------------------------------------------------------------

 Structure from the checkpoint file:  "309-an.chk"
 -------
 Reduced
 -------
 Charge = -2 Multiplicity = 1

                          Input orientation:
 ---------------------------------------------------------------------
 Center     Atomic      Atomic             Coordinates (Angstroms)
 Number     Number       Type             X           Y           Z
 ---------------------------------------------------------------------
      1          8           0        1.691236    2.487501    0.407443
      2          6           0        1.405647    1.226011    0.210008
      3          6           0        0.048026    0.715868    0.209687
      4          6           0       -1.035883    1.605972    0.425261
      5          6           0       -2.350944    1.185176    0.438177
      6          6           0       -2.652998   -0.186444    0.230837
      7          6           0       -1.630992   -1.086895    0.015288
      8          6           0       -0.265655   -0.689024   -0.007791
      9          6           0        0.778937   -1.634913   -0.239339
     10          8           0        0.641170   -2.934600   -0.456800
     11          6           0        2.075583   -1.102471   -0.233918
     12          8           0        3.100605   -2.009096   -0.460900
     13          6           0        2.394053    0.244607   -0.022841
     14          8           0        3.736800    0.622376   -0.047705
     15          1           0       -0.793479    2.651521    0.581610
     16          1           0       -3.152072    1.898832    0.606029
     17          1           0       -3.685512   -0.523068    0.241777
     18          1           0       -1.851652   -2.137446   -0.144942
     19          1           0        2.585198   -2.840977   -0.571488
     20          1           0        4.248851   -0.177983   -0.221263
 ---------------------------------------------------------------------

 SCF Done:  E(UB3LYP) =  -686.019812631     A.U. after    1 cycles

 Alpha  occ. eigenvalues --  -19.12550 -19.12267 -19.02668 -19.01564 -10.18244
 Alpha  occ. eigenvalues --  -10.18048 -10.17208 -10.16714 -10.14687 -10.14575
 Alpha  occ. eigenvalues --  -10.14501 -10.14423 -10.13949 -10.13731  -1.04150
 Alpha  occ. eigenvalues --   -1.01724  -0.92394  -0.92028  -0.82373  -0.76605
 Alpha  occ. eigenvalues --   -0.72221  -0.69797  -0.64861  -0.59238  -0.58645
 Alpha  occ. eigenvalues --   -0.54405  -0.52357  -0.49068  -0.47564  -0.44421
 Alpha  occ. eigenvalues --   -0.42557  -0.40559  -0.40500  -0.39601  -0.37942
 Alpha  occ. eigenvalues --   -0.36950  -0.35668  -0.35089  -0.35038  -0.33880
 Alpha  occ. eigenvalues --   -0.32369  -0.30259  -0.30063  -0.29757  -0.22856
 Alpha  occ. eigenvalues --   -0.22206  -0.21385  -0.19719  -0.18502  -0.11399
 Alpha virt. eigenvalues --   -0.00338  -0.00210   0.00803   0.01764   0.02074
 Alpha virt. eigenvalues --    0.03058   0.03353   0.05331   0.05609   0.05704
 Alpha virt. eigenvalues --    0.06841   0.07499   0.08219   0.08535   0.09350

  Beta  occ. eigenvalues --  -19.12550 -19.12267 -19.02668 -19.01564 -10.18244
  Beta  occ. eigenvalues --  -10.18048 -10.17208 -10.16714 -10.14687 -10.14575
  Beta  occ. eigenvalues --  -10.14501 -10.14423 -10.13949 -10.13731  -1.04150
  Beta  occ. eigenvalues --   -1.01724  -0.92394  -0.92028  -0.82373  -0.76605
  Beta  occ. eigenvalues --   -0.72221  -0.69797  -0.64861  -0.59238  -0.58645
  Beta  occ. eigenvalues --   -0.54405  -0.52357  -0.49068  -0.47564  -0.44421
  Beta  occ. eigenvalues --   -0.42557  -0.40559  -0.40500  -0.39601  -0.37942
  Beta  occ. eigenvalues --   -0.36950  -0.35668  -0.35089  -0.35038  -0.33880
  Beta  occ. eigenvalues --   -0.32369  -0.30259  -0.30063  -0.29757  -0.22856
  Beta  occ. eigenvalues --   -0.22206  -0.21385  -0.19719  -0.18502  -0.11399
  Beta virt. eigenvalues --   -0.00338  -0.00210   0.00803   0.01764   0.02074
  Beta virt. eigenvalues --    0.03058   0.03353   0.05331   0.05609   0.05704
  Beta virt. eigenvalues --    0.06841   0.07499   0.08219   0.08535   0.09350

 Mulliken charges and spin densities:
               1          2
     1  O   -0.725648   0.000000
     2  C   -0.650301  -0.000000
     3  C    0.512068  -0.000000
     4  C    0.059392   0.000000
     5  C   -0.480986  -0.000000
     6  C   -0.373552  -0.000000
     7  C   -0.069457   0.000000
     8  C    0.532225  -0.000000
     9  C   -0.824755   0.000000
    10  O   -0.743854   0.000000
    11  C    0.107018   0.000000
    12  O   -0.381619   0.000000
    13  C    0.234625   0.000000
    14  O   -0.368584  -0.000000
    15  H    0.141108  -0.000000
    16  H    0.153606  -0.000000
    17  H    0.159354  -0.000000
    18  H    0.139941  -0.000000
    19  H    0.284563  -0.000000
    20  H    0.294856   0.000000
 Sum of Mulliken charges =  -2.00000  -0.00000

 Dipole moment (field-independent basis, Debye):
    X=            -10.2584    Y=             -0.8681    Z=             -0.3511  Tot=             10.3011
 Quadrupole moment (field-independent basis, Debye-Ang):
   XX=           -117.2384   YY=           -141.8629   ZZ=            -92.6916
   XY=            -13.6206   XZ=             -1.5917   YZ=             -7.8961

  Exact polarizability: 324.335 -10.010 269.860 -14.976  26.296 124.770
 Approx polarizability: 376.277 -10.972 311.982 -17.822  31.784 136.064

                      1                      2                      3
                      A                      A                      A
 Frequencies --    102.8735               124.7930               176.0362
 Red. masses --      7.6811                 4.4126                 8.2978
 Frc consts  --      0.0479                 0.0405                 0.1515
 IR Inten    --     17.2286                 1.2034                 3.2056

                      4                      5                      6
                      A                      A                      A
 Frequencies --    179.3273               260.7066               275.1700
 Red. masses --      6.5322                 5.7916                 5.1305
 Frc consts  --      0.1238                 0.2319                 0.2289
 IR Inten    --      0.5915                15.3417                26.8569

                      7                      8                      9
                      A                      A                      A
 Frequencies --    305.0225               307.9035               335.1875
 Red. masses --      1.8406                 7.0736                 2.0644
 Frc consts  --      0.1009                 0.3951                 0.1367
 IR Inten    --     94.4277                27.0361                91.4983

                     10                     11                     12
                      A                      A                      A
 Frequencies --    349.1571               373.1917               428.2688
 Red. masses --     11.9492                 8.3931                 8.7214
 Frc consts  --      0.8583                 0.6887                 0.9425
 IR Inten    --      7.3261                 0.2747                 1.1014

                     13                     14                     15
                      A                      A                      A
 Frequencies --    442.7521               458.6605               519.6647
 Red. masses --      8.1953                 3.2531                11.2117
 Frc consts  --      0.9465                 0.4032                 1.7839
 IR Inten    --      6.8392                16.5489                 6.5259

                     16                     17                     18
                      A                      A                      A
 Frequencies --    534.9672               611.8548               652.6718
 Red. masses --      4.2931                 8.6052                 1.2521
 Frc consts  --      0.7239                 1.8981                 0.3143
 IR Inten    --      1.2353                49.8379                93.4662

                     19                     20                     21
                      A                      A                      A
 Frequencies --    664.0540               670.4058               689.7492
 Red. masses --      6.4272                 6.4281                 2.9018
 Frc consts  --      1.6699                 1.7022                 0.8134
 IR Inten    --     16.9633                 0.1779                94.6657

                     22                     23                     24
                      A                      A                      A
 Frequencies --    712.7624               738.2654               763.0221
 Red. masses --      6.6054                 4.0502                 1.8564
 Frc consts  --      1.9771                 1.3006                 0.6368
 IR Inten    --     13.6671                 6.9593                62.3615

                     25                     26                     27
                      A                      A                      A
 Frequencies --    838.9475               886.4552               937.9605
 Red. masses --      1.4143                 5.7933                 7.6201
 Frc consts  --      0.5865                 2.6822                 3.9499
 IR Inten    --      0.0385               170.1544               312.9202

                     28                     29                     30
                      A                      A                      A
 Frequencies --    960.5180               969.7072              1024.2714
 Red. masses --      1.3584                 1.2301                 2.1421
 Frc consts  --      0.7384                 0.6815                 1.3241
 IR Inten    --      4.9140                 0.0717                56.1473

                     31                     32                     33
                      A                      A                      A
 Frequencies --   1033.3927              1096.0331              1128.2507
 Red. masses --      6.5829                 2.7341                 2.0854
 Frc consts  --      4.1419                 1.9352                 1.5641
 IR Inten    --    437.3693                61.4072                21.5904

                     34                     35                     36
                      A                      A                      A
 Frequencies --   1151.2041              1181.6659              1220.0234
 Red. masses --      1.9011                 1.7372                 1.9444
 Frc consts  --      1.4844                 1.4292                 1.7051
 IR Inten    --    142.6803                70.7734               144.8795

                     37                     38                     39
                      A                      A                      A
 Frequencies --   1268.5054              1296.9986              1318.7082
 Red. masses --      2.1898                 2.8894                 2.2824
 Frc consts  --      2.0761                 2.8637                 2.3385
 IR Inten    --    284.9261               445.6728              1033.7936

                     40                     41                     42
                      A                      A                      A
 Frequencies --   1335.1287              1386.4170              1428.2882
 Red. masses --      2.4749                 5.5408                 6.8920
 Frc consts  --      2.5993                 6.2749                 8.2837
 IR Inten    --    465.2659              1299.6146                52.0482

                     43                     44                     45
                      A                      A                      A
 Frequencies --   1448.5331              1471.8274              1525.8199
 Red. masses --      2.3224                 3.1132                 4.3531
 Frc consts  --      2.8711                 3.9735                 5.9711
 IR Inten    --     84.1399                87.2869                 0.6784

                     46                     47                     48
                      A                      A                      A
 Frequencies --   1562.4131              1601.3622              1617.2225
 Red. masses --      5.8194                 5.3260                 6.5778
 Frc consts  --      8.3698                 8.0469                10.1361
 IR Inten    --    237.1659                15.1878                 0.6561

                     49                     50                     51
                      A                      A                      A
 Frequencies --   3135.7477              3150.1336              3164.2238
 Red. masses --      1.0842                 1.0882                 1.0932
 Frc consts  --      6.2809                 6.3624                 6.4486
 IR Inten    --     13.1379                29.1486                65.1599

                     52                     53                     54
                      A                      A                      A
 Frequencies --   3174.1786              3439.8857              3782.3334
 Red. masses --      1.0925                 1.0638                 1.0658
 Frc consts  --      6.4856                 7.4166                 8.9831
 IR Inten    --     52.5047               242.4642               156.6127

 - Thermochemistry -
 -------------------
 Temperature   298.150 Kelvin.  Pressure   1.00000 Atm.
 Atom     1 has atomic number  8 and mass  15.99491

 Molecular mass:   190.02661 amu.
 Principal axes and moments of inertia in atomic units:
                           1         2         3
     Eigenvalues --  1667.352002715.526984382.85953
           X            0.97192   0.22648   0.06394
           Y           -0.21320   0.96241  -0.16825
           Z           -0.09964   0.14989   0.98367
 This molecule is an asymmetric top.
 Rotational symmetry number  1.
 Warning -- assumption of classical behavior for rotation
           may cause significant error
 Rotational temperatures (Kelvin)      0.05195     0.03190     0.01976
 Rotational constants (GHZ):           1.08240     0.66460     0.41177
 Zero-point vibrational energy     360151.5 (Joules/Mol)
                                   86.07827 (Kcal/Mol)
 Warning -- explicit consideration of  17 degrees of freedom as
           vibrations may cause significant error
 Vibrational temperatures:    148.01   179.55   253.28   258.01   375.10
          (Kelvin)            395.91   438.86   443.00   482.26   502.36
                              536.94   616.18   637.02   659.91   747.68
                              769.70   880.32   939.05   955.43   964.56
                              992.40  1025.51  1062.20  1097.82  1207.06
                             1275.41  1349.52  1381.97  1395.19  1473.70
                             1486.82  1576.95  1623.30  1656.33  1700.15
                             1755.34  1825.10  1866.09  1897.33  1920.95
                             1994.74  2054.99  2084.12  2117.63  2195.31
                             2247.96  2304.00  2326.82  4511.64  4532.34
                             4552.61  4566.94  4949.23  5441.93

 Zero-point correction=                           0.137174 (Hartree/Particle)
 Thermal correction to Energy=                    0.148121
 Thermal correction to Enthalpy=                  0.149065
 Thermal correction to Gibbs Free Energy=         0.101026
 Sum of electronic and zero-point Energies=           -685.882638
 Sum of electronic and thermal Energies=              -685.871692
 Sum of electronic and thermal Enthalpies=            -685.870747
 Sum of electronic and thermal Free Energies=         -685.918787

                     E (Thermal)             CV                S
                      KCal/Mol        Cal/Mol-Kelvin    Cal/Mol-Kelvin
 Total                   92.947             43.888            101.107
 Electronic               0.000              0.000              0.000
 Translational            0.889              2.981             41.632
 Rotational               0.889              2.981             31.362
 Vibrational             91.170             37.926             28.113
 Vibration     1          0.605              1.947              3.399
 Vibration     2          0.610              1.928              3.025
 Vibration     3          0.628              1.872              2.370
 Vibration     4          0.629              1.868              2.335
 Vibration     5          0.669              1.745              1.657
 Vibration     6          0.677              1.719              1.564
 Vibration     7          0.696              1.664              1.389
 Vibration     8          0.698              1.659              1.374
 Vibration     9          0.716              1.605              1.235
 Vibration    10          0.726              1.577              1.170
 Vibration    11          0.745              1.527              1.067
 Vibration    12          0.790              1.409              0.864
 Vibration    13          0.802              1.377              0.818
 Vibration    14          0.817              1.342              0.770
 Vibration    15          0.875              1.206              0.611
 Vibration    16          0.890              1.173              0.576
 Vibration    17          0.971              1.007              0.430

 Optimization completed.
    -- Stationary point found.
 Normal termination of Gaussian 16 at Sun Feb 11 15:39:54 2024.
