 Gaussian 16, Revision A.03,
 Gaussian 16:  ES64L-G16RevA.03 25-Dec-2016

 ----------------------------------------------------------------------
 #P UB3LYP/6-311++G(d,p) nosym opt freq SCRF=(PCM,Solvent=n,n-DiMethylF
 ormamide)
 ----------------------------------------------------------------------

 -------
 Reduced
 -------
 Symbolic Z-matrix:
 Charge = -2 Multiplicity = 1

 SCF Done:  E(UB3LYP) =  -807.390466542     A.U. after   18 cycles
 SCF Done:  E(UB3LYP) =  -807.392272963     A.U. after   14 cycles
 SCF Done:  E(UB3LYP) =  -807.392550711     A.U. after   13 cycles
 SCF Done:  E(UB3LYP) =  -807.392595634     A.U. after   13 cycles
 SCF Done:  E(UB3LYP) =  -807.392613788     A.U. after   12 cycles
 SCF Done:  E(UB3LYP) =  -807.392624194     A.U. after   12 cycles
 SCF Done:  E(UB3LYP) =  -807.392635941     A.U. after   13 cycles
 SCF Done:  E(UB3LYP) =  -807.392635900     A.U. after   12 cycles
 SCF Done:  E(UB3LYP) =  -807.392633308     A.U. after   13 cycles
 SCF Done:  E(UB3LYP) =  -807.392634762     A.U. after   12 cycles
 SCF Done:  E(UB3LYP) =  -807.392644262     A.U. after   12 cycles
 SCF Done:  E(UB3LYP) =  -807.392645091     A.U. after   10 cycles
 SCF Done:  E(UB3LYP) =  -807.392645267     A.U. after   10 cycles
 SCF Done:  E(UB3LYP) =  -807.392645446     A.U. after   10 cycles
 SCF Done:  E(UB3LYP) =  -807.392645275     A.U. after   11 cycles
 SCF Done:  E(UB3LYP) =  -807.392645588     A.U. after   11 cycles
 Optimization completed.
    -- Stationary point found.
 Normal termination of Gaussian 16 at Sun Feb 11 04:13:22 2024.

 ----------------------------------------------------------------------
 #P Geom=AllCheck Guess=TCheck SCRF=Check GenChk UB3LYP/6-311++G(d,p) F
 req
 ----------------------------------------------------------------------

 Structure from the checkpoint file:  "283-an.chk"
 -------
 Reduced
 -------
 Charge = -2 Multiplicity = 1

                          Input orientation:
 ---------------------------------------------------------------------
 Center     Atomic      Atomic             Coordinates (Angstroms)
 Number     Number       Type             X           Y           Z
 ---------------------------------------------------------------------
      1          6           0       -1.909148    3.093835    0.195776
      2          6           0       -2.898464    2.320613    0.764417
      3          6           0       -2.665161    0.943115    1.015167
      4          6           0       -0.638128    2.553971   -0.156519
      5          6           0       -0.398145    1.144891    0.097861
      6          6           0       -1.442402    0.389546    0.684366
      7          6           0        0.375441    3.362048   -0.744783
      8          6           0        1.581868    2.704615   -1.045115
      9          6           0        1.860191    1.343351   -0.816458
     10          6           0        0.868596    0.507888   -0.229487
     11          8           0        0.279224    4.658818   -1.029480
     12          8           0        1.065429   -0.762393    0.001915
     13          1           0       -2.081332    4.147088    0.000338
     14          1           0       -3.856665    2.763484    1.020814
     15          1           0       -3.442404    0.331706    1.463358
     16          1           0       -1.246636   -0.661241    0.870345
     17          6           0        3.209229    0.774242   -1.188838
     18          8           0        2.533678    3.533455   -1.621101
     19          1           0        3.573951    1.248217   -2.108006
     20          1           0        3.086695   -0.293869   -1.394828
     21          1           0        2.028777    4.381996   -1.642378
     22          6           0        4.290806    0.939208   -0.101368
     23          6           0        5.650822    0.355377   -0.500108
     24          6           0        6.731165    0.507529    0.577095
     25          6           0        8.087698   -0.072948    0.164884
     26          1           0        3.945425    0.458283    0.821599
     27          1           0        4.407458    2.004853    0.130010
     28          1           0        5.995160    0.838926   -1.424472
     29          1           0        5.531549   -0.709690   -0.740984
     30          1           0        6.391231    0.019547    1.498941
     31          1           0        6.849081    1.570602    0.821032
     32          1           0        8.008904   -1.142969   -0.053657
     33          1           0        8.833858    0.050611    0.955383
     34          1           0        8.470977    0.420553   -0.734277
 ---------------------------------------------------------------------

 SCF Done:  E(UB3LYP) =  -807.392645588     A.U. after    1 cycles

 Alpha  occ. eigenvalues --  -19.10825 -19.02202 -19.01308 -10.17475 -10.17000
 Alpha  occ. eigenvalues --  -10.15845 -10.15624 -10.15140 -10.15096 -10.14742
 Alpha  occ. eigenvalues --  -10.14595 -10.14375 -10.14365 -10.14286 -10.13968
 Alpha  occ. eigenvalues --  -10.13729 -10.13276 -10.12391  -1.01883  -0.92296
 Alpha  occ. eigenvalues --   -0.91439  -0.82174  -0.79362  -0.76933  -0.73998
 Alpha  occ. eigenvalues --   -0.71997  -0.70193  -0.66100  -0.63309  -0.59800
 Alpha  occ. eigenvalues --   -0.57929  -0.56744  -0.55363  -0.53272  -0.49960
 Alpha  occ. eigenvalues --   -0.46971  -0.46491  -0.44361  -0.43009  -0.42485
 Alpha  occ. eigenvalues --   -0.41616  -0.40810  -0.40097  -0.39771  -0.38055
 Alpha  occ. eigenvalues --   -0.37584  -0.36494  -0.35918  -0.35002  -0.34665
 Alpha  occ. eigenvalues --   -0.34606  -0.33999  -0.32597  -0.32043  -0.31918
 Alpha  occ. eigenvalues --   -0.31006  -0.30639  -0.30028  -0.29209  -0.29084
 Alpha  occ. eigenvalues --   -0.22694  -0.21978  -0.20996  -0.19263  -0.18886
 Alpha  occ. eigenvalues --   -0.11117
 Alpha virt. eigenvalues --   -0.00386  -0.00092   0.00395   0.01138   0.01557
 Alpha virt. eigenvalues --    0.01735   0.01988   0.02414   0.03127   0.03765
 Alpha virt. eigenvalues --    0.04003   0.04659   0.05043   0.05536   0.05763

  Beta  occ. eigenvalues --  -19.10825 -19.02202 -19.01308 -10.17475 -10.17000
  Beta  occ. eigenvalues --  -10.15845 -10.15624 -10.15140 -10.15096 -10.14742
  Beta  occ. eigenvalues --  -10.14595 -10.14375 -10.14365 -10.14286 -10.13968
  Beta  occ. eigenvalues --  -10.13729 -10.13276 -10.12391  -1.01883  -0.92296
  Beta  occ. eigenvalues --   -0.91439  -0.82174  -0.79362  -0.76933  -0.73998
  Beta  occ. eigenvalues --   -0.71997  -0.70193  -0.66100  -0.63309  -0.59800
  Beta  occ. eigenvalues --   -0.57929  -0.56744  -0.55363  -0.53272  -0.49960
  Beta  occ. eigenvalues --   -0.46971  -0.46491  -0.44361  -0.43009  -0.42485
  Beta  occ. eigenvalues --   -0.41616  -0.40810  -0.40097  -0.39771  -0.38055
  Beta  occ. eigenvalues --   -0.37584  -0.36494  -0.35918  -0.35002  -0.34665
  Beta  occ. eigenvalues --   -0.34606  -0.33999  -0.32597  -0.32043  -0.31918
  Beta  occ. eigenvalues --   -0.31006  -0.30639  -0.30028  -0.29209  -0.29084
  Beta  occ. eigenvalues --   -0.22694  -0.21978  -0.20996  -0.19263  -0.18886
  Beta  occ. eigenvalues --   -0.11117
  Beta virt. eigenvalues --   -0.00386  -0.00092   0.00395   0.01138   0.01557
  Beta virt. eigenvalues --    0.01735   0.01988   0.02414   0.03127   0.03765
  Beta virt. eigenvalues --    0.04003   0.04659   0.05043   0.05536   0.05763

 Mulliken charges and spin densities:
               1          2
     1  C   -0.047010   0.000000
     2  C   -0.403761  -0.000000
     3  C   -0.451287   0.000000
     4  C    0.343032   0.000000
     5  C    0.116746  -0.000000
     6  C    0.007246  -0.000000
     7  C   -0.960916  -0.000000
     8  C   -0.652786   0.000000
     9  C    1.969479   0.000000
    10  C   -0.808346   0.000000
    11  O   -0.756634   0.000000
    12  O   -0.678886  -0.000000
    13  H    0.144402  -0.000000
    14  H    0.155211   0.000000
    15  H    0.150495  -0.000000
    16  H    0.144184   0.000000
    17  C   -0.299763  -0.000000
    18  O   -0.334794  -0.000000
    19  H    0.183245  -0.000000
    20  H    0.181840   0.000000
    21  H    0.273476  -0.000000
    22  C   -0.447804   0.000000
    23  C   -0.178421  -0.000000
    24  C   -0.168425   0.000000
    25  C   -0.662915  -0.000000
    26  H    0.154311  -0.000000
    27  H    0.144585   0.000000
    28  H    0.106098  -0.000000
    29  H    0.102077   0.000000
    30  H    0.126713   0.000000
    31  H    0.127728  -0.000000
    32  H    0.139864  -0.000000
    33  H    0.141829   0.000000
    34  H    0.139184  -0.000000
 Sum of Mulliken charges =  -2.00000   0.00000

 Dipole moment (field-independent basis, Debye):
    X=             -5.5395    Y=            -18.3872    Z=              4.4339  Tot=             19.7087
 Quadrupole moment (field-independent basis, Debye-Ang):
   XX=           -140.5197   YY=           -204.9529   ZZ=           -126.6277
   XY=             -4.4107   XZ=              6.5414   YZ=             18.2624

  Exact polarizability: 405.045 -10.106 335.314 -68.450 -31.597 228.790
 Approx polarizability: 430.616  -2.820 383.206 -82.522 -40.792 252.582

                      1                      2                      3
                      A                      A                      A
 Frequencies --     31.8437                37.1047                59.4537
 Red. masses --      4.5624                 4.9422                 1.5932
 Frc consts  --      0.0027                 0.0040                 0.0033
 IR Inten    --      3.3464                 3.7385                 0.4934

                      4                      5                      6
                      A                      A                      A
 Frequencies --     98.8700               108.3152               120.1118
 Red. masses --      4.0022                 3.6587                 3.8919
 Frc consts  --      0.0231                 0.0253                 0.0331
 IR Inten    --     11.1759                 8.1019                 0.1295

                      7                      8                      9
                      A                      A                      A
 Frequencies --    149.2925               155.3243               176.1691
 Red. masses --      2.6774                 2.5538                 6.5645
 Frc consts  --      0.0352                 0.0363                 0.1200
 IR Inten    --      0.8712                 0.7103                 4.8147

                     10                     11                     12
                      A                      A                      A
 Frequencies --    197.3406               243.5774               259.9560
 Red. masses --      6.4556                 1.1238                 4.7013
 Frc consts  --      0.1481                 0.0393                 0.1872
 IR Inten    --      2.6867                 0.1870                13.7447

                     13                     14                     15
                      A                      A                      A
 Frequencies --    292.9836               306.6095               322.2291
 Red. masses --      4.6700                 2.7021                 5.9255
 Frc consts  --      0.2362                 0.1497                 0.3625
 IR Inten    --      3.9447                 5.8354                28.2468

                     16                     17                     18
                      A                      A                      A
 Frequencies --    347.4022               368.0522               387.5348
 Red. masses --      4.0765                 8.5913                 5.1669
 Frc consts  --      0.2899                 0.6857                 0.4572
 IR Inten    --      3.1210                 5.6327                 0.1804

                     19                     20                     21
                      A                      A                      A
 Frequencies --    431.5930               439.5988               458.6432
 Red. masses --      3.8584                 8.6109                 3.8776
 Frc consts  --      0.4235                 0.9804                 0.4806
 IR Inten    --      5.9770                 6.6452                 9.3696

                     22                     23                     24
                      A                      A                      A
 Frequencies --    492.8091               528.0690               562.2416
 Red. masses --      5.0045                 6.6218                 5.1477
 Frc consts  --      0.7161                 1.0879                 0.9588
 IR Inten    --      5.0451                 1.9574                 5.5387

                     25                     26                     27
                      A                      A                      A
 Frequencies --    633.9503               666.6316               689.6385
 Red. masses --      5.9983                 5.5125                 3.4292
 Frc consts  --      1.4203                 1.4433                 0.9609
 IR Inten    --     66.0136                 6.0560                 6.6230

                     28                     29                     30
                      A                      A                      A
 Frequencies --    693.1322               701.7726               725.4611
 Red. masses --      2.8014                 2.8790                 1.4758
 Frc consts  --      0.7930                 0.8354                 0.4576
 IR Inten    --    100.7983                 7.3232               149.0124

                     31                     32                     33
                      A                      A                      A
 Frequencies --    729.8932               752.1169               754.8260
 Red. masses --      1.1107                 2.1687                 1.3059
 Frc consts  --      0.3486                 0.7228                 0.4384
 IR Inten    --      8.4816                31.7763                 3.0944

                     34                     35                     36
                      A                      A                      A
 Frequencies --    775.6313               822.0225               837.9998
 Red. masses --      3.3696                 1.6188                 1.5036
 Frc consts  --      1.1944                 0.6445                 0.6221
 IR Inten    --      9.0700                18.9321                 0.1968

                     37                     38                     39
                      A                      A                      A
 Frequencies --    885.9825               891.0828               933.8283
 Red. masses --      2.1715                 2.1827                 4.1491
 Frc consts  --      1.0043                 1.0211                 2.1318
 IR Inten    --     71.8543                17.0146                66.6536

                     40                     41                     42
                      A                      A                      A
 Frequencies --    958.8048               971.3137               973.4511
 Red. masses --      1.3315                 1.2618                 1.4914
 Frc consts  --      0.7212                 0.7014                 0.8327
 IR Inten    --      2.3611                 1.1572                 1.0721

                     43                     44                     45
                      A                      A                      A
 Frequencies --   1001.4551              1018.1244              1025.0551
 Red. masses --      3.5854                 2.7761                 2.3801
 Frc consts  --      2.1186                 1.6955                 1.4734
 IR Inten    --     18.4385               237.1178                50.9754

                     46                     47                     48
                      A                      A                      A
 Frequencies --   1038.2731              1059.8516              1095.3935
 Red. masses --      3.3282                 2.3487                 2.4733
 Frc consts  --      2.1139                 1.5544                 1.7485
 IR Inten    --    253.3097                 1.9411               101.0740

                     49                     50                     51
                      A                      A                      A
 Frequencies --   1110.0289              1123.3824              1127.9302
 Red. masses --      1.8609                 2.2621                 1.7610
 Frc consts  --      1.3510                 1.6819                 1.3200
 IR Inten    --    180.8010                18.6463                 6.8158

                     52                     53                     54
                      A                      A                      A
 Frequencies --   1161.0257              1182.0821              1221.1086
 Red. masses --      2.1020                 1.7822                 1.6983
 Frc consts  --      1.6694                 1.4672                 1.4920
 IR Inten    --     57.2546                96.7124                 8.1468

                     55                     56                     57
                      A                      A                      A
 Frequencies --   1235.7638              1257.1547              1278.7385
 Red. masses --      2.2912                 1.3028                 1.9583
 Frc consts  --      2.0615                 1.2132                 1.8867
 IR Inten    --    264.2836                 9.9083                33.1961

                     58                     59                     60
                      A                      A                      A
 Frequencies --   1295.5638              1317.8220              1324.2625
 Red. masses --      1.4458                 5.4037                 1.1128
 Frc consts  --      1.4298                 5.5291                 1.1498
 IR Inten    --    174.0944               509.9014                39.3895

                     61                     62                     63
                      A                      A                      A
 Frequencies --   1325.0119              1328.6719              1340.8016
 Red. masses --      1.1998                 1.3834                 1.6290
 Frc consts  --      1.2410                 1.4390                 1.7255
 IR Inten    --    128.5522                 6.6413                99.6136

                     64                     65                     66
                      A                      A                      A
 Frequencies --   1364.3789              1381.0554              1386.7826
 Red. masses --      1.7144                 4.4335                 1.6141
 Frc consts  --      1.8803                 4.9822                 1.8290
 IR Inten    --    142.5986              1369.0361                12.7730

                     67                     68                     69
                      A                      A                      A
 Frequencies --   1401.8224              1420.1552              1435.6029
 Red. masses --      1.2398                 5.0416                 2.4970
 Frc consts  --      1.4354                 5.9909                 3.0321
 IR Inten    --      2.3893                91.1824               107.6625

                     70                     71                     72
                      A                      A                      A
 Frequencies --   1459.9511              1462.1803              1471.1338
 Red. masses --      2.6074                 1.1411                 1.0689
 Frc consts  --      3.2744                 1.4374                 1.3630
 IR Inten    --     55.7124                11.6291                 0.5697

                     73                     74                     75
                      A                      A                      A
 Frequencies --   1481.0655              1487.5469              1493.4576
 Red. masses --      1.0698                 1.0403                 1.0845
 Frc consts  --      1.3826                 1.3563                 1.4251
 IR Inten    --      2.6750                10.1526                 0.3742

                     76                     77                     78
                      A                      A                      A
 Frequencies --   1504.0418              1516.6409              1544.4547
 Red. masses --      1.0955                 4.2133                 5.2732
 Frc consts  --      1.4601                 5.7101                 7.4110
 IR Inten    --     14.8529                 6.0826               296.7101

                     79                     80                     81
                      A                      A                      A
 Frequencies --   1595.2050              1612.9177              2984.2035
 Red. masses --      5.2994                 5.8728                 1.0576
 Frc consts  --      7.9452                 9.0017                 5.5493
 IR Inten    --    142.2030                10.5915                33.0805

                     82                     83                     84
                      A                      A                      A
 Frequencies --   2998.0266              3000.4948              3003.9347
 Red. masses --      1.0585                 1.0602                 1.0986
 Frc consts  --      5.6054                 5.6238                 5.8410
 IR Inten    --     69.6438                14.0543                 5.4446

                     85                     86                     87
                      A                      A                      A
 Frequencies --   3008.5150              3011.5319              3025.8882
 Red. masses --      1.0605                 1.0356                 1.1014
 Frc consts  --      5.6555                 5.5335                 5.9417
 IR Inten    --    230.5385                54.4210                11.2075

                     88                     89                     90
                      A                      A                      A
 Frequencies --   3036.7520              3055.9190              3070.1983
 Red. masses --      1.1019                 1.1038                 1.1026
 Frc consts  --      5.9871                 6.0733                 6.1232
 IR Inten    --     63.0945               124.5203               122.5902

                     91                     92                     93
                      A                      A                      A
 Frequencies --   3074.0179              3135.1352              3150.7550
 Red. masses --      1.1011                 1.0843                 1.0882
 Frc consts  --      6.1306                 6.2795                 6.3650
 IR Inten    --     76.9235                17.4296                29.0512

                     94                     95                     96
                      A                      A                      A
 Frequencies --   3166.8110              3171.6227              3382.7194
 Red. masses --      1.0908                 1.0941                 1.0639
 Frc consts  --      6.4453                 6.4845                 7.1729
 IR Inten    --     53.9723                68.9372               266.0406

 - Thermochemistry -
 -------------------
 Temperature   298.150 Kelvin.  Pressure   1.00000 Atm.
 Atom     1 has atomic number  6 and mass  12.00000

 Molecular mass:   244.10994 amu.
 Principal axes and moments of inertia in atomic units:
                           1         2         3
     Eigenvalues --  2157.864249065.76662**********
           X            0.97493   0.18589   0.12232
           Y           -0.21808   0.90750   0.35901
           Z           -0.04427  -0.37668   0.92528
 This molecule is an asymmetric top.
 Rotational symmetry number  1.
 Warning -- assumption of classical behavior for rotation
           may cause significant error
 Rotational temperatures (Kelvin)      0.04014     0.00955     0.00811
 Rotational constants (GHZ):           0.83636     0.19907     0.16893
 Zero-point vibrational energy     718567.4 (Joules/Mol)
                                  171.74172 (Kcal/Mol)
 Warning -- explicit consideration of  24 degrees of freedom as
           vibrations may cause significant error
 Vibrational temperatures:     45.82    53.39    85.54   142.25   155.84
          (Kelvin)            172.81   214.80   223.48   253.47   283.93
                              350.45   374.02   421.54   441.14   463.62
                              499.83   529.55   557.58   620.97   632.48
                              659.89   709.04   759.77   808.94   912.11
                              959.13   992.24   997.26  1009.69  1043.78
                             1050.15  1082.13  1086.03  1115.96  1182.71
                             1205.69  1274.73  1282.07  1343.57  1379.51
                             1397.50  1400.58  1440.87  1464.85  1474.83
                             1493.84  1524.89  1576.03  1597.08  1616.30
                             1622.84  1670.46  1700.75  1756.90  1777.99
                             1808.77  1839.82  1864.03  1896.05  1905.32
                             1906.40  1911.66  1929.11  1963.04  1987.03
                             1995.27  2016.91  2043.29  2065.51  2100.54
                             2103.75  2116.63  2130.92  2140.25  2148.75
                             2163.98  2182.11  2222.13  2295.14  2320.63
                             4293.60  4313.49  4317.04  4321.99  4328.58
                             4332.92  4353.58  4369.21  4396.79  4417.33
                             4422.83  4510.76  4533.23  4556.33  4563.26
                             4866.98

 Zero-point correction=                           0.273688 (Hartree/Particle)
 Thermal correction to Energy=                    0.290348
 Thermal correction to Enthalpy=                  0.291292
 Thermal correction to Gibbs Free Energy=         0.228681
 Sum of electronic and zero-point Energies=           -807.118958
 Sum of electronic and thermal Energies=              -807.102298
 Sum of electronic and thermal Enthalpies=            -807.101354
 Sum of electronic and thermal Free Energies=         -807.163964

                     E (Thermal)             CV                S
                      KCal/Mol        Cal/Mol-Kelvin    Cal/Mol-Kelvin
 Total                  182.196             64.295            131.776
 Electronic               0.000              0.000              0.000
 Translational            0.889              2.981             42.378
 Rotational               0.889              2.981             33.702
 Vibrational            180.419             58.334             55.696
 Vibration     1          0.594              1.983              5.711
 Vibration     2          0.594              1.982              5.408
 Vibration     3          0.597              1.974              4.475
 Vibration     4          0.604              1.950              3.476
 Vibration     5          0.606              1.943              3.299
 Vibration     6          0.609              1.932              3.099
 Vibration     7          0.618              1.903              2.681
 Vibration     8          0.620              1.897              2.606
 Vibration     9          0.628              1.872              2.369
 Vibration    10          0.637              1.844              2.158
 Vibration    11          0.659              1.773              1.777
 Vibration    12          0.668              1.746              1.662
 Vibration    13          0.688              1.687              1.457
 Vibration    14          0.697              1.661              1.381
 Vibration    15          0.707              1.631              1.299
 Vibration    16          0.725              1.581              1.178
 Vibration    17          0.741              1.538              1.088
 Vibration    18          0.756              1.497              1.010
 Vibration    19          0.793              1.401              0.853
 Vibration    20          0.800              1.384              0.828
 Vibration    21          0.817              1.342              0.770
 Vibration    22          0.849              1.266              0.676
 Vibration    23          0.883              1.188              0.592
 Vibration    24          0.918              1.113              0.519

 Optimization completed.
    -- Stationary point found.
 Normal termination of Gaussian 16 at Sun Feb 11 05:34:28 2024.
