 Gaussian 16, Revision A.03,
 Gaussian 16:  ES64L-G16RevA.03 25-Dec-2016

 ----------------------------------------------------------------
 #P UB3LYP/6-311++G(d,p) SCRF=(PCM,Solvent=n,n-DiMethylFormamide)
 ----------------------------------------------------------------

 ------------------
 Quinone PCM in DMF
 ------------------
 Symbolic Z-matrix:
 Charge =  0 Multiplicity = 1

                         Standard orientation:
 ---------------------------------------------------------------------
 Center     Atomic      Atomic             Coordinates (Angstroms)
 Number     Number       Type             X           Y           Z
 ---------------------------------------------------------------------
      1          6           0        2.670400   -2.143337    0.000798
      2          6           0        1.886114   -0.866810    0.000323
      3          6           0        2.443160    0.355962    0.000496
      4          6           0        1.640159    1.595874   -0.000158
      5          8           0        2.165269    2.697760   -0.000468
      6          6           0        0.162226    1.464437   -0.000297
      7          6           0       -0.416928    0.257375   -0.000177
      8         35           0       -2.303847    0.053638    0.000318
      9          6           0        0.391054   -1.008947   -0.000592
     10          8           0       -0.130230   -2.103911   -0.001634
     11          1           0        2.418653   -2.749271    0.875349
     12          1           0        3.741839   -1.941348    0.001877
     13          1           0        2.420426   -2.748743   -0.874645
     14          1           0        3.518980    0.495680    0.001089
     15          1           0       -0.402681    2.388242   -0.000339
 ---------------------------------------------------------------------

 SCF Done:  E(UB3LYP) =  -2994.44291060     A.U. after   15 cycles

 The electronic state is 1-A.
 Alpha  occ. eigenvalues -- -482.85285 -62.50555 -56.32599 -56.32213 -56.32175
 Alpha  occ. eigenvalues --  -19.15619 -19.14805 -10.30409 -10.29444 -10.27031
 Alpha  occ. eigenvalues --  -10.23010 -10.22283 -10.21074 -10.18276  -8.71521
 Alpha  occ. eigenvalues --   -6.54688  -6.53397  -6.53285  -2.65779  -2.65427
 Alpha  occ. eigenvalues --   -2.65342  -2.64315  -2.64314  -1.09069  -1.07820
 Alpha  occ. eigenvalues --   -0.88738  -0.84343  -0.78570  -0.73279  -0.70283
 Alpha  occ. eigenvalues --   -0.62337  -0.60633  -0.54369  -0.51813  -0.48272
 Alpha  occ. eigenvalues --   -0.47135  -0.45906  -0.45271  -0.43601  -0.43423
 Alpha  occ. eigenvalues --   -0.41960  -0.41198  -0.39890  -0.35895  -0.31319
 Alpha  occ. eigenvalues --   -0.30740  -0.30371  -0.28918  -0.28419
 Alpha virt. eigenvalues --   -0.14393  -0.03876  -0.02907  -0.01135  -0.00566
 Alpha virt. eigenvalues --    0.00902   0.01438   0.03158   0.03257   0.03617
 Alpha virt. eigenvalues --    0.05025   0.05357   0.06281   0.06845   0.06974

  Beta  occ. eigenvalues -- -482.85285 -62.50555 -56.32599 -56.32213 -56.32175
  Beta  occ. eigenvalues --  -19.15619 -19.14805 -10.30409 -10.29444 -10.27031
  Beta  occ. eigenvalues --  -10.23010 -10.22283 -10.21074 -10.18276  -8.71521
  Beta  occ. eigenvalues --   -6.54688  -6.53397  -6.53285  -2.65779  -2.65427
  Beta  occ. eigenvalues --   -2.65342  -2.64315  -2.64314  -1.09069  -1.07820
  Beta  occ. eigenvalues --   -0.88738  -0.84343  -0.78570  -0.73279  -0.70283
  Beta  occ. eigenvalues --   -0.62337  -0.60633  -0.54369  -0.51813  -0.48272
  Beta  occ. eigenvalues --   -0.47135  -0.45906  -0.45271  -0.43601  -0.43423
  Beta  occ. eigenvalues --   -0.41960  -0.41198  -0.39890  -0.35895  -0.31319
  Beta  occ. eigenvalues --   -0.30740  -0.30371  -0.28918  -0.28419
  Beta virt. eigenvalues --   -0.14393  -0.03876  -0.02907  -0.01135  -0.00566
  Beta virt. eigenvalues --    0.00902   0.01438   0.03158   0.03257   0.03617
  Beta virt. eigenvalues --    0.05025   0.05357   0.06281   0.06845   0.06974

 Mulliken charges and spin densities:
               1          2
     1  C   -0.363316   0.000000
     2  C    1.636823   0.000000
     3  C   -0.842818   0.000000
     4  C   -0.333359   0.000000
     5  O   -0.288964   0.000000
     6  C    0.166908  -0.000000
     7  C    0.771725   0.000000
     8  Br  -0.072801  -0.000000
     9  C   -1.528582  -0.000000
    10  O   -0.199044   0.000000
    11  H    0.191590  -0.000000
    12  H    0.171048  -0.000000
    13  H    0.191612  -0.000000
    14  H    0.215920   0.000000
    15  H    0.283257   0.000000
 Sum of Mulliken charges =  -0.00000   0.00000

 Dipole moment (field-independent basis, Debye):
    X=              1.6243    Y=             -1.1013    Z=              0.0037  Tot=              1.9625
 Quadrupole moment (field-independent basis, Debye-Ang):
   XX=            -65.6893   YY=            -82.5545   ZZ=            -69.5513
   XY=            -13.7350   XZ=              0.0031   YZ=             -0.0052

 Normal termination of Gaussian 16 at Sun Jan 21 06:46:35 2024.
