 Gaussian 16, Revision A.03,
 Gaussian 16:  ES64L-G16RevA.03 25-Dec-2016

 ----------------------------------------------------------------------
 #P UB3LYP/6-311++G(d,p) nosym opt freq SCRF=(PCM,Solvent=n,n-DiMethylF
 ormamide)
 ----------------------------------------------------------------------

 -------
 Reduced
 -------
 Symbolic Z-matrix:
 Charge = -2 Multiplicity = 1

 SCF Done:  E(UB3LYP) =  -573.854954161     A.U. after   18 cycles
 SCF Done:  E(UB3LYP) =  -573.855883023     A.U. after   14 cycles
 SCF Done:  E(UB3LYP) =  -573.856025745     A.U. after   14 cycles
 SCF Done:  E(UB3LYP) =  -573.856021859     A.U. after   13 cycles
 SCF Done:  E(UB3LYP) =  -573.856041581     A.U. after   12 cycles
 SCF Done:  E(UB3LYP) =  -573.856067367     A.U. after   12 cycles
 SCF Done:  E(UB3LYP) =  -573.856076191     A.U. after   12 cycles
 SCF Done:  E(UB3LYP) =  -573.856078361     A.U. after   11 cycles
 SCF Done:  E(UB3LYP) =  -573.856081058     A.U. after   11 cycles
 SCF Done:  E(UB3LYP) =  -573.856083077     A.U. after   11 cycles
 SCF Done:  E(UB3LYP) =  -573.856084009     A.U. after   11 cycles
 SCF Done:  E(UB3LYP) =  -573.856084136     A.U. after   10 cycles
 SCF Done:  E(UB3LYP) =  -573.856084154     A.U. after    9 cycles
 Optimization completed.
    -- Stationary point found.
 Normal termination of Gaussian 16 at Sat Feb 10 10:28:21 2024.

 ----------------------------------------------------------------------
 #P Geom=AllCheck Guess=TCheck SCRF=Check GenChk UB3LYP/6-311++G(d,p) F
 req
 ----------------------------------------------------------------------

 Structure from the checkpoint file:  "059-an.chk"
 -------
 Reduced
 -------
 Charge = -2 Multiplicity = 1

                          Input orientation:
 ---------------------------------------------------------------------
 Center     Atomic      Atomic             Coordinates (Angstroms)
 Number     Number       Type             X           Y           Z
 ---------------------------------------------------------------------
      1          6           0       -0.554223    1.209624   -0.290312
      2          6           0       -1.449771    0.174874   -0.788873
      3          6           0       -1.154828   -1.165321   -0.656773
      4          6           0        0.035101   -1.675553   -0.027044
      5          6           0        0.899542   -0.685878    0.453144
      6          6           0        0.661170    0.729574    0.345599
      7          8           0       -0.889089    2.441727   -0.432291
      8          8           0        0.254622   -2.970513    0.066377
      9          6           0        1.658173    1.642016    0.887253
     10          6           0        2.862065    1.053764    1.637185
     11          8           0        1.626562    2.886054    0.794165
     12          1           0        2.555770    0.410323    2.466562
     13          1           0        3.457481    1.879434    2.027710
     14          1           0        3.491677    0.449350    0.976917
     15          1           0        1.811665   -1.031073    0.927045
     16          6           0       -2.724796    0.615450   -1.464495
     17          1           0       -1.858721   -1.899721   -1.049825
     18          1           0       -3.358298    1.202587   -0.789855
     19          1           0       -3.301696   -0.246375   -1.811095
     20          1           0       -2.521858    1.262318   -2.325422
 ---------------------------------------------------------------------

 SCF Done:  E(UB3LYP) =  -573.856084154     A.U. after    1 cycles

 Alpha  occ. eigenvalues --  -19.06561 -19.02551 -19.01119 -10.22015 -10.18418
 Alpha  occ. eigenvalues --  -10.16667 -10.14614 -10.14270 -10.13869 -10.13234
 Alpha  occ. eigenvalues --  -10.13069 -10.11589  -0.99034  -0.94047  -0.91509
 Alpha  occ. eigenvalues --   -0.78869  -0.74619  -0.70469  -0.66879  -0.63496
 Alpha  occ. eigenvalues --   -0.58653  -0.52419  -0.49075  -0.44330  -0.43680
 Alpha  occ. eigenvalues --   -0.42199  -0.41509  -0.39718  -0.38768  -0.38678
 Alpha  occ. eigenvalues --   -0.36405  -0.35673  -0.34935  -0.34830  -0.32729
 Alpha  occ. eigenvalues --   -0.32607  -0.31542  -0.30663  -0.23204  -0.22526
 Alpha  occ. eigenvalues --   -0.21636  -0.19307  -0.18434  -0.12486
 Alpha virt. eigenvalues --   -0.02284   0.00142   0.01015   0.02014   0.03378
 Alpha virt. eigenvalues --    0.03452   0.04000   0.04538   0.05361   0.05803
 Alpha virt. eigenvalues --    0.06140   0.06611   0.07431   0.07816   0.09070

  Beta  occ. eigenvalues --  -19.06561 -19.02551 -19.01119 -10.22015 -10.18418
  Beta  occ. eigenvalues --  -10.16667 -10.14614 -10.14270 -10.13869 -10.13234
  Beta  occ. eigenvalues --  -10.13069 -10.11589  -0.99034  -0.94047  -0.91509
  Beta  occ. eigenvalues --   -0.78869  -0.74619  -0.70469  -0.66879  -0.63496
  Beta  occ. eigenvalues --   -0.58653  -0.52419  -0.49075  -0.44330  -0.43680
  Beta  occ. eigenvalues --   -0.42199  -0.41509  -0.39718  -0.38768  -0.38678
  Beta  occ. eigenvalues --   -0.36405  -0.35673  -0.34935  -0.34830  -0.32729
  Beta  occ. eigenvalues --   -0.32607  -0.31542  -0.30663  -0.23204  -0.22526
  Beta  occ. eigenvalues --   -0.21636  -0.19307  -0.18434  -0.12486
  Beta virt. eigenvalues --   -0.02284   0.00142   0.01015   0.02014   0.03378
  Beta virt. eigenvalues --    0.03452   0.04000   0.04538   0.05361   0.05803
  Beta virt. eigenvalues --    0.06140   0.06611   0.07431   0.07816   0.09070

 Mulliken charges and spin densities:
               1          2
     1  C   -1.480903  -0.000000
     2  C    1.213341   0.000000
     3  C   -0.435607   0.000000
     4  C   -0.489867  -0.000000
     5  C   -0.877078  -0.000000
     6  C    1.755190   0.000000
     7  O   -0.594472  -0.000000
     8  O   -0.758511   0.000000
     9  C   -0.134860  -0.000000
    10  C   -0.479511   0.000000
    11  O   -0.461688   0.000000
    12  H    0.150664  -0.000000
    13  H    0.167280   0.000000
    14  H    0.156649  -0.000000
    15  H    0.120847   0.000000
    16  C   -0.392104   0.000000
    17  H    0.117078   0.000000
    18  H    0.145781   0.000000
    19  H    0.132584  -0.000000
    20  H    0.145187   0.000000
 Sum of Mulliken charges =  -2.00000   0.00000

 Dipole moment (field-independent basis, Debye):
    X=             -0.9515    Y=             -2.1643    Z=             -0.1285  Tot=              2.3677
 Quadrupole moment (field-independent basis, Debye-Ang):
   XX=            -84.7854   YY=           -157.8422   ZZ=            -79.6678
   XY=              0.5003   XZ=             -2.8282   YZ=             -0.2370

  Exact polarizability: 234.969  14.037 254.475  63.592   8.765 150.016
 Approx polarizability: 253.667  15.225 285.880  67.247   9.186 162.456

                      1                      2                      3
                      A                      A                      A
 Frequencies --     44.7554                86.4369               147.6174
 Red. masses --      3.6604                 8.3220                 3.5179
 Frc consts  --      0.0043                 0.0366                 0.0452
 IR Inten    --     22.0732                 1.7054                 9.1501

                      4                      5                      6
                      A                      A                      A
 Frequencies --    158.3279               173.5667               207.1648
 Red. masses --      1.2997                 1.0910                 5.0429
 Frc consts  --      0.0192                 0.0194                 0.1275
 IR Inten    --      3.4075                 0.0989                10.4569

                      7                      8                      9
                      A                      A                      A
 Frequencies --    211.6886               298.1368               348.1128
 Red. masses --      2.5352                 3.5329                 6.9125
 Frc consts  --      0.0669                 0.1850                 0.4935
 IR Inten    --      0.0955                 2.5711                 3.0547

                     10                     11                     12
                      A                      A                      A
 Frequencies --    354.2418               393.5557               416.5261
 Red. masses --      5.6652                 4.2798                 9.0392
 Frc consts  --      0.4189                 0.3906                 0.9240
 IR Inten    --      2.7358                16.0394                54.2924

                     13                     14                     15
                      A                      A                      A
 Frequencies --    443.0826               477.2037               532.0001
 Red. masses --      4.3117                 9.1570                 5.6181
 Frc consts  --      0.4987                 1.2286                 0.9368
 IR Inten    --      4.1407                17.4179                14.4782

                     16                     17                     18
                      A                      A                      A
 Frequencies --    585.7947               599.2534               622.3748
 Red. masses --      2.3948                 3.8761                 2.5537
 Frc consts  --      0.4842                 0.8201                 0.5828
 IR Inten    --      5.5517                 8.0581                 2.0855

                     19                     20                     21
                      A                      A                      A
 Frequencies --    659.3419               771.9694               805.6244
 Red. masses --      4.3127                 4.7040                 5.3384
 Frc consts  --      1.1047                 1.6517                 2.0414
 IR Inten    --     19.3771                19.3597                90.4216

                     22                     23                     24
                      A                      A                      A
 Frequencies --    810.3371               861.1404               880.3080
 Red. masses --      1.7271                 5.9545                 1.4902
 Frc consts  --      0.6682                 2.6016                 0.6804
 IR Inten    --     39.7030                52.3814                27.6031

                     25                     26                     27
                      A                      A                      A
 Frequencies --    956.2749               998.2668              1015.7572
 Red. masses --      2.1598                 2.0346                 2.3297
 Frc consts  --      1.1637                 1.1946                 1.4162
 IR Inten    --    182.0634               131.7746               170.9953

                     28                     29                     30
                      A                      A                      A
 Frequencies --   1021.1613              1048.1794              1105.7055
 Red. masses --      1.8520                 1.4968                 2.5793
 Frc consts  --      1.1378                 0.9689                 1.8579
 IR Inten    --      8.4212                 3.5111                18.7005

                     31                     32                     33
                      A                      A                      A
 Frequencies --   1185.1742              1228.0917              1250.7153
 Red. masses --      2.6160                 1.8844                 4.4128
 Frc consts  --      2.1650                 1.6745                 4.0670
 IR Inten    --    568.8247               349.5156               385.8502

                     34                     35                     36
                      A                      A                      A
 Frequencies --   1325.0607              1345.9405              1371.1281
 Red. masses --      3.2542                 3.1250                 1.5904
 Frc consts  --      3.3664                 3.3355                 1.7616
 IR Inten    --    182.5471               335.8391                92.3464

                     37                     38                     39
                      A                      A                      A
 Frequencies --   1390.4417              1407.9145              1415.9368
 Red. masses --      1.6349                 3.1900                 3.0056
 Frc consts  --      1.8622                 3.7256                 3.5503
 IR Inten    --    233.0870               180.4078               720.0493

                     40                     41                     42
                      A                      A                      A
 Frequencies --   1459.6531              1465.1071              1470.2881
 Red. masses --      1.0478                 1.1101                 1.0495
 Frc consts  --      1.3154                 1.4039                 1.3367
 IR Inten    --      7.9374               140.6025                11.1867

                     43                     44                     45
                      A                      A                      A
 Frequencies --   1479.9777              1504.9763              1583.0390
 Red. masses --      1.1867                 4.4375                 6.2050
 Frc consts  --      1.5315                 5.9218                 9.1617
 IR Inten    --    155.6389               195.6667              1290.2110

                     46                     47                     48
                      A                      A                      A
 Frequencies --   1629.2855              3001.5908              3023.3444
 Red. masses --      6.7875                 1.0365                 1.0369
 Frc consts  --     10.6158                 5.5022                 5.5843
 IR Inten    --     58.7644               135.8200                36.8286

                     49                     50                     51
                      A                      A                      A
 Frequencies --   3038.5688              3076.4383              3080.1749
 Red. masses --      1.0985                 1.1005                 1.0995
 Frc consts  --      5.9756                 6.1370                 6.1460
 IR Inten    --     63.0114                38.6397                30.9165

                     52                     53                     54
                      A                      A                      A
 Frequencies --   3099.7700              3115.1393              3160.3287
 Red. masses --      1.0875                 1.1018                 1.0862
 Frc consts  --      6.1565                 6.2993                 6.3918
 IR Inten    --    138.8913                40.9173                56.0372

 - Thermochemistry -
 -------------------
 Temperature   298.150 Kelvin.  Pressure   1.00000 Atm.
 Atom     1 has atomic number  6 and mass  12.00000

 Molecular mass:   164.04734 amu.
 Principal axes and moments of inertia in atomic units:
                           1         2         3
     Eigenvalues --  1481.426232132.393733589.73768
           X            0.66763  -0.57307  -0.47524
           Y            0.64737   0.76212  -0.00956
           Z            0.36767  -0.30128   0.87980
 This molecule is an asymmetric top.
 Rotational symmetry number  1.
 Warning -- assumption of classical behavior for rotation
           may cause significant error
 Rotational temperatures (Kelvin)      0.05847     0.04062     0.02413
 Rotational constants (GHZ):           1.21825     0.84635     0.50275
 Zero-point vibrational energy     383654.3 (Joules/Mol)
                                   91.69558 (Kcal/Mol)
 Warning -- explicit consideration of  17 degrees of freedom as
           vibrations may cause significant error
 Vibrational temperatures:     64.39   124.36   212.39   227.80   249.72
          (Kelvin)            298.06   304.57   428.95   500.86   509.67
                              566.24   599.29   637.50   686.59   765.43
                              842.83   862.19   895.46   948.65  1110.69
                             1159.11  1165.89  1238.99  1266.57  1375.87
                             1436.28  1461.45  1469.22  1508.10  1590.86
                             1705.20  1766.95  1799.50  1906.47  1936.51
                             1972.75  2000.54  2025.67  2037.22  2100.12
                             2107.96  2115.42  2129.36  2165.33  2277.64
                             2344.18  4318.62  4349.92  4371.82  4426.31
                             4431.68  4459.88  4481.99  4547.01

 Zero-point correction=                           0.146126 (Hartree/Particle)
 Thermal correction to Energy=                    0.157302
 Thermal correction to Enthalpy=                  0.158246
 Thermal correction to Gibbs Free Energy=         0.108940
 Sum of electronic and zero-point Energies=           -573.709958
 Sum of electronic and thermal Energies=              -573.698782
 Sum of electronic and thermal Enthalpies=            -573.697838
 Sum of electronic and thermal Free Energies=         -573.747145

                     E (Thermal)             CV                S
                      KCal/Mol        Cal/Mol-Kelvin    Cal/Mol-Kelvin
 Total                   98.709             41.773            103.775
 Electronic               0.000              0.000              0.000
 Translational            0.889              2.981             41.193
 Rotational               0.889              2.981             30.806
 Vibrational             96.931             35.812             31.775
 Vibration     1          0.595              1.979              5.037
 Vibration     2          0.601              1.959              3.739
 Vibration     3          0.617              1.905              2.703
 Vibration     4          0.621              1.893              2.570
 Vibration     5          0.627              1.875              2.397
 Vibration     6          0.641              1.830              2.069
 Vibration     7          0.643              1.823              2.029
 Vibration     8          0.691              1.677              1.427
 Vibration     9          0.726              1.579              1.175
 Vibration    10          0.730              1.567              1.147
 Vibration    11          0.761              1.484              0.987
 Vibration    12          0.780              1.434              0.904
 Vibration    13          0.803              1.376              0.817
 Vibration    14          0.834              1.301              0.718
 Vibration    15          0.887              1.179              0.583
 Vibration    16          0.943              1.062              0.475
 Vibration    17          0.957              1.033              0.451

 Optimization completed.
    -- Stationary point found.
 Normal termination of Gaussian 16 at Sat Feb 10 10:37:54 2024.
