 Q-Chem 5.4, Q-Chem, Inc., Pleasanton, CA (2021)
 Q-Chem 5.4.0 for Intel X86 EM64T Linux

User input:
--------------------------------------------------------------
$molecule
-1 2
C                 -3.3914420000     -0.7196160000     -0.3756110000
C                 -1.9822180000     -0.2795940000     -0.0837110000
C                 -1.7117580000      0.7086790000      0.8421110000
C                 -0.3937130000      1.1585960000      1.1518980000
O                 -0.1742480000      2.0807750000      2.0188300000
C                  0.7068100000      0.5227380000      0.4370630000
C                  2.0490480000      0.9230290000      0.6967680000
O                  2.3075830000      1.8899600000      1.6031010000
C                  3.1023690000      0.3179950000      0.0159720000
C                  2.8388980000     -0.6865500000     -0.9261400000
C                  1.5412130000     -1.0922320000     -1.1951990000
C                  0.4595700000     -0.4966410000     -0.5208420000
C                 -0.9175460000     -0.9359650000     -0.8148550000
O                 -1.1569640000     -1.8384250000     -1.6609800000
H                 -4.1115430000     -0.1604030000      0.2282590000
H                 -3.5168660000     -1.7895120000     -0.1770710000
H                 -3.6334160000     -0.5814480000     -1.4349250000
H                 -2.5217780000      1.1917050000      1.3826730000
H                  1.3976220000      2.1634110000      1.9513320000
H                  4.1148690000      0.6410430000      0.2321790000
H                  3.6696400000     -1.1507580000     -1.4505780000
H                  1.3238680000     -1.8667850000     -1.9202740000
$end

$rem
BASIS  =  6-311++G(d,p)
GUI  =  2
JOB_TYPE  =  SP
METHOD  =  B3LYP
SCF_CONVERGENCE  = 8
SOLVENT_METHOD = sm12
$end

$smx
solvent dimethylformamide
charges CM5
$end

--------------------------------------------------------------

             Standard Nuclear Orientation (Angstroms)
    I     Atom           X                Y                Z
 ----------------------------------------------------------------
    1      C      -3.3914420000    -0.7196160000    -0.3756110000
    2      C      -1.9822180000    -0.2795940000    -0.0837110000
    3      C      -1.7117580000     0.7086790000     0.8421110000
    4      C      -0.3937130000     1.1585960000     1.1518980000
    5      O      -0.1742480000     2.0807750000     2.0188300000
    6      C       0.7068100000     0.5227380000     0.4370630000
    7      C       2.0490480000     0.9230290000     0.6967680000
    8      O       2.3075830000     1.8899600000     1.6031010000
    9      C       3.1023690000     0.3179950000     0.0159720000
   10      C       2.8388980000    -0.6865500000    -0.9261400000
   11      C       1.5412130000    -1.0922320000    -1.1951990000
   12      C       0.4595700000    -0.4966410000    -0.5208420000
   13      C      -0.9175460000    -0.9359650000    -0.8148550000
   14      O      -1.1569640000    -1.8384250000    -1.6609800000
   15      H      -4.1115430000    -0.1604030000     0.2282590000
   16      H      -3.5168660000    -1.7895120000    -0.1770710000
   17      H      -3.6334160000    -0.5814480000    -1.4349250000
   18      H      -2.5217780000     1.1917050000     1.3826730000
   19      H       1.3976220000     2.1634110000     1.9513320000
   20      H       4.1148690000     0.6410430000     0.2321790000
   21      H       3.6696400000    -1.1507580000    -1.4505780000
   22      H       1.3238680000    -1.8667850000    -1.9202740000
 ----------------------------------------------------------------

   18    -649.9264867074      5.20e-09  Convergence criterion met
 Total energy in the final basis set =     -650.0117386860

                    Orbital Energies (a.u.)
 --------------------------------------------------------------

 Alpha MOs
 -- Occupied --
-19.1345 -19.0930 -19.0810 -10.2424 -10.2347 -10.2257 -10.1859 -10.1838
-10.1824 -10.1816 -10.1757 -10.1723 -10.1694 -10.1677  -1.0575  -1.0059
 -1.0037  -0.8628  -0.8206  -0.7661  -0.7487  -0.7102  -0.6719  -0.6323
 -0.6019  -0.5780  -0.5198  -0.5159  -0.5030  -0.4697  -0.4575  -0.4403
 -0.4384  -0.4233  -0.4186  -0.4034  -0.3957  -0.3854  -0.3818  -0.3800
 -0.3795  -0.3606  -0.3522  -0.3347  -0.2819  -0.2589  -0.2579  -0.2423
 -0.2357  -0.1601

 Beta MOs
 -- Occupied --
-19.1343 -19.0873 -19.0742 -10.2424 -10.2327 -10.2245 -10.1856 -10.1831
-10.1816 -10.1803 -10.1750 -10.1720 -10.1685 -10.1679  -1.0564  -0.9964
 -0.9922  -0.8605  -0.8157  -0.7640  -0.7463  -0.7069  -0.6656  -0.6302
 -0.5990  -0.5758  -0.5187  -0.5139  -0.4997  -0.4675  -0.4565  -0.4359
 -0.4314  -0.4197  -0.4146  -0.3994  -0.3945  -0.3845  -0.3787  -0.3713
 -0.3588  -0.3577  -0.3503  -0.3246  -0.2571  -0.2531  -0.2513  -0.2363
 -0.2278

          Ground-State Mulliken Net Atomic Charges

     Atom                 Charge (a.u.)    Spin (a.u.)
  --------------------------------------------------------
      1 C                     0.918527       0.004498
      2 C                     0.554330       0.125083
      3 C                    -0.007914       0.054779
      4 C                    -1.690439       0.089520
      5 O                    -0.378395       0.203429
      6 C                    -0.313712       0.028061
      7 C                    -0.675783       0.022104
      8 O                    -0.307271       0.006536
      9 C                     0.858456       0.049640
     10 C                     0.868052       0.025158
     11 C                    -0.318515       0.051027
     12 C                    -0.752300       0.012801
     13 C                    -1.400147       0.082411
     14 O                    -0.319767       0.253588
     15 H                     0.271508       0.000162
     16 H                     0.192760       0.006743
     17 H                     0.192964       0.006707
     18 H                     0.172652      -0.007798
     19 H                     0.346238      -0.004664
     20 H                     0.271237      -0.004003
     21 H                     0.374631      -0.001984
     22 H                     0.142888      -0.003797
  --------------------------------------------------------
  Sum of atomic charges =    -1.000000

                    Cartesian Multipole Moments
 -----------------------------------------------------------------
    Charge (ESU x 10^10)
                -4.8032
    Dipole Moment (Debye)
         X      -0.3842      Y      -1.1586      Z      -1.0803
       Tot       1.6300
    Quadrupole Moments (Debye-Ang)
        XX     -93.2364     XY      -8.0632     YY    -104.3993
        XZ      -7.2011     YZ     -15.6699     ZZ    -101.7398

 Total job time:  411.53s(wall), 2961.48s(cpu)
        *  Thank you very much for using Q-Chem.  Have a nice day.  *
