 Q-Chem 5.4, Q-Chem, Inc., Pleasanton, CA (2021)
 Q-Chem 5.4.0 for Intel X86 EM64T Linux

User input:
--------------------------------------------------------------
$molecule
0 1
C                 -3.9477040000      0.9599470000      0.9304890000
C                 -3.2888200000     -0.0739300000     -0.0130980000
C                 -3.4756110000     -1.4741360000      0.5984770000
C                 -4.0009690000     -0.0447800000     -1.3861810000
C                 -1.8066010000      0.2857480000     -0.2031800000
C                 -1.4509110000      1.5334750000     -0.7506060000
C                 -0.1264840000      1.8967590000     -0.9381360000
C                  0.9045730000      1.0210280000     -0.5837300000
C                  2.3201160000      1.4307940000     -0.7930820000
O                  2.6051080000      2.5185870000     -1.2689700000
C                  3.3811640000      0.4572440000     -0.3974060000
C                  4.7234220000      0.8045020000     -0.5779660000
C                  5.7298010000     -0.0839800000     -0.2179420000
C                  5.4037920000     -1.3293340000      0.3265130000
C                  4.0722770000     -1.6831080000      0.5097200000
C                  3.0529560000     -0.7957030000      0.1505470000
C                  1.6312750000     -1.2023100000      0.3589020000
O                  1.3490010000     -2.2905160000      0.8348200000
C                  0.5728630000     -0.2277410000     -0.0369460000
C                 -0.7690640000     -0.5791590000      0.1460890000
H                 -5.0046100000      0.7167490000      1.0741730000
H                 -3.4632280000      0.9594020000      1.9106830000
H                 -3.8918990000      1.9744690000      0.5291070000
H                 -3.0543730000     -2.2570930000     -0.0375980000
H                 -4.5426030000     -1.6818710000      0.7137730000
H                 -3.0159310000     -1.5525520000      1.5872170000
H                 -3.9467040000      0.9406760000     -1.8545570000
H                 -5.0583990000     -0.2981730000     -1.2658310000
H                 -3.5548560000     -0.7685320000     -2.0736790000
H                 -2.2250140000      2.2360770000     -1.0363220000
H                  0.1341260000      2.8597240000     -1.3600430000
H                  4.9526290000      1.7745140000     -1.0015420000
H                  6.7690520000      0.1901070000     -0.3599780000
H                  6.1902140000     -2.0210060000      0.6066280000
H                  3.7968320000     -2.6425300000      0.9298010000
H                 -0.9654170000     -1.5533500000      0.5713400000
$end
$rem
MAX_SCF_CYCLES=200
BASIS  =  6-311++G(d,p)
GUI  =  2
JOB_TYPE  =  SP
METHOD  =  B3LYP
SOLVENT_METHOD = COSMO
$end
$solvent
dielectric 37.219
opticaldielectric 1.43
$end

--------------------------------------------------------------

             Standard Nuclear Orientation (Angstroms)
    I     Atom           X                Y                Z
 ----------------------------------------------------------------
    1      C      -4.6465452936     0.2491404418     1.2619498276
    2      C      -3.9409373588    -0.3019577303     0.0002864612
    3      C      -4.0743891247    -1.8354748649     0.0030295914
    4      C      -4.6457914896     0.2445850892    -1.2637683028
    5      C      -2.4734303148     0.1550931554    -0.0001112433
    6      C      -2.1654152735     1.5291890653    -0.0007692211
    7      C      -0.8557288862     1.9830295777    -0.0007606826
    8      C       0.2078890971     1.0751179332    -0.0003536555
    9      C       1.6068584977     1.5834317387    -0.0000205368
   10      O       1.8502996742     2.7799766862     0.0001269326
   11      C       2.7041661296     0.5704668400     0.0001604165
   12      C       4.0322774760     1.0074641283     0.0005988600
   13      C       5.0717221345     0.0847664323     0.0005855861
   14      C       4.7932842350    -1.2849385689     0.0000892951
   15      C       3.4761555368    -1.7285880987    -0.0002714547
   16      C       2.4238184269    -0.8076674844    -0.0001796224
   17      C       1.0185939782    -1.3129022384    -0.0003074408
   18      O       0.7778850777    -2.5097430911    -0.0005330148
   19      C      -0.0761201296    -0.2988424058    -0.0001864113
   20      C      -1.4037465228    -0.7406258578     0.0000062105
   21      H      -5.6935449720    -0.0678183278     1.2749676475
   22      H      -4.1680773101    -0.1232622954     2.1718301271
   23      H      -4.6295603113     1.3409229427     1.2965775277
   24      H      -3.6181524769    -2.2866752091    -0.8820245836
   25      H      -5.1327393125    -2.1089948428     0.0038217160
   26      H      -3.6175925464    -2.2835638075     0.8893787013
   27      H      -4.6287839310     1.3362257127    -1.3021842838
   28      H      -5.6927680458    -0.0724880830    -1.2762195727
   29      H      -4.1668026919    -0.1310408577    -2.1720425708
   30      H      -2.9656786051     2.2600085026    -0.0012251169
   31      H      -0.6319049621     3.0428066573    -0.0010298740
   32      H       4.2244489220     2.0732717044     0.0009195117
   33      H       6.0998214690     0.4287899526     0.0009401825
   34      H       5.6054458619    -2.0030803475    -0.0000038067
   35      H       3.2373760489    -2.7849085153    -0.0005912831
   36      H      -1.5629318603    -1.8097848627     0.0002682716
 ----------------------------------------------------------------

    9    -846.2514324252      2.52e-06  Convergence criterion met
 Total energy in the final basis set =     -846.2514324252
    5    -846.2657872927      3.21e-06  Convergence criterion met
 Total energy in the final basis set =     -846.2657872927

                    Orbital Energies (a.u.)
 --------------------------------------------------------------

 Alpha MOs
 -- Occupied --
-19.1321 -19.1312 -10.2836 -10.2829 -10.2075 -10.2070 -10.2060 -10.2040
-10.2032 -10.1972 -10.1962 -10.1959 -10.1954 -10.1953 -10.1940 -10.1924
-10.1913 -10.1594 -10.1594 -10.1575  -1.0674  -1.0654  -0.8938  -0.8824
 -0.8344  -0.8001  -0.7774  -0.7734  -0.7589  -0.6939  -0.6883  -0.6850
 -0.6640  -0.6417  -0.6148  -0.5853  -0.5769  -0.5588  -0.5320  -0.5056
 -0.4890  -0.4841  -0.4779  -0.4611  -0.4558  -0.4527  -0.4488  -0.4469
 -0.4430  -0.4427  -0.4273  -0.4203  -0.4095  -0.4016  -0.3851  -0.3832
 -0.3806  -0.3744  -0.3684  -0.3654  -0.3641  -0.3373  -0.3372  -0.3277
 -0.2893  -0.2867  -0.2783  -0.2757  -0.2751  -0.2670

          Ground-State Mulliken Net Atomic Charges

     Atom                 Charge (a.u.)
  ----------------------------------------
      1 C                    -0.702341
      2 C                     0.437764
      3 C                    -0.526705
      4 C                    -0.702500
      5 C                     0.140871
      6 C                    -0.542935
      7 C                     0.018715
      8 C                     0.268041
      9 C                    -0.736095
     10 O                    -0.294989
     11 C                     0.088154
     12 C                     0.196602
     13 C                    -0.484142
     14 C                    -0.469301
     15 C                     0.168370
     16 C                     0.403672
     17 C                    -0.671255
     18 O                    -0.288799
     19 C                     0.613531
     20 C                     0.143887
     21 H                     0.177313
     22 H                     0.160237
     23 H                     0.156762
     24 H                     0.153841
     25 H                     0.187590
     26 H                     0.153752
     27 H                     0.157094
     28 H                     0.177185
     29 H                     0.160029
     30 H                     0.210258
     31 H                     0.214409
     32 H                     0.200134
     33 H                     0.226335
     34 H                     0.228975
     35 H                     0.200131
     36 H                     0.175408
  ----------------------------------------
  Sum of atomic charges =    -0.000001

                    Cartesian Multipole Moments
 -----------------------------------------------------------------
    Charge (ESU x 10^10)
                -0.0000
    Dipole Moment (Debye)
         X      -1.0579      Y      -0.2440      Z       0.0005
       Tot       1.0857
    Quadrupole Moments (Debye-Ang)
        XX     -82.0910     XY      -8.7836     YY    -130.9911
        XZ       0.0045     YZ      -0.0043     ZZ    -120.8867

 Total job time:  91.70s(wall), 708.17s(cpu)
        *  Thank you very much for using Q-Chem.  Have a nice day.  *
