 Gaussian 16, Revision A.03,
 Gaussian 16:  ES64L-G16RevA.03 25-Dec-2016

 ----------------------------------------------------------------------
 #P UB3LYP/6-311++G(d,p) nosym opt freq SCRF=(PCM,Solvent=n,n-DiMethylF
 ormamide)
 ----------------------------------------------------------------------

 -------
 Reduced
 -------
 Symbolic Z-matrix:
 Charge = -2 Multiplicity = 1

 SCF Done:  E(UB3LYP) =  -2220.33923406     A.U. after   24 cycles
 SCF Done:  E(UB3LYP) =  -2220.33969820     A.U. after   13 cycles
 SCF Done:  E(UB3LYP) =  -2220.33883144     A.U. after   14 cycles
 SCF Done:  E(UB3LYP) =  -2220.33982093     A.U. after   18 cycles
 SCF Done:  E(UB3LYP) =  -2220.33982333     A.U. after   12 cycles
 SCF Done:  E(UB3LYP) =  -2220.33982466     A.U. after   15 cycles
 Optimization completed.
    -- Stationary point found.
 Normal termination of Gaussian 16 at Sat Feb 10 10:19:54 2024.

 ----------------------------------------------------------------------
 #P Geom=AllCheck Guess=TCheck SCRF=Check GenChk UB3LYP/6-311++G(d,p) F
 req
 ----------------------------------------------------------------------

 Structure from the checkpoint file:  "029-an.chk"
 -------
 Reduced
 -------
 Charge = -2 Multiplicity = 1

                          Input orientation:
 ---------------------------------------------------------------------
 Center     Atomic      Atomic             Coordinates (Angstroms)
 Number     Number       Type             X           Y           Z
 ---------------------------------------------------------------------
      1         17           0       -2.550923    1.763379    0.705678
      2          6           0       -1.113620    0.773608    0.400231
      3          6           0       -1.173299   -0.616416    0.538360
      4         17           0       -2.689732   -1.399537    1.014168
      5          6           0       -0.063690   -1.492233    0.317025
      6          8           0       -0.116428   -2.771998    0.444722
      7          6           0        1.113553   -0.773631   -0.062922
      8          6           0        1.173236    0.616401   -0.201047
      9         17           0        2.689874    1.399582   -0.676108
     10          6           0        0.063499    1.492168    0.019783
     11          8           0        0.116470    2.772016   -0.106997
     12         17           0        2.551059   -1.763339   -0.367648
 ---------------------------------------------------------------------

 SCF Done:  E(UB3LYP) =  -2220.33982466     A.U. after    3 cycles

 Alpha  occ. eigenvalues -- -101.53785-101.53785-101.53775-101.53775 -19.03205
 Alpha  occ. eigenvalues --  -19.03204 -10.20589 -10.20588 -10.20539 -10.20534
 Alpha  occ. eigenvalues --  -10.20348 -10.20347  -9.45237  -9.45237  -9.45227
 Alpha  occ. eigenvalues --   -9.45227  -7.21665  -7.21665  -7.21655  -7.21655
 Alpha  occ. eigenvalues --   -7.20762  -7.20762  -7.20752  -7.20752  -7.20686
 Alpha  occ. eigenvalues --   -7.20686  -7.20676  -7.20676  -0.95838  -0.95189
 Alpha  occ. eigenvalues --   -0.87044  -0.86549  -0.82810  -0.82470  -0.77339
 Alpha  occ. eigenvalues --   -0.68176  -0.66789  -0.56320  -0.55531  -0.49022
 Alpha  occ. eigenvalues --   -0.45479  -0.43319  -0.41201  -0.41161  -0.37842
 Alpha  occ. eigenvalues --   -0.37637  -0.37074  -0.36140  -0.35488  -0.32377
 Alpha  occ. eigenvalues --   -0.31549  -0.30950  -0.30852  -0.30066  -0.29439
 Alpha  occ. eigenvalues --   -0.28684  -0.23980  -0.21776  -0.21763  -0.21433
 Alpha  occ. eigenvalues --   -0.14031
 Alpha virt. eigenvalues --   -0.01561   0.00022   0.01386   0.02301   0.02354
 Alpha virt. eigenvalues --    0.04010   0.05064   0.05179   0.05370   0.05780
 Alpha virt. eigenvalues --    0.05795   0.06403   0.07376   0.07474   0.08811

  Beta  occ. eigenvalues -- -101.53785-101.53785-101.53775-101.53775 -19.03205
  Beta  occ. eigenvalues --  -19.03204 -10.20589 -10.20588 -10.20539 -10.20534
  Beta  occ. eigenvalues --  -10.20348 -10.20347  -9.45237  -9.45237  -9.45227
  Beta  occ. eigenvalues --   -9.45227  -7.21665  -7.21665  -7.21655  -7.21655
  Beta  occ. eigenvalues --   -7.20762  -7.20762  -7.20752  -7.20752  -7.20686
  Beta  occ. eigenvalues --   -7.20686  -7.20676  -7.20676  -0.95838  -0.95189
  Beta  occ. eigenvalues --   -0.87044  -0.86549  -0.82810  -0.82470  -0.77339
  Beta  occ. eigenvalues --   -0.68176  -0.66789  -0.56320  -0.55531  -0.49022
  Beta  occ. eigenvalues --   -0.45479  -0.43319  -0.41201  -0.41161  -0.37842
  Beta  occ. eigenvalues --   -0.37637  -0.37074  -0.36140  -0.35488  -0.32377
  Beta  occ. eigenvalues --   -0.31549  -0.30950  -0.30852  -0.30066  -0.29439
  Beta  occ. eigenvalues --   -0.28684  -0.23980  -0.21776  -0.21763  -0.21433
  Beta  occ. eigenvalues --   -0.14031
  Beta virt. eigenvalues --   -0.01561   0.00022   0.01386   0.02301   0.02354
  Beta virt. eigenvalues --    0.04010   0.05064   0.05179   0.05370   0.05780
  Beta virt. eigenvalues --    0.05795   0.06403   0.07376   0.07474   0.08811

 Mulliken charges and spin densities:
               1          2
     1  Cl   0.240754   0.000000
     2  C    0.177202  -0.000000
     3  C    0.200823   0.000000
     4  Cl   0.239676   0.000000
     5  C   -1.273989   0.000000
     6  O   -0.584398   0.000000
     7  C    0.177111  -0.000000
     8  C    0.200844   0.000000
     9  Cl   0.239673   0.000000
    10  C   -1.274056   0.000000
    11  O   -0.584399  -0.000000
    12  Cl   0.240758  -0.000000
 Sum of Mulliken charges =  -2.00000   0.00000

 Dipole moment (field-independent basis, Debye):
    X=             -0.0004    Y=             -0.0001    Z=             -1.6223  Tot=              1.6223
 Quadrupole moment (field-independent basis, Debye-Ang):
   XX=           -126.0226   YY=           -165.4969   ZZ=           -105.0716
   XY=             -1.0598   XZ=              6.4160   YZ=              5.8235

  Exact polarizability: 258.586  -4.323 251.427 -40.241 -11.364 119.763
 Approx polarizability: 276.101  -3.863 284.743 -41.897 -13.414 131.867

                      1                      2                      3
                      A                      A                      A
 Frequencies --     62.5592                90.7543               106.3922
 Red. masses --     31.5158                19.5056                20.4994
 Frc consts  --      0.0727                 0.0947                 0.1367
 IR Inten    --      1.8969                13.6248                 0.0000

                      4                      5                      6
                      A                      A                      A
 Frequencies --    181.0270               210.1041               212.9170
 Red. masses --     13.7329                34.6128                24.6254
 Frc consts  --      0.2652                 0.9002                 0.6577
 IR Inten    --      9.8928                 0.0000                 6.6208

                      7                      8                      9
                      A                      A                      A
 Frequencies --    220.1557               281.0027               320.5214
 Red. masses --     32.6549                21.8596                13.2385
 Frc consts  --      0.9325                 1.0170                 0.8013
 IR Inten    --      2.4698                 0.0000                 0.0000

                     10                     11                     12
                      A                      A                      A
 Frequencies --    321.7985               325.2657               326.1206
 Red. masses --     19.4181                13.1254                28.6497
 Frc consts  --      1.1847                 0.8182                 1.7953
 IR Inten    --      0.0000                 0.0001                 0.0000

                     13                     14                     15
                      A                      A                      A
 Frequencies --    338.7941               425.9646               500.5160
 Red. masses --     17.8627                22.6909                14.4268
 Frc consts  --      1.2080                 2.4258                 2.1294
 IR Inten    --      0.7345                 1.2319                 0.0000

                     16                     17                     18
                      A                      A                      A
 Frequencies --    532.4579               667.3679               707.0868
 Red. masses --     12.0644                14.7750                12.2323
 Frc consts  --      2.0152                 3.8771                 3.6033
 IR Inten    --      0.0052               239.6801                 8.4502

                     19                     20                     21
                      A                      A                      A
 Frequencies --    713.8029               769.4415               800.9790
 Red. masses --     12.6265                12.0998                12.8493
 Frc consts  --      3.7904                 4.2206                 4.8570
 IR Inten    --      0.0000                 0.0001                 0.0000

                     22                     23                     24
                      A                      A                      A
 Frequencies --    870.1388               993.5860              1118.0599
 Red. masses --     13.1487                12.7581                12.0089
 Frc consts  --      5.8656                 7.4208                 8.8447
 IR Inten    --    541.5909                 0.0000               589.6573

                     25                     26                     27
                      A                      A                      A
 Frequencies --   1147.8367              1363.7027              1392.3106
 Red. masses --     12.4106                12.0560                12.9141
 Frc consts  --      9.6339                13.2097                14.7498
 IR Inten    --     32.7287                 5.7594                 0.0000

                     28                     29                     30
                      A                      A                      A
 Frequencies --   1398.7929              1416.4666              1577.0556
 Red. masses --     12.0115                12.6184                12.1142
 Frc consts  --     13.8469                14.9165                17.7517
 IR Inten    --      0.0014              2444.2189                 0.0000

 - Thermochemistry -
 -------------------
 Temperature   298.150 Kelvin.  Pressure   1.00000 Atm.
 Atom     1 has atomic number 17 and mass  34.96885

 Molecular mass:   243.86524 amu.
 Principal axes and moments of inertia in atomic units:
                           1         2         3
     Eigenvalues --  2428.448993925.462866353.90483
           X            0.96477   0.04366   0.25943
           Y           -0.06747   0.99421   0.08358
           Z           -0.25428  -0.09814   0.96214
 This molecule is an asymmetric top.
 Rotational symmetry number  1.
 Warning -- assumption of classical behavior for rotation
           may cause significant error
 Rotational temperatures (Kelvin)      0.03567     0.02206     0.01363
 Rotational constants (GHZ):           0.74317     0.45975     0.28404
 Zero-point vibrational energy     115995.8 (Joules/Mol)
                                   27.72365 (Kcal/Mol)
 Warning -- explicit consideration of  16 degrees of freedom as
           vibrations may cause significant error
 Vibrational temperatures:     90.01   130.58   153.07   260.46   302.29
          (Kelvin)            306.34   316.75   404.30   461.16   463.00
                              467.98   469.21   487.45   612.87   720.13
                              766.09   960.19  1017.34  1027.00  1107.05
                             1152.43  1251.94  1429.55  1608.64  1651.48
                             1962.06  2003.22  2012.55  2037.98  2269.03

 Zero-point correction=                           0.044180 (Hartree/Particle)
 Thermal correction to Energy=                    0.055284
 Thermal correction to Enthalpy=                  0.056228
 Thermal correction to Gibbs Free Energy=         0.005682
 Sum of electronic and zero-point Energies=          -2220.295644
 Sum of electronic and thermal Energies=             -2220.284541
 Sum of electronic and thermal Enthalpies=           -2220.283596
 Sum of electronic and thermal Free Energies=        -2220.334142

                     E (Thermal)             CV                S
                      KCal/Mol        Cal/Mol-Kelvin    Cal/Mol-Kelvin
 Total                   34.691             38.606            106.383
 Electronic               0.000              0.000              0.000
 Translational            0.889              2.981             42.375
 Rotational               0.889              2.981             32.471
 Vibrational             32.914             32.644             31.537
 Vibration     1          0.597              1.972              4.375
 Vibration     2          0.602              1.956              3.644
 Vibration     3          0.605              1.944              3.334
 Vibration     4          0.630              1.866              2.318
 Vibration     5          0.642              1.825              2.043
 Vibration     6          0.644              1.821              2.019
 Vibration     7          0.647              1.810              1.958
 Vibration     8          0.681              1.709              1.528
 Vibration     9          0.706              1.634              1.307
 Vibration    10          0.707              1.632              1.301
 Vibration    11          0.709              1.625              1.283
 Vibration    12          0.710              1.623              1.279
 Vibration    13          0.719              1.598              1.218
 Vibration    14          0.788              1.414              0.872
 Vibration    15          0.856              1.249              0.657
 Vibration    16          0.887              1.178              0.582

 Optimization completed.
    -- Stationary point found.
 Normal termination of Gaussian 16 at Sat Feb 10 10:29:13 2024.
