 Gaussian 16, Revision A.03,
 Gaussian 16:  ES64L-G16RevA.03 25-Dec-2016

 --------------------------------------
 #P UB3LYP/6-311++G(d,p) nosym opt freq
 --------------------------------------

 --------
 Oxidized
 --------
 Symbolic Z-matrix:
 Charge =  0 Multiplicity = 1

 SCF Done:  E(UB3LYP) =  -1048.95675688     A.U. after   17 cycles
 SCF Done:  E(UB3LYP) =  -1048.97811295     A.U. after   16 cycles
 SCF Done:  E(UB3LYP) =  -1048.98059152     A.U. after   15 cycles
 SCF Done:  E(UB3LYP) =  -1048.98125706     A.U. after   15 cycles
 SCF Done:  E(UB3LYP) =  -1048.98278892     A.U. after   17 cycles
 SCF Done:  E(UB3LYP) =  -1048.98376885     A.U. after   14 cycles
 SCF Done:  E(UB3LYP) =  -1048.98458888     A.U. after   15 cycles
 SCF Done:  E(UB3LYP) =  -1048.98490966     A.U. after   17 cycles
 SCF Done:  E(UB3LYP) =  -1048.98506476     A.U. after   14 cycles
 SCF Done:  E(UB3LYP) =  -1048.98508144     A.U. after   14 cycles
 SCF Done:  E(UB3LYP) =  -1048.98508266     A.U. after   11 cycles
 SCF Done:  E(UB3LYP) =  -1048.98508330     A.U. after   12 cycles
 SCF Done:  E(UB3LYP) =  -1048.98508336     A.U. after   10 cycles
 Optimization completed.
    -- Stationary point found.
 Normal termination of Gaussian 16 at Sat Jan  6 02:57:21 2024.

 ----------------------------------------------------------------------
 #P Geom=AllCheck Guess=TCheck SCRF=Check GenChk UB3LYP/6-311++G(d,p) F
 req
 ----------------------------------------------------------------------

 Structure from the checkpoint file:  "338.chk"
 --------
 Oxidized
 --------
 Charge =  0 Multiplicity = 1

                          Input orientation:
 ---------------------------------------------------------------------
 Center     Atomic      Atomic             Coordinates (Angstroms)
 Number     Number       Type             X           Y           Z
 ---------------------------------------------------------------------
      1          8           0       -0.015795   -2.692477    0.812619
      2          6           0       -0.008506   -1.477420    0.718859
      3          6           0        1.275804   -0.721177    0.592086
      4          6           0        2.423865   -1.420206    0.195742
      5          6           0        3.614172   -0.745185   -0.045420
      6          6           0        3.675805    0.641815    0.103129
      7          6           0        2.553514    1.353131    0.520761
      8          6           0        1.367219    0.667220    0.758766
      9         16           0        0.011656    1.618719    1.504064
     10          8           0        0.019392    3.024858    0.951540
     11          6           0       -1.357733    0.683891    0.762971
     12          6           0       -2.536274    1.384276    0.528602
     13          6           0       -3.668458    0.686754    0.114438
     14          6           0       -3.624275   -0.700901   -0.034280
     15          6           0       -2.441582   -1.390439    0.203229
     16          6           0       -1.283844   -0.705522    0.596030
     17          1           0        2.349591   -2.493062    0.066829
     18          1           0        4.492982   -1.296452   -0.358845
     19          1           0        4.599019    1.170879   -0.103925
     20          1           0        2.582935    2.429127    0.647024
     21          1           0       -2.552121    2.460548    0.654939
     22          1           0       -4.585767    1.227072   -0.089789
     23          1           0       -4.510744   -1.241331   -0.344994
     24          1           0       -2.380856   -2.464119    0.074078
 ---------------------------------------------------------------------

 SCF Done:  E(UB3LYP) =  -1048.98508336     A.U. after    2 cycles

 Alpha  occ. eigenvalues --  -88.97556 -19.13055 -19.10519 -10.28653 -10.23275
 Alpha  occ. eigenvalues --  -10.23275 -10.21788 -10.21787 -10.20886 -10.20886
 Alpha  occ. eigenvalues --  -10.20695 -10.20695 -10.20593 -10.20593 -10.20387
 Alpha  occ. eigenvalues --  -10.20387  -8.05207  -6.01476  -6.01365  -6.00793
 Alpha  occ. eigenvalues --   -1.06620  -1.03636  -0.90366  -0.89205  -0.82182
 Alpha  occ. eigenvalues --   -0.79400  -0.78561  -0.77972  -0.72053  -0.68068
 Alpha  occ. eigenvalues --   -0.64814  -0.62877  -0.61328  -0.57783  -0.56429
 Alpha  occ. eigenvalues --   -0.51777  -0.49805  -0.49797  -0.49139  -0.46554
 Alpha  occ. eigenvalues --   -0.46133  -0.45788  -0.45271  -0.45252  -0.44024
 Alpha  occ. eigenvalues --   -0.41628  -0.40370  -0.40156  -0.38700  -0.38204
 Alpha  occ. eigenvalues --   -0.37991  -0.37619  -0.30702  -0.29797  -0.28758
 Alpha  occ. eigenvalues --   -0.28581  -0.28524  -0.27585  -0.25001
 Alpha virt. eigenvalues --   -0.10214  -0.05570  -0.05351  -0.03640  -0.01100
 Alpha virt. eigenvalues --   -0.00772   0.00904   0.01126   0.01475   0.01525
 Alpha virt. eigenvalues --    0.02166   0.02572   0.03079   0.03968   0.04111

  Beta  occ. eigenvalues --  -88.97556 -19.13055 -19.10519 -10.28653 -10.23275
  Beta  occ. eigenvalues --  -10.23275 -10.21788 -10.21787 -10.20886 -10.20886
  Beta  occ. eigenvalues --  -10.20695 -10.20695 -10.20593 -10.20593 -10.20387
  Beta  occ. eigenvalues --  -10.20387  -8.05207  -6.01476  -6.01365  -6.00793
  Beta  occ. eigenvalues --   -1.06620  -1.03636  -0.90366  -0.89205  -0.82182
  Beta  occ. eigenvalues --   -0.79400  -0.78561  -0.77972  -0.72053  -0.68068
  Beta  occ. eigenvalues --   -0.64814  -0.62877  -0.61328  -0.57783  -0.56429
  Beta  occ. eigenvalues --   -0.51777  -0.49805  -0.49797  -0.49139  -0.46554
  Beta  occ. eigenvalues --   -0.46133  -0.45788  -0.45271  -0.45252  -0.44024
  Beta  occ. eigenvalues --   -0.41628  -0.40370  -0.40156  -0.38700  -0.38204
  Beta  occ. eigenvalues --   -0.37991  -0.37619  -0.30702  -0.29797  -0.28758
  Beta  occ. eigenvalues --   -0.28581  -0.28524  -0.27585  -0.25001
  Beta virt. eigenvalues --   -0.10214  -0.05570  -0.05351  -0.03640  -0.01100
  Beta virt. eigenvalues --   -0.00772   0.00904   0.01126   0.01475   0.01525
  Beta virt. eigenvalues --    0.02166   0.02572   0.03079   0.03968   0.04111

 Mulliken charges and spin densities:
               1          2
     1  O   -0.205649   0.000000
     2  C   -0.515300  -0.000000
     3  C    1.331746  -0.000000
     4  C    0.264397   0.000000
     5  C   -0.604807  -0.000000
     6  C   -0.060117   0.000000
     7  C   -0.069337  -0.000000
     8  C   -1.164029   0.000000
     9  S    0.152620  -0.000000
    10  O   -0.406653  -0.000000
    11  C   -1.164087   0.000000
    12  C   -0.069314  -0.000000
    13  C   -0.060080  -0.000000
    14  C   -0.604829  -0.000000
    15  C    0.264401  -0.000000
    16  C    1.331747   0.000000
    17  H    0.203894   0.000000
    18  H    0.175800   0.000000
    19  H    0.184271  -0.000000
    20  H    0.225681   0.000000
    21  H    0.225683  -0.000000
    22  H    0.184271   0.000000
    23  H    0.175798  -0.000000
    24  H    0.203894  -0.000000
 Sum of Mulliken charges =  -0.00000   0.00000

 Dipole moment (field-independent basis, Debye):
    X=             -0.0071    Y=             -0.9145    Z=             -0.9957  Tot=              1.3519
 Quadrupole moment (field-independent basis, Debye-Ang):
   XX=            -73.4515   YY=           -114.3875   ZZ=           -102.5105
   XY=             -0.2465   XZ=             -0.0312   YZ=              2.1096

  Exact polarizability: 245.384  -0.331 188.546  -0.163  10.663  96.810
 Approx polarizability: 355.692   0.054 360.127  -0.194  17.219 160.852

                      1                      2                      3
                      A                      A                      A
 Frequencies --     44.9824               107.6247               125.4462
 Red. masses --      7.1337                 4.0333                 5.1614
 Frc consts  --      0.0085                 0.0275                 0.0479
 IR Inten    --      5.7321                 0.3299                 0.1395

                      4                      5                      6
                      A                      A                      A
 Frequencies --    144.4319               187.1656               205.9341
 Red. masses --      8.2481                 7.6148                 5.5501
 Frc consts  --      0.1014                 0.1572                 0.1387
 IR Inten    --      3.0675                 4.6900                 0.7798

                      7                      8                      9
                      A                      A                      A
 Frequencies --    234.6909               321.9717               326.9495
 Red. masses --      6.0304                 7.4692                 6.9748
 Frc consts  --      0.1957                 0.4562                 0.4393
 IR Inten    --      0.6477                10.4360                 1.6772

                     10                     11                     12
                      A                      A                      A
 Frequencies --    365.9289               380.6586               389.6349
 Red. masses --      7.2287                11.2862                 8.6000
 Frc consts  --      0.5703                 0.9635                 0.7692
 IR Inten    --      2.9625                 6.6320                 1.2064

                     13                     14                     15
                      A                      A                      A
 Frequencies --    419.4305               438.4849               486.5870
 Red. masses --      4.1056                 3.4418                 4.7452
 Frc consts  --      0.4255                 0.3899                 0.6620
 IR Inten    --      0.9497                 1.7777                 1.6674

                     16                     17                     18
                      A                      A                      A
 Frequencies --    523.7332               550.2645               587.9920
 Red. masses --      7.3090                 4.9577                 6.1672
 Frc consts  --      1.1812                 0.8845                 1.2563
 IR Inten    --      1.8990                30.9180                 0.1775

                     19                     20                     21
                      A                      A                      A
 Frequencies --    644.8347               670.3369               695.4432
 Red. masses --      6.8478                 6.4101                 4.2201
 Frc consts  --      1.6776                 1.6971                 1.2025
 IR Inten    --      7.7351                 0.2596                27.9081

                     22                     23                     24
                      A                      A                      A
 Frequencies --    704.4631               733.7974               762.5718
 Red. masses --      5.6440                 5.3158                 2.7047
 Frc consts  --      1.6503                 1.6864                 0.9267
 IR Inten    --     16.0235                 3.1426                39.1772

                     25                     26                     27
                      A                      A                      A
 Frequencies --    767.8465               776.5177               821.3597
 Red. masses --      2.7442                 1.2267                 2.5680
 Frc consts  --      0.9533                 0.4358                 1.0207
 IR Inten    --     31.9974                 9.3335                16.2853

                     28                     29                     30
                      A                      A                      A
 Frequencies --    897.4629               904.7466               938.2662
 Red. masses --      1.3086                 1.4284                 6.8813
 Frc consts  --      0.6210                 0.6889                 3.5692
 IR Inten    --      0.5890                 0.2431                34.2950

                     31                     32                     33
                      A                      A                      A
 Frequencies --    987.5814               990.2182              1012.3523
 Red. masses --      1.3676                 1.3916                 1.3235
 Frc consts  --      0.7859                 0.8040                 0.7992
 IR Inten    --      0.0984                 2.2723                 1.2930

                     34                     35                     36
                      A                      A                      A
 Frequencies --   1013.7875              1028.0442              1049.3597
 Red. masses --      1.3371                10.1798                 4.6285
 Frc consts  --      0.8097                 6.3389                 3.0029
 IR Inten    --      1.1538               119.6689                 0.5016

                     37                     38                     39
                      A                      A                      A
 Frequencies --   1050.3521              1068.7506              1080.8296
 Red. masses --      2.9722                 2.1271                 4.9945
 Frc consts  --      1.9320                 1.4315                 3.4376
 IR Inten    --      0.1279                 0.4918                30.2894

                     40                     41                     42
                      A                      A                      A
 Frequencies --   1134.3382              1141.9754              1178.9216
 Red. masses --      1.7890                 1.8011                 1.6789
 Frc consts  --      1.3562                 1.3839                 1.3748
 IR Inten    --     27.1707                 1.7812                 7.4551

                     43                     44                     45
                      A                      A                      A
 Frequencies --   1185.9307              1190.2696              1247.7475
 Red. masses --      1.1302                 1.4303                 1.7870
 Frc consts  --      0.9365                 1.1939                 1.6392
 IR Inten    --      1.4273                 1.2976                42.9005

                     46                     47                     48
                      A                      A                      A
 Frequencies --   1284.8238              1308.7936              1334.4098
 Red. masses --      1.5574                 2.7126                 7.5342
 Frc consts  --      1.5147                 2.7377                 7.9044
 IR Inten    --      0.4398               206.5543                 0.0791

                     49                     50                     51
                      A                      A                      A
 Frequencies --   1343.1929              1467.6137              1468.5230
 Red. masses --      7.3614                 2.1322                 2.1189
 Frc consts  --      7.8251                 2.7058                 2.6923
 IR Inten    --      5.4343                38.5101                 5.7837

                     52                     53                     54
                      A                      A                      A
 Frequencies --   1484.5385              1494.0513              1598.8116
 Red. masses --      2.4255                 2.3803                 5.7053
 Frc consts  --      3.1495                 3.1306                 8.5926
 IR Inten    --      0.0391                 1.0242                 2.3928

                     55                     56                     57
                      A                      A                      A
 Frequencies --   1607.4801              1623.3603              1627.5915
 Red. masses --      5.9509                 5.5915                 6.0226
 Frc consts  --      9.0599                 8.6818                 9.4000
 IR Inten    --     12.5909                56.5644                21.3662

                     58                     59                     60
                      A                      A                      A
 Frequencies --   1723.4210              3172.3819              3172.4180
 Red. masses --     12.4922                 1.0867                 1.0867
 Frc consts  --     21.8612                 6.4435                 6.4436
 IR Inten    --    239.6016                 0.0936                 6.0683

                     61                     62                     63
                      A                      A                      A
 Frequencies --   3184.5938              3184.7480              3192.8924
 Red. masses --      1.0900                 1.0901                 1.0944
 Frc consts  --      6.5132                 6.5143                 6.5733
 IR Inten    --      5.2164                 0.5395                11.1836

                     64                     65                     66
                      A                      A                      A
 Frequencies --   3193.1519              3200.6166              3200.9863
 Red. masses --      1.0945                 1.0952                 1.0953
 Frc consts  --      6.5749                 6.6099                 6.6122
 IR Inten    --      0.2498                17.5083                 1.1182

 - Thermochemistry -
 -------------------
 Temperature   298.150 Kelvin.  Pressure   1.00000 Atm.
 Atom     1 has atomic number  8 and mass  15.99491

 Molecular mass:   228.02450 amu.
 Principal axes and moments of inertia in atomic units:
                           1         2         3
     Eigenvalues --  2101.455674174.828875977.97446
           X            0.99998   0.00628   0.00063
           Y           -0.00612   0.98919  -0.14649
           Z           -0.00154   0.14648   0.98921
 This molecule is an asymmetric top.
 Rotational symmetry number  1.
 Warning -- assumption of classical behavior for rotation
           may cause significant error
 Rotational temperatures (Kelvin)      0.04122     0.02075     0.01449
 Rotational constants (GHZ):           0.85881     0.43229     0.30190
 Zero-point vibrational energy     456904.2 (Joules/Mol)
                                  109.20272 (Kcal/Mol)
 Warning -- explicit consideration of  18 degrees of freedom as
           vibrations may cause significant error
 Vibrational temperatures:     64.72   154.85   180.49   207.81   269.29
          (Kelvin)            296.29   337.67   463.25   470.41   526.49
                              547.68   560.60   603.47   630.88   700.09
                              753.54   791.71   845.99   927.77   964.47
                             1000.59  1013.57  1055.77  1097.17  1104.76
                             1117.24  1181.75  1291.25  1301.73  1349.96
                             1420.91  1424.70  1456.55  1458.61  1479.13
                             1509.79  1511.22  1537.69  1555.07  1632.06
                             1643.05  1696.21  1706.29  1712.53  1795.23
                             1848.57  1883.06  1919.92  1932.55  2111.57
                             2112.88  2135.92  2149.61  2300.33  2312.81
                             2335.65  2341.74  2479.62  4564.35  4564.40
                             4581.92  4582.14  4593.86  4594.23  4604.97
                             4605.51

 Zero-point correction=                           0.174026 (Hartree/Particle)
 Thermal correction to Energy=                    0.186101
 Thermal correction to Enthalpy=                  0.187045
 Thermal correction to Gibbs Free Energy=         0.135435
 Sum of electronic and zero-point Energies=          -1048.811058
 Sum of electronic and thermal Energies=             -1048.798982
 Sum of electronic and thermal Enthalpies=           -1048.798038
 Sum of electronic and thermal Free Energies=        -1048.849648

                     E (Thermal)             CV                S
                      KCal/Mol        Cal/Mol-Kelvin    Cal/Mol-Kelvin
 Total                  116.780             48.451            108.623
 Electronic               0.000              0.000              0.000
 Translational            0.889              2.981             42.175
 Rotational               0.889              2.981             32.328
 Vibrational            115.003             42.490             34.120
 Vibration     1          0.595              1.979              5.027
 Vibration     2          0.606              1.943              3.311
 Vibration     3          0.610              1.928              3.015
 Vibration     4          0.616              1.909              2.744
 Vibration     5          0.632              1.857              2.256
 Vibration     6          0.640              1.831              2.079
 Vibration     7          0.655              1.788              1.843
 Vibration     8          0.707              1.631              1.300
 Vibration     9          0.711              1.622              1.275
 Vibration    10          0.739              1.542              1.097
 Vibration    11          0.750              1.511              1.037
 Vibration    12          0.758              1.492              1.002
 Vibration    13          0.782              1.428              0.894
 Vibration    14          0.799              1.386              0.831
 Vibration    15          0.843              1.280              0.693
 Vibration    16          0.879              1.197              0.601
 Vibration    17          0.906              1.139              0.544
 Vibration    18          0.945              1.057              0.471

 Optimization completed.
    -- Stationary point found.
 Normal termination of Gaussian 16 at Sat Jan  6 03:37:56 2024.
