 Gaussian 16, Revision A.03,
 Gaussian 16:  ES64L-G16RevA.03 25-Dec-2016

 ----------------------------------------------------------------
 #P UB3LYP/6-311++G(d,p) SCRF=(PCM,Solvent=n,n-DiMethylFormamide)
 ----------------------------------------------------------------

 ------------------
 Radical PCM in DMF
 ------------------
 Symbolic Z-matrix:
 Charge = -1 Multiplicity = 2

                         Standard orientation:
 ---------------------------------------------------------------------
 Center     Atomic      Atomic             Coordinates (Angstroms)
 Number     Number       Type             X           Y           Z
 ---------------------------------------------------------------------
      1          6           0        0.016001   -0.727666    0.581197
      2          6           0        1.271610   -1.364987    0.210290
      3          6           0        1.351156   -2.622135   -0.351791
      4          6           0        0.107664   -3.329634   -0.679098
      5          6           0       -1.182522   -2.698543   -0.378090
      6          6           0       -1.190385   -1.439502    0.184424
      7          8           0       -0.024141    0.359134    1.195291
      8          8           0        0.147229   -4.467773   -1.216523
      9         16           0       -2.741341   -0.592961    0.607336
     10          6           0       -2.579812    1.125005    0.037562
     11          6           0       -2.342957    2.137553    0.960482
     12          6           0       -2.798048    1.403623   -1.308127
     13          6           0       -2.763240    2.728608   -1.740931
     14          6           0       -2.328996    3.459127    0.522423
     15          6           0       -2.533426    3.754979   -0.825911
     16          8           0       -2.927738   -0.562291    2.065459
     17          8           0       -3.821355   -1.157069   -0.226329
     18          1           0       -2.163679    1.876162    1.994245
     19          1           0       -3.006978    0.596510   -1.999152
     20          1           0       -2.146917    4.258172    1.232847
     21          1           0       -2.925874    2.957223   -2.788617
     22          1           0       -2.511393    4.785866   -1.163600
     23         16           0        2.757196   -0.420302    0.660211
     24          6           0        2.510625    1.269152    0.037581
     25          6           0        2.150841    2.284716    0.916579
     26          6           0        2.781799    1.529072   -1.302505
     27          6           0        2.676931    2.836575   -1.775033
     28          6           0        2.065631    3.590151    0.439341
     29          6           0        2.323447    3.866134   -0.903915
     30          8           0        2.895032   -0.342568    2.121618
     31          8           0        3.894723   -0.939238   -0.124770
     32          1           0        1.933815    2.037417    1.946377
     33          1           0        3.085717    0.721693   -1.956952
     34          1           0        2.881227    3.049995   -2.818639
     35          1           0        1.786557    4.391245    1.115029
     36          1           0        2.246281    4.883818   -1.272205
     37          6           0        2.620492   -3.375209   -0.658218
     38          6           0       -2.398353   -3.525457   -0.709468
     39          1           0        3.161623   -2.915297   -1.488685
     40          1           0        2.354040   -4.395476   -0.928063
     41          1           0        3.306568   -3.374420    0.189024
     42          1           0       -2.067266   -4.530018   -0.966428
     43          1           0       -2.944427   -3.101603   -1.555784
     44          1           0       -3.103723   -3.560018    0.121122
 ---------------------------------------------------------------------

 SCF Done:  E(UB3LYP) =  -2019.87872544     A.U. after   23 cycles

 The electronic state is 2-A.
 Alpha  occ. eigenvalues --  -89.05487 -89.05482 -19.12196 -19.12180 -19.11708
 Alpha  occ. eigenvalues --  -19.11700 -19.09743 -19.09477 -10.25648 -10.24029
 Alpha  occ. eigenvalues --  -10.21302 -10.21290 -10.21051 -10.21047 -10.20987
 Alpha  occ. eigenvalues --  -10.20981 -10.19514 -10.19513 -10.19230 -10.19229
 Alpha  occ. eigenvalues --  -10.18978 -10.18971 -10.18827 -10.18825 -10.18730
 Alpha  occ. eigenvalues --  -10.18726 -10.16051 -10.16032  -8.11854  -8.11846
 Alpha  occ. eigenvalues --   -6.08132  -6.08126  -6.08029  -6.08022  -6.07951
 Alpha  occ. eigenvalues --   -6.07944  -1.11320  -1.11275  -1.03079  -1.02339
 Alpha  occ. eigenvalues --   -1.00847  -1.00813  -0.87784  -0.87775  -0.85815
 Alpha  occ. eigenvalues --   -0.81310  -0.78137  -0.78031  -0.76476  -0.76449
 Alpha  occ. eigenvalues --   -0.74297  -0.72996  -0.69737  -0.66136  -0.65959
 Alpha  occ. eigenvalues --   -0.62402  -0.62394  -0.61462  -0.61104  -0.57459
 Alpha  occ. eigenvalues --   -0.57435  -0.54191  -0.54135  -0.52232  -0.50918
 Alpha  occ. eigenvalues --   -0.49082  -0.48585  -0.48160  -0.47823  -0.46925
 Alpha  occ. eigenvalues --   -0.45950  -0.45680  -0.45641  -0.45270  -0.45108
 Alpha  occ. eigenvalues --   -0.44617  -0.43859  -0.43848  -0.42967  -0.41740
 Alpha  occ. eigenvalues --   -0.41517  -0.41083  -0.39927  -0.38888  -0.38769
 Alpha  occ. eigenvalues --   -0.38239  -0.38095  -0.37975  -0.37573  -0.37056
 Alpha  occ. eigenvalues --   -0.36211  -0.36197  -0.34550  -0.34527  -0.33286
 Alpha  occ. eigenvalues --   -0.33140  -0.31625  -0.31403  -0.30418  -0.30168
 Alpha  occ. eigenvalues --   -0.29799  -0.28263  -0.27588  -0.27460  -0.27169
 Alpha  occ. eigenvalues --   -0.26677  -0.26252  -0.24799  -0.18289
 Alpha virt. eigenvalues --   -0.05779  -0.04742  -0.03228  -0.02823  -0.02180
 Alpha virt. eigenvalues --   -0.00849  -0.00258   0.00076   0.00485   0.01081
 Alpha virt. eigenvalues --    0.01671   0.01857   0.02692   0.02796   0.02852

  Beta  occ. eigenvalues --  -89.05489 -89.05484 -19.12188 -19.12172 -19.11706
  Beta  occ. eigenvalues --  -19.11698 -19.08938 -19.08909 -10.25563 -10.23904
  Beta  occ. eigenvalues --  -10.21301 -10.21289 -10.20969 -10.20966 -10.20820
  Beta  occ. eigenvalues --  -10.20814 -10.19514 -10.19514 -10.19230 -10.19229
  Beta  occ. eigenvalues --  -10.18978 -10.18972 -10.18826 -10.18824 -10.18729
  Beta  occ. eigenvalues --  -10.18725 -10.16063 -10.16045  -8.11855  -8.11848
  Beta  occ. eigenvalues --   -6.08133  -6.08127  -6.08031  -6.08024  -6.07954
  Beta  occ. eigenvalues --   -6.07946  -1.11303  -1.11263  -1.02188  -1.00919
  Beta  occ. eigenvalues --   -1.00835  -1.00754  -0.87782  -0.87771  -0.85230
  Beta  occ. eigenvalues --   -0.81062  -0.78096  -0.77989  -0.76473  -0.76448
  Beta  occ. eigenvalues --   -0.73831  -0.72864  -0.69559  -0.65916  -0.65618
  Beta  occ. eigenvalues --   -0.62399  -0.62392  -0.61330  -0.60954  -0.57303
  Beta  occ. eigenvalues --   -0.57240  -0.54139  -0.53972  -0.52061  -0.50731
  Beta  occ. eigenvalues --   -0.49034  -0.48528  -0.48140  -0.47814  -0.46878
  Beta  occ. eigenvalues --   -0.45839  -0.45648  -0.45531  -0.45254  -0.44841
  Beta  occ. eigenvalues --   -0.43868  -0.43849  -0.43517  -0.42352  -0.41393
  Beta  occ. eigenvalues --   -0.41295  -0.40063  -0.39827  -0.38873  -0.38481
  Beta  occ. eigenvalues --   -0.38087  -0.37961  -0.37437  -0.36937  -0.36217
  Beta  occ. eigenvalues --   -0.36196  -0.35696  -0.34480  -0.34443  -0.33252
  Beta  occ. eigenvalues --   -0.32998  -0.31588  -0.31305  -0.30357  -0.30039
  Beta  occ. eigenvalues --   -0.28046  -0.27561  -0.27416  -0.27232  -0.26641
  Beta  occ. eigenvalues --   -0.26286  -0.25662  -0.24341
  Beta virt. eigenvalues --   -0.11173  -0.04908  -0.04702  -0.02797  -0.02667
  Beta virt. eigenvalues --   -0.02052  -0.00838   0.00078   0.00488   0.00861
  Beta virt. eigenvalues --    0.01470   0.01676   0.02050   0.02708   0.02901

 Mulliken charges and spin densities:
               1          2
     1  C   -0.296444   0.030561
     2  C   -0.201601   0.074101
     3  C    0.765218   0.136418
     4  C   -1.646088   0.034210
     5  C    0.782948   0.135495
     6  C   -0.203832   0.074746
     7  O   -0.249794   0.206750
     8  O   -0.375892   0.306461
     9  S    0.625044  -0.012050
    10  C   -0.061627  -0.005018
    11  C   -0.175820   0.014355
    12  C    0.186800  -0.003836
    13  C   -0.514710   0.002260
    14  C   -0.324979  -0.002111
    15  C   -0.375423  -0.000381
    16  O   -0.152893   0.002711
    17  O   -0.165913  -0.001101
    18  H    0.252215   0.000387
    19  H    0.251961   0.000076
    20  H    0.221961  -0.000065
    21  H    0.219398   0.000038
    22  H    0.195613  -0.000024
    23  S    0.606329  -0.013233
    24  C   -0.034687  -0.006449
    25  C   -0.176772   0.015677
    26  C    0.191973  -0.002954
    27  C   -0.527084   0.002234
    28  C   -0.292256  -0.001592
    29  C   -0.398240  -0.000577
    30  O   -0.160304   0.002751
    31  O   -0.164018  -0.001060
    32  H    0.253720   0.000475
    33  H    0.252493   0.000182
    34  H    0.218973   0.000008
    35  H    0.219207  -0.000079
    36  H    0.196366  -0.000023
    37  C   -0.545370  -0.003829
    38  C   -0.544981  -0.004123
    39  H    0.199956   0.006925
    40  H    0.179668  -0.002105
    41  H    0.192927   0.004490
    42  H    0.179081  -0.002027
    43  H    0.201476   0.006929
    44  H    0.195402   0.004398
 Sum of Mulliken charges =  -1.00000   1.00000

 Dipole moment (field-independent basis, Debye):
    X=             -0.2926    Y=             12.6358    Z=             -6.6131  Tot=             14.2648
 Quadrupole moment (field-independent basis, Debye-Ang):
   XX=           -237.5459   YY=           -191.2627   ZZ=           -190.3256
   XY=             -1.6145   XZ=             -0.7465   YZ=            -10.4623

 Normal termination of Gaussian 16 at Wed Jan 24 23:18:21 2024.
