 Gaussian 16, Revision A.03,
 Gaussian 16:  ES64L-G16RevA.03 25-Dec-2016

 --------------------------------------
 #P UB3LYP/6-311++G(d,p) nosym opt freq
 --------------------------------------

 -------
 Radical
 -------
 Symbolic Z-matrix:
 Charge = -1 Multiplicity = 2

 SCF Done:  E(UB3LYP) =  -2019.80065178     A.U. after   24 cycles
 SCF Done:  E(UB3LYP) =  -2019.80065174     A.U. after   12 cycles
 SCF Done:  E(UB3LYP) =  -2019.80065174     A.U. after   13 cycles
 SCF Done:  E(UB3LYP) =  -2019.80065180     A.U. after   12 cycles
 SCF Done:  E(UB3LYP) =  -2019.80065178     A.U. after   13 cycles
 SCF Done:  E(UB3LYP) =  -2019.80065180     A.U. after   13 cycles
 Optimization completed.
    -- Stationary point found.
 Normal termination of Gaussian 16 at Wed Jan 10 07:07:34 2024.

 ----------------------------------------------------------------------
 #P Geom=AllCheck Guess=TCheck SCRF=Check GenChk UB3LYP/6-311++G(d,p) F
 req
 ----------------------------------------------------------------------

 Structure from the checkpoint file:  "074-rad.chk"
 -------
 Radical
 -------
 Charge = -1 Multiplicity = 2

                          Input orientation:
 ---------------------------------------------------------------------
 Center     Atomic      Atomic             Coordinates (Angstroms)
 Number     Number       Type             X           Y           Z
 ---------------------------------------------------------------------
      1          6           0        0.605813    1.290944   -0.895534
      2          6           0       -0.736514    0.822967   -0.580162
      3          6           0       -1.028499   -0.481705   -0.240663
      4          6           0        0.074942   -1.439241   -0.101024
      5          6           0        1.451379   -0.995728   -0.350379
      6          6           0        1.673161    0.323171   -0.686515
      7          8           0        0.827876    2.446646   -1.313743
      8          8           0       -0.156985   -2.631082    0.232859
      9         16           0        3.342371    0.952388   -1.031150
     10          6           0        3.498367    2.542704   -0.165875
     11          6           0        3.429409    3.729234   -0.887351
     12          6           0        3.785603    2.534720    1.195582
     13          6           0        3.994132    3.747017    1.852063
     14          6           0        3.657934    4.933706   -0.227296
     15          6           0        3.934693    4.944317    1.140409
     16          8           0        3.506293    1.210578   -2.469300
     17          8           0        4.319089    0.071391   -0.360694
     18          1           0        3.188899    3.691488   -1.940850
     19          1           0        3.859614    1.593441    1.725786
     20          1           0        3.608578    5.866021   -0.779276
     21          1           0        4.212681    3.753382    2.914399
     22          1           0        4.101920    5.886491    1.651867
     23         16           0       -2.038124    2.073787   -0.787732
     24          6           0       -1.484741    3.556924    0.104900
     25          6           0       -0.965352    4.636023   -0.601664
     26          6           0       -1.682475    3.615909    1.481252
     27          6           0       -1.338939    4.780176    2.167044
     28          6           0       -0.641445    5.800822    0.089353
     29          6           0       -0.823128    5.872507    1.470955
     30          8           0       -2.184925    2.433864   -2.205317
     31          8           0       -3.236154    1.626237   -0.050250
     32          1           0       -0.813349    4.543133   -1.667970
     33          1           0       -2.113752    2.769018    2.000198
     34          1           0       -1.484199    4.835589    3.240463
     35          1           0       -0.236093    6.649687   -0.450375
     36          1           0       -0.560116    6.779380    2.005444
     37          6           0       -2.405998   -1.047945   -0.008068
     38          6           0        2.506459   -2.064928   -0.226041
     39          1           0       -2.842541   -0.657782    0.914548
     40          1           0       -2.320456   -2.130363    0.068172
     41          1           0       -3.095406   -0.777944   -0.808279
     42          1           0        2.006625   -3.027167   -0.130899
     43          1           0        3.133533   -1.899318    0.653420
     44          1           0        3.180164   -2.071208   -1.083189
 ---------------------------------------------------------------------

 SCF Done:  E(UB3LYP) =  -2019.80065180     A.U. after    2 cycles

 Alpha  occ. eigenvalues --  -88.94407 -88.94396 -19.00662 -19.00634 -19.00490
 Alpha  occ. eigenvalues --  -19.00481 -18.98350 -18.98211 -10.14390 -10.12735
 Alpha  occ. eigenvalues --  -10.11775 -10.11754 -10.10716 -10.10715 -10.10578
 Alpha  occ. eigenvalues --  -10.10574 -10.10458 -10.10453 -10.10263 -10.10246
 Alpha  occ. eigenvalues --  -10.10091 -10.10076 -10.09997 -10.09992 -10.09936
 Alpha  occ. eigenvalues --  -10.09933 -10.05487 -10.05477  -8.00755  -8.00741
 Alpha  occ. eigenvalues --   -5.97014  -5.97001  -5.96939  -5.96926  -5.96871
 Alpha  occ. eigenvalues --   -5.96858  -0.99962  -0.99915  -0.91741  -0.90925
 Alpha  occ. eigenvalues --   -0.89404  -0.89366  -0.78819  -0.78809  -0.74727
 Alpha  occ. eigenvalues --   -0.70454  -0.68894  -0.68672  -0.67713  -0.67688
 Alpha  occ. eigenvalues --   -0.63533  -0.62439  -0.59143  -0.55944  -0.55685
 Alpha  occ. eigenvalues --   -0.53644  -0.53629  -0.51609  -0.51201  -0.47422
 Alpha  occ. eigenvalues --   -0.47376  -0.44390  -0.44319  -0.41452  -0.40419
 Alpha  occ. eigenvalues --   -0.39263  -0.38737  -0.38685  -0.38034  -0.37081
 Alpha  occ. eigenvalues --   -0.36926  -0.36136  -0.35403  -0.35224  -0.34558
 Alpha  occ. eigenvalues --   -0.34217  -0.34103  -0.33492  -0.31605  -0.31040
 Alpha  occ. eigenvalues --   -0.31015  -0.30225  -0.29863  -0.29510  -0.29338
 Alpha  occ. eigenvalues --   -0.29029  -0.28800  -0.27615  -0.27576  -0.27087
 Alpha  occ. eigenvalues --   -0.26754  -0.26275  -0.23082  -0.23061  -0.21870
 Alpha  occ. eigenvalues --   -0.21686  -0.20464  -0.20013  -0.19657  -0.19640
 Alpha  occ. eigenvalues --   -0.18678  -0.18210  -0.18152  -0.18066  -0.17931
 Alpha  occ. eigenvalues --   -0.16136  -0.15147  -0.13753  -0.07016
 Alpha virt. eigenvalues --    0.04279   0.04392   0.05254   0.05967   0.06327
 Alpha virt. eigenvalues --    0.06757   0.07018   0.07182   0.08385   0.08872
 Alpha virt. eigenvalues --    0.09357   0.09744   0.10685   0.10783   0.11188

  Beta  occ. eigenvalues --  -88.94409 -88.94398 -19.00654 -19.00626 -19.00488
  Beta  occ. eigenvalues --  -19.00479 -18.97660 -18.97482 -10.14315 -10.12640
  Beta  occ. eigenvalues --  -10.11775 -10.11754 -10.10716 -10.10715 -10.10579
  Beta  occ. eigenvalues --  -10.10575 -10.10457 -10.10452 -10.10262 -10.10245
  Beta  occ. eigenvalues --  -10.10091 -10.10075 -10.09903 -10.09901 -10.09776
  Beta  occ. eigenvalues --  -10.09770 -10.05501 -10.05490  -8.00756  -8.00743
  Beta  occ. eigenvalues --   -5.97015  -5.97002  -5.96940  -5.96927  -5.96874
  Beta  occ. eigenvalues --   -5.96861  -0.99945  -0.99903  -0.90838  -0.89464
  Beta  occ. eigenvalues --   -0.89391  -0.89303  -0.78816  -0.78806  -0.74139
  Beta  occ. eigenvalues --   -0.70239  -0.68873  -0.68603  -0.67711  -0.67686
  Beta  occ. eigenvalues --   -0.63082  -0.62307  -0.59004  -0.55906  -0.55186
  Beta  occ. eigenvalues --   -0.53639  -0.53625  -0.51447  -0.51084  -0.47253
  Beta  occ. eigenvalues --   -0.47221  -0.44258  -0.44220  -0.41288  -0.40206
  Beta  occ. eigenvalues --   -0.39206  -0.38724  -0.38679  -0.37985  -0.37052
  Beta  occ. eigenvalues --   -0.36916  -0.36075  -0.35373  -0.35221  -0.34399
  Beta  occ. eigenvalues --   -0.34079  -0.33811  -0.32654  -0.31132  -0.30809
  Beta  occ. eigenvalues --   -0.30648  -0.29849  -0.29785  -0.29391  -0.29323
  Beta  occ. eigenvalues --   -0.28938  -0.28000  -0.27581  -0.27556  -0.26557
  Beta  occ. eigenvalues --   -0.26146  -0.24473  -0.23014  -0.22999  -0.21826
  Beta  occ. eigenvalues --   -0.21530  -0.20397  -0.19889  -0.19580  -0.19550
  Beta  occ. eigenvalues --   -0.18383  -0.18133  -0.18078  -0.17856  -0.15485
  Beta  occ. eigenvalues --   -0.15463  -0.14499  -0.13189
  Beta virt. eigenvalues --    0.00116   0.04425   0.04661   0.05256   0.06007
  Beta virt. eigenvalues --    0.06460   0.06805   0.07182   0.08011   0.08391
  Beta virt. eigenvalues --    0.08874   0.09372   0.09747   0.10694   0.11030

 Mulliken charges and spin densities:
               1          2
     1  C   -0.254833   0.023107
     2  C   -0.243069   0.074760
     3  C    0.848998   0.141833
     4  C   -1.779740   0.010517
     5  C    0.864027   0.140570
     6  C   -0.246132   0.075297
     7  O   -0.188068   0.211801
     8  O   -0.306663   0.320328
     9  S    0.519595  -0.012187
    10  C   -0.007518  -0.004949
    11  C   -0.230782   0.015113
    12  C    0.176325  -0.004658
    13  C   -0.494386   0.002211
    14  C   -0.287122  -0.002361
    15  C   -0.327264  -0.000124
    16  O   -0.066247   0.003359
    17  O   -0.097709  -0.001174
    18  H    0.265289   0.000321
    19  H    0.237293  -0.000022
    20  H    0.175047  -0.000053
    21  H    0.169557   0.000056
    22  H    0.142530  -0.000037
    23  S    0.496104  -0.013372
    24  C    0.015962  -0.006175
    25  C   -0.223612   0.016602
    26  C    0.176738  -0.003941
    27  C   -0.511067   0.002218
    28  C   -0.235945  -0.001911
    29  C   -0.359309  -0.000276
    30  O   -0.071658   0.003379
    31  O   -0.095800  -0.001140
    32  H    0.267882   0.000405
    33  H    0.238090   0.000103
    34  H    0.168870   0.000020
    35  H    0.172185  -0.000063
    36  H    0.143449  -0.000039
    37  C   -0.578920  -0.003826
    38  C   -0.577475  -0.004127
    39  H    0.180318   0.007043
    40  H    0.186847  -0.002328
    41  H    0.183727   0.004521
    42  H    0.185813  -0.002249
    43  H    0.182020   0.007030
    44  H    0.186652   0.004415
 Sum of Mulliken charges =  -1.00000   1.00000

 Dipole moment (field-independent basis, Debye):
    X=             -1.7272    Y=             -0.9860    Z=              6.6612  Tot=              6.9518
 Quadrupole moment (field-independent basis, Debye-Ang):
   XX=           -236.2733   YY=           -194.5472   ZZ=           -191.8221
   XY=              9.5764   XZ=              7.3731   YZ=             15.0341

  Exact polarizability: 294.154  21.279 388.305  -1.737   8.325 243.570
 Approx polarizability: 416.131  43.598 621.447  -8.410 -42.892 460.600

                      1                      2                      3
                      A                      A                      A
 Frequencies --      6.3315                17.8097                29.2992
 Red. masses --      5.2713                 5.9946                 4.4015
 Frc consts  --      0.0001                 0.0011                 0.0022
 IR Inten    --      0.0318                 0.6214                 0.2103

                      4                      5                      6
                      A                      A                      A
 Frequencies --     32.5580                44.1152                51.1904
 Red. masses --      6.4137                 4.2301                 4.0380
 Frc consts  --      0.0040                 0.0049                 0.0062
 IR Inten    --      0.6580                 0.0747                 0.9660

                      7                      8                      9
                      A                      A                      A
 Frequencies --     64.2465                84.1687                91.1221
 Red. masses --      4.5864                 5.5491                 5.3130
 Frc consts  --      0.0112                 0.0232                 0.0260
 IR Inten    --      0.9155                 2.7539                 3.9533

                     10                     11                     12
                      A                      A                      A
 Frequencies --    127.3167               139.6385               142.8553
 Red. masses --      6.6305                 1.0826                 1.1425
 Frc consts  --      0.0633                 0.0124                 0.0137
 IR Inten    --      1.3830                 0.0003                 0.8466

                     13                     14                     15
                      A                      A                      A
 Frequencies --    167.4660               179.7448               190.9253
 Red. masses --      5.6959                 6.7672                 7.0128
 Frc consts  --      0.0941                 0.1288                 0.1506
 IR Inten    --      0.3978                 0.6800                 6.0381

                     16                     17                     18
                      A                      A                      A
 Frequencies --    196.4092               206.2256               221.8597
 Red. masses --      6.2054                 7.1000                 7.9327
 Frc consts  --      0.1410                 0.1779                 0.2301
 IR Inten    --      2.0711                 0.8703                 3.5545

                     19                     20                     21
                      A                      A                      A
 Frequencies --    228.3912               249.5205               271.6527
 Red. masses --      6.0087                12.7867                11.1454
 Frc consts  --      0.1847                 0.4691                 0.4846
 IR Inten    --      2.0617                 0.5436                 4.0151

                     22                     23                     24
                      A                      A                      A
 Frequencies --    278.0397               303.6905               306.3709
 Red. masses --      8.0893                 7.3176                 8.4354
 Frc consts  --      0.3684                 0.3976                 0.4665
 IR Inten    --      0.2359                 2.4487                 0.1043

                     25                     26                     27
                      A                      A                      A
 Frequencies --    347.3157               358.0960               376.8379
 Red. masses --      6.0877                 3.3885                 4.9844
 Frc consts  --      0.4327                 0.2560                 0.4170
 IR Inten    --      0.0558                 0.8860                 6.9980

                     28                     29                     30
                      A                      A                      A
 Frequencies --    384.2568               409.3795               411.2575
 Red. masses --      5.7409                 2.8817                 2.9000
 Frc consts  --      0.4994                 0.2845                 0.2890
 IR Inten    --      4.8491                 0.1024                 0.0482

                     31                     32                     33
                      A                      A                      A
 Frequencies --    427.1277               429.9911               434.3950
 Red. masses --      5.6724                 9.3895                 6.4556
 Frc consts  --      0.6097                 1.0229                 0.7177
 IR Inten    --      7.3204                 0.8766                 0.8011

                     34                     35                     36
                      A                      A                      A
 Frequencies --    460.3929               463.5453               485.1792
 Red. masses --      5.3912                 5.3077                 8.0513
 Frc consts  --      0.6733                 0.6720                 1.1167
 IR Inten    --     23.9217                 7.8298                 0.7317

                     37                     38                     39
                      A                      A                      A
 Frequencies --    510.4121               537.8135               555.1480
 Red. masses --      7.3712                11.3893                 6.6302
 Frc consts  --      1.1314                 1.9409                 1.2039
 IR Inten    --     15.9236                71.3184               144.9406

                     40                     41                     42
                      A                      A                      A
 Frequencies --    575.0515               590.6982               603.8071
 Red. masses --      5.5799                 7.6450                 8.3019
 Frc consts  --      1.0871                 1.5717                 1.7833
 IR Inten    --      1.9954                 6.0015               225.5399

                     43                     44                     45
                      A                      A                      A
 Frequencies --    628.0878               628.4043               679.0108
 Red. masses --      6.4260                 6.4198                 8.5735
 Frc consts  --      1.4936                 1.4937                 2.3290
 IR Inten    --      0.0051                 0.0317                60.2583

                     46                     47                     48
                      A                      A                      A
 Frequencies --    697.8690               699.1083               702.1220
 Red. masses --      1.7514                 1.8328                 5.2265
 Frc consts  --      0.5025                 0.5278                 1.5181
 IR Inten    --    121.4279                16.6075                 1.8098

                     49                     50                     51
                      A                      A                      A
 Frequencies --    705.7906               719.7699               732.2093
 Red. masses --      6.4729                 6.7339                 5.6680
 Frc consts  --      1.8998                 2.0554                 1.7904
 IR Inten    --      9.3365                77.0423                28.9277

                     52                     53                     54
                      A                      A                      A
 Frequencies --    758.1916               759.0195               774.0720
 Red. masses --      1.9425                 1.8527                 7.7275
 Frc consts  --      0.6579                 0.6289                 2.7280
 IR Inten    --     13.1414                 3.2694                16.0920

                     55                     56                     57
                      A                      A                      A
 Frequencies --    842.1499               845.6919               869.7890
 Red. masses --      1.2481                 1.2469                 4.0674
 Frc consts  --      0.5215                 0.5254                 1.8130
 IR Inten    --      0.0226                 1.8214                 4.7313

                     58                     59                     60
                      A                      A                      A
 Frequencies --    927.4036               929.2727               977.5268
 Red. masses --      1.3828                 1.3791                 1.4348
 Frc consts  --      0.7007                 0.7016                 0.8078
 IR Inten    --      0.0981                 1.1595                 0.0770

                     61                     62                     63
                      A                      A                      A
 Frequencies --    978.7854               980.5944               986.6432
 Red. masses --      1.3937                 5.4518                 2.7696
 Frc consts  --      0.7867                 3.0886                 1.5885
 IR Inten    --      0.3947                 0.0729                 4.5971

                     64                     65                     66
                      A                      A                      A
 Frequencies --    989.0492               991.8569              1015.0253
 Red. masses --      1.3044                 1.3018                 6.0781
 Frc consts  --      0.7518                 0.7546                 3.6895
 IR Inten    --      0.0201                 0.1031                 9.2394

                     67                     68                     69
                      A                      A                      A
 Frequencies --   1015.5182              1040.1140              1040.7719
 Red. masses --      6.0500                 3.7598                 3.3450
 Frc consts  --      3.6761                 2.3965                 2.1348
 IR Inten    --      0.9558                35.4536                17.5388

                     70                     71                     72
                      A                      A                      A
 Frequencies --   1045.6984              1046.1460              1054.0240
 Red. masses --      1.4894                 1.5842                 2.0139
 Frc consts  --      0.9596                 1.0215                 1.3182
 IR Inten    --      6.6137                 1.7352                70.9547

                     73                     74                     75
                      A                      A                      A
 Frequencies --   1062.6315              1064.8800              1094.5196
 Red. masses --      3.0489                 4.1936                 2.9395
 Frc consts  --      2.0284                 2.8018                 2.0748
 IR Inten    --    170.7367                29.4300                 8.3531

                     76                     77                     78
                      A                      A                      A
 Frequencies --   1095.0321              1095.7268              1107.7236
 Red. masses --      1.5777                 1.7733                 3.8974
 Frc consts  --      1.1146                 1.2544                 2.8176
 IR Inten    --      7.0457                20.9757                78.4288

                     79                     80                     81
                      A                      A                      A
 Frequencies --   1107.8603              1163.9044              1177.0291
 Red. masses --      3.9442                 6.8224                 1.1146
 Frc consts  --      2.8522                 5.4453                 0.9098
 IR Inten    --     92.3909                29.9322                 0.0104

                     82                     83                     84
                      A                      A                      A
 Frequencies --   1177.6203              1194.4359              1195.7120
 Red. masses --      1.1151                 1.1488                 1.1492
 Frc consts  --      0.9112                 0.9657                 0.9681
 IR Inten    --      0.1620                 1.3047                 7.4877

                     85                     86                     87
                      A                      A                      A
 Frequencies --   1228.4808              1239.2948              1251.0861
 Red. masses --      6.8819                17.3217                 7.1897
 Frc consts  --      6.1193                15.6744                 6.6304
 IR Inten    --    138.3596                29.9494               188.7439

                     88                     89                     90
                      A                      A                      A
 Frequencies --   1331.1589              1331.5993              1342.3845
 Red. masses --      2.2362                 2.1550                 2.2148
 Frc consts  --      2.3346                 2.2513                 2.3514
 IR Inten    --      0.7413                 0.2092                 1.9364

                     91                     92                     93
                      A                      A                      A
 Frequencies --   1343.0378              1362.6994              1398.2041
 Red. masses --      2.3060                 4.8728                 1.2873
 Frc consts  --      2.4507                 5.3313                 1.4827
 IR Inten    --      4.9727                87.3198                38.9239

                     94                     95                     96
                      A                      A                      A
 Frequencies --   1404.0434              1464.3093              1471.9039
 Red. masses --      1.2225                 1.1798                 1.7687
 Frc consts  --      1.4199                 1.4905                 2.2577
 IR Inten    --     18.8323               123.1421                 7.7587

                     97                     98                     99
                      A                      A                      A
 Frequencies --   1472.7981              1473.1272              1482.5872
 Red. masses --      2.1548                 2.1588                 1.6673
 Frc consts  --      2.7539                 2.7603                 2.1593
 IR Inten    --      1.3852                20.8692                41.9474

                    100                    101                    102
                      A                      A                      A
 Frequencies --   1492.1702              1498.8036              1505.2244
 Red. masses --      1.0973                 1.3079                 4.2860
 Frc consts  --      1.4395                 1.7310                 5.7214
 IR Inten    --     13.3336                13.7751               146.7589

                    103                    104                    105
                      A                      A                      A
 Frequencies --   1506.7462              1506.9585              1545.1467
 Red. masses --      2.0607                 2.0710                 9.0020
 Frc consts  --      2.7564                 2.7709                12.6627
 IR Inten    --      0.3759                 4.9776                66.9743

                    106                    107                    108
                      A                      A                      A
 Frequencies --   1603.0225              1622.0901              1622.5771
 Red. masses --      9.8664                 5.4648                 5.4559
 Frc consts  --     14.9379                 8.4718                 8.4631
 IR Inten    --    137.7695                 0.3951                 2.2757

                    109                    110                    111
                      A                      A                      A
 Frequencies --   1626.9297              1627.3250              3046.5764
 Red. masses --      5.9337                 5.9387                 1.0383
 Frc consts  --      9.2536                 9.2660                 5.6780
 IR Inten    --      0.2824                 0.8406                34.1380

                    112                    113                    114
                      A                      A                      A
 Frequencies --   3047.0381              3099.6024              3099.9243
 Red. masses --      1.0384                 1.0954                 1.0953
 Frc consts  --      5.6802                 6.2006                 6.2013
 IR Inten    --     14.5809                 8.9956                20.0509

                    115                    116                    117
                      A                      A                      A
 Frequencies --   3138.6679              3139.2406              3152.1704
 Red. masses --      1.1028                 1.1027                 1.0850
 Frc consts  --      6.4007                 6.4026                 6.3521
 IR Inten    --      0.9539                12.5416                 0.1168

                    118                    119                    120
                      A                      A                      A
 Frequencies --   3152.4319              3166.3545              3166.8998
 Red. masses --      1.0851                 1.0898                 1.0898
 Frc consts  --      6.3533                 6.4372                 6.4394
 IR Inten    --      1.7782                 5.2886                39.1367

                    121                    122                    123
                      A                      A                      A
 Frequencies --   3177.4020              3177.8698              3197.6295
 Red. masses --      1.0952                 1.0952                 1.0932
 Frc consts  --      6.5147                 6.5163                 6.5859
 IR Inten    --      2.2561                60.4182                 4.2395

                    124                    125                    126
                      A                      A                      A
 Frequencies --   3198.1330              3219.1822              3221.3927
 Red. masses --      1.0931                 1.0928                 1.0928
 Frc consts  --      6.5874                 6.6727                 6.6817
 IR Inten    --      5.9001                 2.8957                 3.7618

 - Thermochemistry -
 -------------------
 Temperature   298.150 Kelvin.  Pressure   1.00000 Atm.
 Atom     1 has atomic number  6 and mass  12.00000

 Molecular mass:   416.03883 amu.
 Principal axes and moments of inertia in atomic units:
                           1         2         3
     Eigenvalues --  9625.95221********************
           X            0.98137   0.19143   0.01623
           Y           -0.18545   0.96600  -0.18014
           Z           -0.05017   0.17378   0.98351
 This molecule is an asymmetric top.
 Rotational symmetry number  1.
 Warning -- assumption of classical behavior for rotation
           may cause significant error
 Rotational temperatures (Kelvin)      0.00900     0.00833     0.00513
 Rotational constants (GHZ):           0.18749     0.17355     0.10699
 Zero-point vibrational energy     835846.8 (Joules/Mol)
                                  199.77217 (Kcal/Mol)
 Warning -- explicit consideration of  42 degrees of freedom as
           vibrations may cause significant error
 Vibrational temperatures:      9.11    25.62    42.16    46.84    63.47
          (Kelvin)             73.65    92.44   121.10   131.10   183.18
                              200.91   205.54   240.95   258.61   274.70
                              282.59   296.71   319.21   328.60   359.00
                              390.85   400.04   436.94   440.80   499.71
                              515.22   542.19   552.86   589.01   591.71
                              614.54   618.66   625.00   662.40   666.94
                              698.06   734.37   773.79   798.73   827.37
                              849.88   868.74   903.68   904.13   976.95
                             1004.08  1005.86  1010.20  1015.48  1035.59
                             1053.49  1090.87  1092.06  1113.72  1211.67
                             1216.76  1251.43  1334.33  1337.02  1406.44
                             1408.25  1410.86  1419.56  1423.02  1427.06
                             1460.39  1461.10  1496.49  1497.44  1504.53
                             1505.17  1516.51  1528.89  1532.12  1574.77
                             1575.51  1576.51  1593.77  1593.96  1674.60
                             1693.48  1694.33  1718.53  1720.36  1767.51
                             1783.07  1800.03  1915.24  1915.87  1931.39
                             1932.33  1960.62  2011.70  2020.11  2106.81
                             2117.74  2119.03  2119.50  2133.11  2146.90
                             2156.44  2165.68  2167.87  2168.18  2223.12
                             2306.39  2333.83  2334.53  2340.79  2341.36
                             4383.34  4384.01  4459.64  4460.10  4515.84
                             4516.67  4535.27  4535.65  4555.68  4556.46
                             4571.57  4572.25  4600.68  4601.40  4631.69
                             4634.87

 Zero-point correction=                           0.318357 (Hartree/Particle)
 Thermal correction to Energy=                    0.344130
 Thermal correction to Enthalpy=                  0.345075
 Thermal correction to Gibbs Free Energy=         0.258531
 Sum of electronic and zero-point Energies=          -2019.482295
 Sum of electronic and thermal Energies=             -2019.456521
 Sum of electronic and thermal Enthalpies=           -2019.455577
 Sum of electronic and thermal Free Energies=        -2019.542120

                     E (Thermal)             CV                S
                      KCal/Mol        Cal/Mol-Kelvin    Cal/Mol-Kelvin
 Total                  215.945             97.607            182.146
 Electronic               0.000              0.000              1.377
 Translational            0.889              2.981             43.967
 Rotational               0.889              2.981             35.778
 Vibrational            214.168             91.645            101.023
 Vibration     1          0.593              1.987              8.919
 Vibration     2          0.593              1.986              6.865
 Vibration     3          0.593              1.984              5.876
 Vibration     4          0.594              1.983              5.667
 Vibration     5          0.595              1.980              5.065
 Vibration     6          0.595              1.977              4.771
 Vibration     7          0.597              1.971              4.322
 Vibration     8          0.601              1.960              3.791
 Vibration     9          0.602              1.955              3.636
 Vibration    10          0.611              1.926              2.986
 Vibration    11          0.615              1.914              2.809
 Vibration    12          0.616              1.910              2.765
 Vibration    13          0.624              1.882              2.464
 Vibration    14          0.629              1.867              2.331
 Vibration    15          0.634              1.852              2.219
 Vibration    16          0.636              1.845              2.166
 Vibration    17          0.641              1.831              2.077
 Vibration    18          0.648              1.808              1.944
 Vibration    19          0.651              1.798              1.892
 Vibration    20          0.662              1.764              1.734
 Vibration    21          0.675              1.726              1.586
 Vibration    22          0.679              1.714              1.546
 Vibration    23          0.695              1.667              1.396
 Vibration    24          0.697              1.662              1.382
 Vibration    25          0.725              1.581              1.178
 Vibration    26          0.733              1.559              1.130
 Vibration    27          0.747              1.519              1.052
 Vibration    28          0.753              1.504              1.022
 Vibration    29          0.774              1.450              0.929
 Vibration    30          0.775              1.446              0.922
 Vibration    31          0.789              1.411              0.868
 Vibration    32          0.791              1.405              0.859
 Vibration    33          0.795              1.395              0.844
 Vibration    34          0.818              1.338              0.765
 Vibration    35          0.821              1.331              0.756
 Vibration    36          0.841              1.283              0.696
 Vibration    37          0.866              1.227              0.633
 Vibration    38          0.893              1.166              0.570
 Vibration    39          0.911              1.128              0.534
 Vibration    40          0.931              1.085              0.495
 Vibration    41          0.948              1.052              0.466
 Vibration    42          0.962              1.024              0.443

                           ! Non-Optimized Parameters !
 Normal termination of Gaussian 16 at Wed Jan 10 16:59:59 2024.
