 Q-Chem 5.4, Q-Chem, Inc., Pleasanton, CA (2021)
 Q-Chem 5.4.0 for Intel X86 EM64T Linux

User input:
--------------------------------------------------------------
$molecule
-2 1
C                 -6.5604080000      0.8197080000     -1.8598360000
C                 -6.6916990000      1.0514770000     -3.2151890000
C                 -5.6939800000      0.5966020000     -4.1114860000
C                 -5.4401160000      0.1296350000     -1.3325630000
C                 -4.4234090000     -0.3318430000     -2.2436030000
C                 -4.5886690000     -0.0793030000     -3.6177260000
C                 -5.3165040000     -0.1081010000      0.0771100000
C                 -4.1432390000     -0.8147540000      0.4925000000
C                 -3.1436390000     -1.2808570000     -0.3539440000
C                 -3.2335380000     -1.0547970000     -1.7743730000
O                 -6.1637640000      0.2524680000      0.9882580000
O                 -2.3380730000     -1.4645580000     -2.5815630000
O                 -4.0892900000     -1.0125090000      1.8519810000
C                 -1.9600600000     -2.0445130000      0.1783810000
H                 -7.3122760000      1.1595120000     -1.1548620000
H                 -7.5608420000      1.5844920000     -3.5948450000
H                 -5.7944480000      0.7784790000     -5.1786840000
H                 -3.8060260000     -0.4383680000     -4.2783710000
H                 -4.9323450000     -0.5748490000      2.1237700000
C                 -0.7104830000     -1.1754450000      0.4306610000
C                  0.4877020000     -2.0219570000      0.9098550000
C                  1.7471820000     -1.2392510000      1.2002020000
C                  2.6472340000     -0.8987110000      0.1807720000
C                  2.0637000000     -0.8169150000      2.4957040000
C                  3.2266240000     -0.0935960000      2.7612490000
C                  4.1280370000      0.2398150000      1.7452580000
C                  3.8095360000     -0.1784690000      0.4457630000
C                  5.4023450000      1.0066860000      2.0577440000
C                  6.6783120000      0.1782500000      1.7814370000
C                  5.4823190000      2.3667200000      1.3292160000
C                  6.7599050000      3.1380830000      1.6918290000
C                  7.9567680000      0.9490540000      2.1393330000
C                  8.0225950000      2.3080980000      1.4338720000
H                 -1.6927650000     -2.8095960000     -0.5601980000
H                 -2.2342790000     -2.5458210000      1.1139360000
H                 -0.9403740000     -0.4091620000      1.1791010000
H                 -0.4493700000     -0.6572330000     -0.4968230000
H                  0.7017350000     -2.7781630000      0.1448850000
H                  0.1917410000     -2.5692530000      1.8133110000
H                  2.4295040000     -1.2052400000     -0.8380610000
H                  1.3877130000     -1.0596210000      3.3106740000
H                  3.4410800000      0.2146750000      3.7812880000
H                  4.4791990000      0.0571930000     -0.3758190000
H                  5.3891650000      1.2219670000      3.1349700000
H                  6.7040310000     -0.0996770000      0.7203290000
H                  6.6316810000     -0.7612460000      2.3449340000
H                  4.5948540000      2.9624800000      1.5712560000
H                  5.4541150000      2.1980300000      0.2455970000
H                  6.7238930000      3.4186410000      2.7533250000
H                  6.8050590000      4.0793680000      1.1297410000
H                  8.8438100000      0.3507660000      1.8931690000
H                  7.9912660000      1.1062110000      3.2260540000
H                  8.1319120000      2.1467130000      0.3527340000
H                  8.9167380000      2.8597810000      1.7518430000
$end

$rem
BASIS  =  6-311++G(d,p)
GUI  =  2
JOB_TYPE  =  SP
METHOD  =  B3LYP
SCF_CONVERGENCE  = 8
SOLVENT_METHOD = sm12
$end

$smx
solvent dimethylformamide
charges CM5
$end

--------------------------------------------------------------

             Standard Nuclear Orientation (Angstroms)
    I     Atom           X                Y                Z
 ----------------------------------------------------------------
    1      C      -6.5604080000     0.8197080000    -1.8598360000
    2      C      -6.6916990000     1.0514770000    -3.2151890000
    3      C      -5.6939800000     0.5966020000    -4.1114860000
    4      C      -5.4401160000     0.1296350000    -1.3325630000
    5      C      -4.4234090000    -0.3318430000    -2.2436030000
    6      C      -4.5886690000    -0.0793030000    -3.6177260000
    7      C      -5.3165040000    -0.1081010000     0.0771100000
    8      C      -4.1432390000    -0.8147540000     0.4925000000
    9      C      -3.1436390000    -1.2808570000    -0.3539440000
   10      C      -3.2335380000    -1.0547970000    -1.7743730000
   11      O      -6.1637640000     0.2524680000     0.9882580000
   12      O      -2.3380730000    -1.4645580000    -2.5815630000
   13      O      -4.0892900000    -1.0125090000     1.8519810000
   14      C      -1.9600600000    -2.0445130000     0.1783810000
   15      H      -7.3122760000     1.1595120000    -1.1548620000
   16      H      -7.5608420000     1.5844920000    -3.5948450000
   17      H      -5.7944480000     0.7784790000    -5.1786840000
   18      H      -3.8060260000    -0.4383680000    -4.2783710000
   19      H      -4.9323450000    -0.5748490000     2.1237700000
   20      C      -0.7104830000    -1.1754450000     0.4306610000
   21      C       0.4877020000    -2.0219570000     0.9098550000
   22      C       1.7471820000    -1.2392510000     1.2002020000
   23      C       2.6472340000    -0.8987110000     0.1807720000
   24      C       2.0637000000    -0.8169150000     2.4957040000
   25      C       3.2266240000    -0.0935960000     2.7612490000
   26      C       4.1280370000     0.2398150000     1.7452580000
   27      C       3.8095360000    -0.1784690000     0.4457630000
   28      C       5.4023450000     1.0066860000     2.0577440000
   29      C       6.6783120000     0.1782500000     1.7814370000
   30      C       5.4823190000     2.3667200000     1.3292160000
   31      C       6.7599050000     3.1380830000     1.6918290000
   32      C       7.9567680000     0.9490540000     2.1393330000
   33      C       8.0225950000     2.3080980000     1.4338720000
   34      H      -1.6927650000    -2.8095960000    -0.5601980000
   35      H      -2.2342790000    -2.5458210000     1.1139360000
   36      H      -0.9403740000    -0.4091620000     1.1791010000
   37      H      -0.4493700000    -0.6572330000    -0.4968230000
   38      H       0.7017350000    -2.7781630000     0.1448850000
   39      H       0.1917410000    -2.5692530000     1.8133110000
   40      H       2.4295040000    -1.2052400000    -0.8380610000
   41      H       1.3877130000    -1.0596210000     3.3106740000
   42      H       3.4410800000     0.2146750000     3.7812880000
   43      H       4.4791990000     0.0571930000    -0.3758190000
   44      H       5.3891650000     1.2219670000     3.1349700000
   45      H       6.7040310000    -0.0996770000     0.7203290000
   46      H       6.6316810000    -0.7612460000     2.3449340000
   47      H       4.5948540000     2.9624800000     1.5712560000
   48      H       5.4541150000     2.1980300000     0.2455970000
   49      H       6.7238930000     3.4186410000     2.7533250000
   50      H       6.8050590000     4.0793680000     1.1297410000
   51      H       8.8438100000     0.3507660000     1.8931690000
   52      H       7.9912660000     1.1062110000     3.2260540000
   53      H       8.1319120000     2.1467130000     0.3527340000
   54      H       8.9167380000     2.8597810000     1.7518430000
 ----------------------------------------------------------------

   17   -1194.3136828530      6.61e-09  Convergence criterion met
 Total energy in the final basis set =    -1194.6066773554

                    Orbital Energies (a.u.)
 --------------------------------------------------------------

 Alpha MOs
 -- Occupied --
-19.1198 -19.0296 -19.0242 -10.1876 -10.1838 -10.1837 -10.1821 -10.1799
-10.1766 -10.1764 -10.1758 -10.1758 -10.1726 -10.1716 -10.1712 -10.1666
-10.1661 -10.1660 -10.1658 -10.1657 -10.1651 -10.1648 -10.1646 -10.1636
-10.1590 -10.1482 -10.1454 -10.1353  -1.0333  -0.9474  -0.9366  -0.8680
 -0.8411  -0.8357  -0.8043  -0.7831  -0.7631  -0.7496  -0.7426  -0.7398
 -0.7372  -0.7112  -0.6734  -0.6419  -0.6232  -0.6143  -0.6111  -0.6025
 -0.5938  -0.5744  -0.5711  -0.5527  -0.5493  -0.5180  -0.5054  -0.4858
 -0.4834  -0.4699  -0.4627  -0.4547  -0.4502  -0.4410  -0.4402  -0.4384
 -0.4305  -0.4275  -0.4212  -0.4199  -0.4157  -0.4003  -0.3966  -0.3903
 -0.3805  -0.3794  -0.3793  -0.3690  -0.3629  -0.3625  -0.3600  -0.3566
 -0.3485  -0.3459  -0.3448  -0.3420  -0.3360  -0.3321  -0.3250  -0.3187
 -0.3181  -0.3112  -0.3047  -0.3045  -0.3030  -0.2595  -0.2467  -0.2422
 -0.2344  -0.2157  -0.2019  -0.1995  -0.1135

          Ground-State Mulliken Net Atomic Charges

     Atom                 Charge (a.u.)
  ----------------------------------------
      1 C                    -0.186433
      2 C                     1.091625
      3 C                     0.885989
      4 C                    -1.861943
      5 C                    -1.926393
      6 C                    -0.498950
      7 C                    -2.047508
      8 C                    -0.242471
      9 C                     2.464122
     10 C                    -2.662745
     11 O                    -0.415469
     12 O                    -0.269588
     13 O                    -0.041549
     14 C                     0.191252
     15 H                     0.108680
     16 H                     0.377566
     17 H                     0.346381
     18 H                     0.090085
     19 H                     0.307172
     20 C                    -0.764820
     21 C                    -0.272814
     22 C                    -0.755055
     23 C                    -1.478308
     24 C                    -0.960905
     25 C                     0.505216
     26 C                     1.795649
     27 C                     0.046197
     28 C                     0.981232
     29 C                    -0.031694
     30 C                    -0.416649
     31 C                     0.088110
     32 C                     0.148684
     33 C                    -0.082537
     34 H                     0.064943
     35 H                     0.219720
     36 H                    -0.009317
     37 H                    -0.086032
     38 H                     0.177107
     39 H                     0.141714
     40 H                     0.246770
     41 H                     0.319262
     42 H                     0.233349
     43 H                     0.254311
     44 H                     0.298324
     45 H                     0.115675
     46 H                     0.180906
     47 H                     0.138289
     48 H                     0.089023
     49 H                     0.126152
     50 H                     0.238898
     51 H                     0.262304
     52 H                     0.127281
     53 H                     0.099635
     54 H                     0.249557
  ----------------------------------------
  Sum of atomic charges =    -2.000000

                    Cartesian Multipole Moments
 -----------------------------------------------------------------
    Charge (ESU x 10^10)
                -9.6064
    Dipole Moment (Debye)
         X      41.8995      Y       4.7429      Z      10.3072
       Tot      43.4085
    Quadrupole Moments (Debye-Ang)
        XX    -400.6160     XY       0.6261     YY    -194.5888
        XZ     -40.5869     YZ      -4.6441     ZZ    -226.9944

 Total job time:  3615.86s(wall), 24805.20s(cpu)
        *  Thank you very much for using Q-Chem.  Have a nice day.  *
