 Gaussian 16, Revision A.03,
 Gaussian 16:  ES64L-G16RevA.03 25-Dec-2016

 --------------------------------------
 #P UB3LYP/6-311++G(d,p) nosym opt freq
 --------------------------------------

 -------
 Radical
 -------
 Symbolic Z-matrix:
 Charge = -1 Multiplicity = 2

 SCF Done:  E(UB3LYP) =  -766.927755488     A.U. after   20 cycles
 SCF Done:  E(UB3LYP) =  -766.927829427     A.U. after   14 cycles
 SCF Done:  E(UB3LYP) =  -766.927607741     A.U. after   16 cycles
 SCF Done:  E(UB3LYP) =  -766.927823317     A.U. after   13 cycles
 SCF Done:  E(UB3LYP) =  -766.927830805     A.U. after    6 cycles
 SCF Done:  E(UB3LYP) =  -766.927828312     A.U. after   11 cycles
 SCF Done:  E(UB3LYP) =  -766.927826805     A.U. after   13 cycles
 SCF Done:  E(UB3LYP) =  -766.927832464     A.U. after   12 cycles
 SCF Done:  E(UB3LYP) =  -766.927839787     A.U. after   12 cycles
 SCF Done:  E(UB3LYP) =  -766.927888820     A.U. after   15 cycles
 SCF Done:  E(UB3LYP) =  -766.928320377     A.U. after   13 cycles
 SCF Done:  E(UB3LYP) =  -766.928332113     A.U. after   13 cycles
 SCF Done:  E(UB3LYP) =  -766.928337707     A.U. after   12 cycles
 SCF Done:  E(UB3LYP) =  -766.928346344     A.U. after   12 cycles
 SCF Done:  E(UB3LYP) =  -766.928350496     A.U. after   12 cycles
 SCF Done:  E(UB3LYP) =  -766.928357504     A.U. after   11 cycles
 SCF Done:  E(UB3LYP) =  -766.928364677     A.U. after   12 cycles
 SCF Done:  E(UB3LYP) =  -766.928365291     A.U. after   10 cycles
 SCF Done:  E(UB3LYP) =  -766.928366303     A.U. after   11 cycles
 Optimization completed.
    -- Stationary point found.
 Normal termination of Gaussian 16 at Fri Jan 19 04:42:32 2024.

 ----------------------------------------------------------------------
 #P Geom=AllCheck Guess=TCheck SCRF=Check GenChk UB3LYP/6-311++G(d,p) F
 req
 ----------------------------------------------------------------------

 Structure from the checkpoint file:  "051-rad.chk"
 -------
 Radical
 -------
 Charge = -1 Multiplicity = 2

                          Input orientation:
 ---------------------------------------------------------------------
 Center     Atomic      Atomic             Coordinates (Angstroms)
 Number     Number       Type             X           Y           Z
 ---------------------------------------------------------------------
      1          6           0        3.430493    5.971655    0.649661
      2          6           0        2.138567    5.435848    1.073214
      3          6           0        1.991831    4.094749    1.357103
      4          6           0        3.103187    3.177069    1.226801
      5          6           0        4.387723    3.698602    0.814513
      6          6           0        4.545756    5.038367    0.536757
      7          8           0        3.576641    7.201079    0.392638
      8          8           0        2.957820    1.923453    1.472361
      9          6           0        5.876395    5.597954    0.100882
     10          6           0        5.537514    2.728056    0.696824
     11          6           0        1.001491    6.424844    1.186461
     12          6           0        0.684329    3.495171    1.826286
     13          6           0       -0.006959    2.557493    0.783834
     14          6           0       -0.234715    1.129560    1.272294
     15          8           0       -1.329210    0.598663    1.256084
     16          8           0        0.845261    0.494498    1.711843
     17          1           0        6.652271    5.431278    0.858488
     18          1           0        5.781250    6.669676   -0.072328
     19          1           0        6.231873    5.122473   -0.821760
     20          1           0        5.203852    1.726764    0.966924
     21          1           0        6.369969    3.010259    1.352847
     22          1           0        5.937288    2.700142   -0.324270
     23          1           0        1.328279    7.386314    0.790692
     24          1           0        0.694955    6.576766    2.228951
     25          1           0        0.115228    6.096848    0.633364
     26          1           0       -0.014079    4.286287    2.097601
     27          1           0        0.875821    2.927347    2.742133
     28          1           0        0.612711    2.500317   -0.116708
     29          1           0       -0.978690    2.952368    0.485905
     30          1           0        1.677313    1.082432    1.636722
 ---------------------------------------------------------------------

 SCF Done:  E(UB3LYP) =  -766.928366303     A.U. after    1 cycles

 Alpha  occ. eigenvalues --  -19.01781 -18.98011 -18.96792 -18.95776 -10.17553
 Alpha  occ. eigenvalues --  -10.10623 -10.09986 -10.07102 -10.06777 -10.05831
 Alpha  occ. eigenvalues --  -10.05519 -10.05514 -10.05441 -10.05070 -10.05054
 Alpha  occ. eigenvalues --  -10.05022  -0.96666  -0.89187  -0.88061  -0.87830
 Alpha  occ. eigenvalues --   -0.72316  -0.69316  -0.65633  -0.61662  -0.60215
 Alpha  occ. eigenvalues --   -0.57194  -0.52855  -0.52014  -0.47469  -0.44011
 Alpha  occ. eigenvalues --   -0.43127  -0.40356  -0.38882  -0.35295  -0.33794
 Alpha  occ. eigenvalues --   -0.33151  -0.32933  -0.31726  -0.30891  -0.30508
 Alpha  occ. eigenvalues --   -0.29371  -0.28959  -0.28320  -0.27952  -0.27815
 Alpha  occ. eigenvalues --   -0.27351  -0.26120  -0.25825  -0.25334  -0.24643
 Alpha  occ. eigenvalues --   -0.24065  -0.22683  -0.21817  -0.18883  -0.15893
 Alpha  occ. eigenvalues --   -0.15008  -0.13881  -0.12197  -0.11903  -0.04558
 Alpha virt. eigenvalues --    0.07893   0.08537   0.10027   0.10361   0.10830
 Alpha virt. eigenvalues --    0.11265   0.11483   0.11768   0.12577   0.13063
 Alpha virt. eigenvalues --    0.13380   0.14075   0.14492   0.14592   0.14845

  Beta  occ. eigenvalues --  -19.01782 -18.98009 -18.96220 -18.95003 -10.17552
  Beta  occ. eigenvalues --  -10.10377 -10.09892 -10.07097 -10.06782 -10.05653
  Beta  occ. eigenvalues --  -10.05474 -10.05430 -10.05333 -10.05074 -10.05069
  Beta  occ. eigenvalues --  -10.05034  -0.96659  -0.88794  -0.87258  -0.86643
  Beta  occ. eigenvalues --   -0.71825  -0.69168  -0.65464  -0.61378  -0.60000
  Beta  occ. eigenvalues --   -0.57003  -0.52304  -0.51746  -0.47397  -0.43687
  Beta  occ. eigenvalues --   -0.42732  -0.40277  -0.38768  -0.35208  -0.33502
  Beta  occ. eigenvalues --   -0.33000  -0.32450  -0.31634  -0.30659  -0.30133
  Beta  occ. eigenvalues --   -0.28993  -0.28773  -0.28057  -0.27854  -0.27565
  Beta  occ. eigenvalues --   -0.27284  -0.25992  -0.25321  -0.24294  -0.23851
  Beta  occ. eigenvalues --   -0.22439  -0.22052  -0.21660  -0.18827  -0.15219
  Beta  occ. eigenvalues --   -0.13395  -0.12610  -0.11480  -0.11215
  Beta virt. eigenvalues --    0.02648   0.07905   0.08550   0.10176   0.10450
  Beta virt. eigenvalues --    0.11053   0.11344   0.11718   0.12172   0.12719
  Beta virt. eigenvalues --    0.13080   0.13447   0.14095   0.14514   0.14795

 Mulliken charges and spin densities:
               1          2
     1  C   -1.712064   0.020280
     2  C    0.891794   0.139799
     3  C    1.089158   0.033517
     4  C   -1.271977   0.144866
     5  C    0.687481   0.017612
     6  C    1.001830   0.140559
     7  O   -0.371321   0.283027
     8  O   -0.473961   0.208345
     9  C   -0.518549  -0.002250
    10  C   -0.541952   0.000988
    11  C   -0.674731  -0.005772
    12  C   -0.477219  -0.002982
    13  C   -0.417316  -0.000901
    14  C   -0.105860   0.001656
    15  O   -0.334053   0.000739
    16  O   -0.336172   0.002296
    17  H    0.123701   0.004943
    18  H    0.196979  -0.002155
    19  H    0.124784   0.004871
    20  H    0.191749  -0.000840
    21  H    0.118513   0.001764
    22  H    0.119390   0.001689
    23  H    0.191214  -0.002297
    24  H    0.145077   0.006771
    25  H    0.137730   0.005348
    26  H    0.157432   0.000132
    27  H    0.187920   0.002661
    28  H    0.188376   0.001402
    29  H    0.178811  -0.000150
    30  H    0.503236  -0.005919
 Sum of Mulliken charges =  -1.00000   1.00000

 Dipole moment (field-independent basis, Debye):
    X=             -9.4699    Y=            -15.6082    Z=             -5.2389  Tot=             18.9932
 Quadrupole moment (field-independent basis, Debye-Ang):
   XX=           -146.7206   YY=           -206.9471   ZZ=           -105.9648
   XY=            -59.7290   XZ=             -6.6070   YZ=             -7.0104

  Exact polarizability: 202.395  18.566 215.479 -16.727 -17.136 111.004
 Approx polarizability: 264.204  16.424 348.618 -17.113 -34.281 176.371

                      1                      2                      3
                      A                      A                      A
 Frequencies --     45.5386                63.3068                65.6082
 Red. masses --      4.8734                 4.3399                 1.1006
 Frc consts  --      0.0060                 0.0102                 0.0028
 IR Inten    --      3.3892                 0.7947                 0.5386

                      4                      5                      6
                      A                      A                      A
 Frequencies --     92.2059               104.4200               112.8708
 Red. masses --      1.9652                 2.9673                 1.3727
 Frc consts  --      0.0098                 0.0191                 0.0103
 IR Inten    --      0.9633                 9.4779                 1.4688

                      7                      8                      9
                      A                      A                      A
 Frequencies --    113.6791               122.8136               138.0871
 Red. masses --      1.3305                 3.9017                 3.5852
 Frc consts  --      0.0101                 0.0347                 0.0403
 IR Inten    --      1.7236                 4.8701                 0.4075

                     10                     11                     12
                      A                      A                      A
 Frequencies --    185.8071               209.0661               230.8584
 Red. masses --      4.9497                 6.1136                 4.2040
 Frc consts  --      0.1007                 0.1574                 0.1320
 IR Inten    --      2.7887                16.6102                 1.5187

                     13                     14                     15
                      A                      A                      A
 Frequencies --    304.6338               313.1591               345.4528
 Red. masses --      2.6856                 2.5389                 4.5129
 Frc consts  --      0.1468                 0.1467                 0.3173
 IR Inten    --      3.7637                 0.6481                 1.0393

                     16                     17                     18
                      A                      A                      A
 Frequencies --    353.0910               375.9255               406.3936
 Red. masses --      2.4066                 4.5388                 4.6515
 Frc consts  --      0.1768                 0.3779                 0.4526
 IR Inten    --      5.0476                 3.1503                 1.2534

                     19                     20                     21
                      A                      A                      A
 Frequencies --    437.5267               450.3053               459.8964
 Red. masses --      8.2773                 4.8282                 2.6967
 Frc consts  --      0.9336                 0.5768                 0.3360
 IR Inten    --     35.2796                 6.8475                 7.2274

                     22                     23                     24
                      A                      A                      A
 Frequencies --    479.3309               554.6781               579.8555
 Red. masses --      7.0356                 4.8747                 5.0010
 Frc consts  --      0.9524                 0.8836                 0.9907
 IR Inten    --      9.4176                 0.7649                14.4754

                     25                     26                     27
                      A                      A                      A
 Frequencies --    608.1254               627.6500               673.4382
 Red. masses --      5.0434                 4.0891                 3.2200
 Frc consts  --      1.0989                 0.9491                 0.8604
 IR Inten    --      7.6366                41.0917                 4.9236

                     28                     29                     30
                      A                      A                      A
 Frequencies --    706.1919               724.5314               779.3517
 Red. masses --      4.1710                 5.6509                 5.9901
 Frc consts  --      1.2256                 1.7478                 2.1436
 IR Inten    --      7.4662                 5.6491                 0.7562

                     31                     32                     33
                      A                      A                      A
 Frequencies --    818.6657               869.4016               878.5022
 Red. masses --      2.9160                 3.1097                 2.8861
 Frc consts  --      1.1515                 1.3849                 1.3123
 IR Inten    --     13.0402                 6.7109                 2.6868

                     34                     35                     36
                      A                      A                      A
 Frequencies --    948.3089               977.1004              1000.9393
 Red. masses --      2.7573                 1.7343                 3.6731
 Frc consts  --      1.4609                 0.9755                 2.1682
 IR Inten    --      5.6650                 4.4207                 3.0912

                     37                     38                     39
                      A                      A                      A
 Frequencies --   1014.6849              1026.9640              1032.2592
 Red. masses --      1.9578                 1.4079                 2.8251
 Frc consts  --      1.1876                 0.8748                 1.7736
 IR Inten    --     22.9425                 0.1515                 3.6455

                     40                     41                     42
                      A                      A                      A
 Frequencies --   1045.1780              1058.5381              1077.9993
 Red. masses --      1.5148                 1.5253                 1.6471
 Frc consts  --      0.9749                 1.0070                 1.1278
 IR Inten    --      1.2859                 0.2132                25.1672

                     43                     44                     45
                      A                      A                      A
 Frequencies --   1083.2970              1117.7875              1159.4503
 Red. masses --      1.2690                 2.5362                 3.3284
 Frc consts  --      0.8774                 1.8671                 2.6362
 IR Inten    --     49.6888                44.5563                 1.6037

                     46                     47                     48
                      A                      A                      A
 Frequencies --   1189.5224              1230.7073              1252.4782
 Red. masses --      1.6074                 2.2784                 1.7760
 Frc consts  --      1.3400                 2.0332                 1.6415
 IR Inten    --     70.0421                 8.8436                 4.1443

                     49                     50                     51
                      A                      A                      A
 Frequencies --   1299.5679              1314.6782              1327.4173
 Red. masses --      3.3071                 2.5937                 1.4881
 Frc consts  --      3.2907                 2.6413                 1.5449
 IR Inten    --     52.6814                10.4765                16.5123

                     52                     53                     54
                      A                      A                      A
 Frequencies --   1351.8990              1378.1351              1385.0642
 Red. masses --      1.3827                 1.3773                 1.3292
 Frc consts  --      1.4889                 1.5412                 1.5024
 IR Inten    --      6.5820                41.7945                34.2843

                     55                     56                     57
                      A                      A                      A
 Frequencies --   1391.1974              1434.5928              1465.2844
 Red. masses --      1.2813                 2.3957                 2.8162
 Frc consts  --      1.4611                 2.9050                 3.5625
 IR Inten    --     11.3653                 0.4095               337.6564

                     58                     59                     60
                      A                      A                      A
 Frequencies --   1476.5236              1477.9037              1483.0152
 Red. masses --      1.1176                 1.1264                 1.2608
 Frc consts  --      1.4356                 1.4496                 1.6337
 IR Inten    --     29.8520                 4.4352               129.3120

                     61                     62                     63
                      A                      A                      A
 Frequencies --   1491.8702              1492.8481              1500.0200
 Red. masses --      1.0499                 1.4853                 1.1525
 Frc consts  --      1.3767                 1.9503                 1.5279
 IR Inten    --      0.1057                 7.1734                55.8605

                     64                     65                     66
                      A                      A                      A
 Frequencies --   1506.4027              1506.6513              1508.3388
 Red. masses --      1.4860                 1.8136                 1.2310
 Frc consts  --      1.9868                 2.4256                 1.6501
 IR Inten    --     84.9804               127.0247                20.2577

                     67                     68                     69
                      A                      A                      A
 Frequencies --   1526.1139              1538.7456              1630.7177
 Red. masses --      1.4237                 3.7343                 8.3015
 Frc consts  --      1.9536                 5.2094                13.0066
 IR Inten    --    159.1494                80.5301                31.4125

                     70                     71                     72
                      A                      A                      A
 Frequencies --   1771.5760              2729.1200              2993.6860
 Red. masses --      6.3261                 1.0909                 1.0413
 Frc consts  --     11.6978                 4.7870                 5.4987
 IR Inten    --    611.1700              2785.0896                70.5105

                     73                     74                     75
                      A                      A                      A
 Frequencies --   2996.8584              2999.1114              3026.2437
 Red. masses --      1.0414                 1.0448                 1.0989
 Frc consts  --      5.5107                 5.5368                 5.9296
 IR Inten    --    128.0352                31.2610                67.0437

                     76                     77                     78
                      A                      A                      A
 Frequencies --   3031.4675              3033.8354              3042.2244
 Red. masses --      1.0989                 1.0691                 1.0672
 Frc consts  --      5.9502                 5.7976                 5.8195
 IR Inten    --     11.9067                14.6450                38.8971

                     79                     80                     81
                      A                      A                      A
 Frequencies --   3043.0504              3090.5045              3108.8291
 Red. masses --      1.0920                 1.0965                 1.0948
 Frc consts  --      5.9581                 6.1705                 6.2344
 IR Inten    --     24.0534                 3.9146                42.6861

                     82                     83                     84
                      A                      A                      A
 Frequencies --   3115.5914              3116.8547              3121.4191
 Red. masses --      1.0949                 1.0943                 1.0943
 Frc consts  --      6.2622                 6.2638                 6.2818
 IR Inten    --      2.8522                 9.6856                 7.3754

 - Thermochemistry -
 -------------------
 Temperature   298.150 Kelvin.  Pressure   1.00000 Atm.
 Atom     1 has atomic number  6 and mass  12.00000

 Molecular mass:   222.08921 amu.
 Principal axes and moments of inertia in atomic units:
                           1         2         3
     Eigenvalues --  1934.772235488.510337192.97276
           X            0.70689  -0.69831   0.11257
           Y            0.69381   0.71551   0.08169
           Z           -0.13759   0.02036   0.99028
 This molecule is an asymmetric top.
 Rotational symmetry number  1.
 Warning -- assumption of classical behavior for rotation
           may cause significant error
 Rotational temperatures (Kelvin)      0.04477     0.01578     0.01204
 Rotational constants (GHZ):           0.93279     0.32882     0.25090
 Zero-point vibrational energy     622972.9 (Joules/Mol)
                                  148.89411 (Kcal/Mol)
 Warning -- explicit consideration of  25 degrees of freedom as
           vibrations may cause significant error
 Vibrational temperatures:     65.52    91.08    94.40   132.66   150.24
          (Kelvin)            162.40   163.56   176.70   198.68   267.34
                              300.80   332.15   438.30   450.57   497.03
                              508.02   540.87   584.71   629.50   647.89
                              661.69   689.65   798.06   834.28   874.96
                              903.05   968.93  1016.05  1042.44  1121.31
                             1177.88  1250.88  1263.97  1364.41  1405.83
                             1440.13  1459.91  1477.57  1485.19  1503.78
                             1523.00  1551.00  1558.62  1608.25  1668.19
                             1711.46  1770.71  1802.04  1869.79  1891.53
                             1909.86  1945.08  1982.83  1992.80  2001.62
                             2064.06  2108.22  2124.39  2126.37  2133.73
                             2146.47  2147.88  2158.19  2167.38  2167.74
                             2170.16  2195.74  2213.91  2346.24  2548.90
                             3926.60  4307.25  4311.81  4315.05  4354.09
                             4361.61  4365.01  4377.08  4378.27  4446.55
                             4472.91  4482.64  4484.46  4491.03

 Zero-point correction=                           0.237278 (Hartree/Particle)
 Thermal correction to Energy=                    0.253506
 Thermal correction to Enthalpy=                  0.254450
 Thermal correction to Gibbs Free Energy=         0.192504
 Sum of electronic and zero-point Energies=           -766.691088
 Sum of electronic and thermal Energies=              -766.674860
 Sum of electronic and thermal Enthalpies=            -766.673916
 Sum of electronic and thermal Free Energies=         -766.735862

                     E (Thermal)             CV                S
                      KCal/Mol        Cal/Mol-Kelvin    Cal/Mol-Kelvin
 Total                  159.077             59.410            130.376
 Electronic               0.000              0.000              1.377
 Translational            0.889              2.981             42.096
 Rotational               0.889              2.981             32.702
 Vibrational            157.300             53.449             54.201
 Vibration     1          0.595              1.979              5.002
 Vibration     2          0.597              1.972              4.351
 Vibration     3          0.597              1.971              4.281
 Vibration     4          0.602              1.955              3.613
 Vibration     5          0.605              1.946              3.370
 Vibration     6          0.607              1.939              3.219
 Vibration     7          0.607              1.938              3.205
 Vibration     8          0.610              1.930              3.056
 Vibration     9          0.614              1.915              2.830
 Vibration    10          0.632              1.859              2.269
 Vibration    11          0.642              1.827              2.052
 Vibration    12          0.653              1.794              1.872
 Vibration    13          0.696              1.665              1.391
 Vibration    14          0.701              1.649              1.346
 Vibration    15          0.724              1.585              1.187
 Vibration    16          0.729              1.569              1.152
 Vibration    17          0.747              1.521              1.056
 Vibration    18          0.771              1.456              0.939
 Vibration    19          0.798              1.388              0.834
 Vibration    20          0.809              1.360              0.795
 Vibration    21          0.818              1.339              0.766
 Vibration    22          0.836              1.296              0.712
 Vibration    23          0.910              1.129              0.535
 Vibration    24          0.936              1.075              0.486
 Vibration    25          0.967              1.015              0.436

                           ! Non-Optimized Parameters !
 Normal termination of Gaussian 16 at Fri Jan 19 05:11:03 2024.
