 Q-Chem 5.4, Q-Chem, Inc., Pleasanton, CA (2021)
 Q-Chem 5.4.0 for Intel X86 EM64T Linux

User input:
--------------------------------------------------------------
$molecule
-1 2
C                  3.4304930000      5.9716550000      0.6496610000
C                  2.1385670000      5.4358480000      1.0732140000
C                  1.9918310000      4.0947490000      1.3571030000
C                  3.1031870000      3.1770690000      1.2268010000
C                  4.3877230000      3.6986020000      0.8145130000
C                  4.5457560000      5.0383670000      0.5367570000
O                  3.5766410000      7.2010790000      0.3926380000
O                  2.9578200000      1.9234530000      1.4723610000
C                  5.8763950000      5.5979540000      0.1008820000
C                  5.5375140000      2.7280560000      0.6968240000
C                  1.0014910000      6.4248440000      1.1864610000
C                  0.6843290000      3.4951710000      1.8262860000
C                 -0.0069590000      2.5574930000      0.7838340000
C                 -0.2347150000      1.1295600000      1.2722940000
O                 -1.3292100000      0.5986630000      1.2560840000
O                  0.8452610000      0.4944980000      1.7118430000
H                  6.6522710000      5.4312780000      0.8584880000
H                  5.7812500000      6.6696760000     -0.0723280000
H                  6.2318730000      5.1224730000     -0.8217600000
H                  5.2038520000      1.7267640000      0.9669240000
H                  6.3699690000      3.0102590000      1.3528470000
H                  5.9372880000      2.7001420000     -0.3242700000
H                  1.3282790000      7.3863140000      0.7906920000
H                  0.6949550000      6.5767660000      2.2289510000
H                  0.1152280000      6.0968480000      0.6333640000
H                 -0.0140790000      4.2862870000      2.0976010000
H                  0.8758210000      2.9273470000      2.7421330000
H                  0.6127110000      2.5003170000     -0.1167080000
H                 -0.9786900000      2.9523680000      0.4859050000
H                  1.6773130000      1.0824320000      1.6367220000
$end

$rem
BASIS  =  6-311++G(d,p)
GUI  =  2
JOB_TYPE  =  SP
METHOD  =  B3LYP
SCF_CONVERGENCE  = 8
SOLVENT_METHOD = sm12
$end

$smx
solvent dimethylformamide
charges CM5
$end

--------------------------------------------------------------

             Standard Nuclear Orientation (Angstroms)
    I     Atom           X                Y                Z
 ----------------------------------------------------------------
    1      C       3.4304930000     5.9716550000     0.6496610000
    2      C       2.1385670000     5.4358480000     1.0732140000
    3      C       1.9918310000     4.0947490000     1.3571030000
    4      C       3.1031870000     3.1770690000     1.2268010000
    5      C       4.3877230000     3.6986020000     0.8145130000
    6      C       4.5457560000     5.0383670000     0.5367570000
    7      O       3.5766410000     7.2010790000     0.3926380000
    8      O       2.9578200000     1.9234530000     1.4723610000
    9      C       5.8763950000     5.5979540000     0.1008820000
   10      C       5.5375140000     2.7280560000     0.6968240000
   11      C       1.0014910000     6.4248440000     1.1864610000
   12      C       0.6843290000     3.4951710000     1.8262860000
   13      C      -0.0069590000     2.5574930000     0.7838340000
   14      C      -0.2347150000     1.1295600000     1.2722940000
   15      O      -1.3292100000     0.5986630000     1.2560840000
   16      O       0.8452610000     0.4944980000     1.7118430000
   17      H       6.6522710000     5.4312780000     0.8584880000
   18      H       5.7812500000     6.6696760000    -0.0723280000
   19      H       6.2318730000     5.1224730000    -0.8217600000
   20      H       5.2038520000     1.7267640000     0.9669240000
   21      H       6.3699690000     3.0102590000     1.3528470000
   22      H       5.9372880000     2.7001420000    -0.3242700000
   23      H       1.3282790000     7.3863140000     0.7906920000
   24      H       0.6949550000     6.5767660000     2.2289510000
   25      H       0.1152280000     6.0968480000     0.6333640000
   26      H      -0.0140790000     4.2862870000     2.0976010000
   27      H       0.8758210000     2.9273470000     2.7421330000
   28      H       0.6127110000     2.5003170000    -0.1167080000
   29      H      -0.9786900000     2.9523680000     0.4859050000
   30      H       1.6773130000     1.0824320000     1.6367220000
 ----------------------------------------------------------------

   18    -766.9271820805      6.04e-09  Convergence criterion met
 Total energy in the final basis set =     -767.0045608605

                    Orbital Energies (a.u.)
 --------------------------------------------------------------

 Alpha MOs
 -- Occupied --
-19.1358 -19.0977 -19.0871 -19.0775 -10.2924 -10.2246 -10.2188 -10.1840
-10.1811 -10.1755 -10.1724 -10.1722 -10.1714 -10.1616 -10.1611 -10.1609
 -1.0843  -1.0103  -1.0000  -0.9970  -0.8396  -0.8083  -0.7708  -0.7301
 -0.7157  -0.6864  -0.6435  -0.6344  -0.5924  -0.5549  -0.5484  -0.5188
 -0.5048  -0.4672  -0.4545  -0.4480  -0.4434  -0.4319  -0.4215  -0.4187
 -0.4072  -0.4020  -0.3960  -0.3924  -0.3910  -0.3875  -0.3744  -0.3734
 -0.3678  -0.3638  -0.3556  -0.3432  -0.3324  -0.3073  -0.2771  -0.2677
 -0.2577  -0.2388  -0.2383  -0.1649

 Beta MOs
 -- Occupied --
-19.1358 -19.0976 -19.0814 -19.0699 -10.2924 -10.2221 -10.2178 -10.1840
-10.1811 -10.1738 -10.1720 -10.1712 -10.1704 -10.1617 -10.1612 -10.1609
 -1.0842  -1.0060  -0.9913  -0.9862  -0.8346  -0.8068  -0.7691  -0.7269
 -0.7136  -0.6844  -0.6376  -0.6326  -0.5916  -0.5516  -0.5443  -0.5180
 -0.5037  -0.4663  -0.4517  -0.4464  -0.4374  -0.4305  -0.4180  -0.4154
 -0.4036  -0.3979  -0.3941  -0.3911  -0.3895  -0.3870  -0.3727  -0.3676
 -0.3592  -0.3536  -0.3409  -0.3393  -0.3309  -0.3067  -0.2697  -0.2528
 -0.2448  -0.2319  -0.2316

          Ground-State Mulliken Net Atomic Charges

     Atom                 Charge (a.u.)    Spin (a.u.)
  --------------------------------------------------------
      1 C                    -2.498411       0.024621
      2 C                     0.427036       0.135030
      3 C                     0.496243       0.033958
      4 C                    -1.786433       0.143752
      5 C                     0.162354       0.019650
      6 C                     0.501743       0.134321
      7 O                    -0.343367       0.281759
      8 O                    -0.453875       0.210197
      9 C                     0.129164      -0.000469
     10 C                     0.139087       0.001746
     11 C                    -0.107848      -0.004106
     12 C                     0.370341      -0.002029
     13 C                    -0.140808      -0.000648
     14 C                    -0.228285       0.001656
     15 O                    -0.349311       0.000751
     16 O                    -0.386199       0.002267
     17 H                     0.208844       0.004741
     18 H                     0.161220      -0.002033
     19 H                     0.210246       0.004665
     20 H                     0.171675      -0.000754
     21 H                     0.195075       0.001806
     22 H                     0.190257       0.001765
     23 H                     0.157726      -0.002175
     24 H                     0.217814       0.006476
     25 H                     0.218351       0.005012
     26 H                     0.317291       0.000098
     27 H                     0.117070       0.002696
     28 H                     0.151058       0.001369
     29 H                     0.250018      -0.000181
     30 H                     0.501925      -0.005938
  --------------------------------------------------------
  Sum of atomic charges =    -1.000000

                    Cartesian Multipole Moments
 -----------------------------------------------------------------
    Charge (ESU x 10^10)
                -4.8032
    Dipole Moment (Debye)
         X      -9.4475      Y     -15.6073      Z      -5.2693
       Tot      18.9897
    Quadrupole Moments (Debye-Ang)
        XX    -144.0073     XY     -60.5085     YY    -207.6839
        XZ      -7.0202     YZ      -6.7770     ZZ    -105.9336

 Total job time:  836.30s(wall), 6269.60s(cpu)
        *  Thank you very much for using Q-Chem.  Have a nice day.  *
