 Gaussian 16, Revision A.03,
 Gaussian 16:  ES64L-G16RevA.03 25-Dec-2016

 ----------------------------------------------------------------------
 #P UB3LYP/6-311++G(d,p) nosym opt freq SCRF=(PCM,Solvent=n,n-DiMethylF
 ormamide)
 ----------------------------------------------------------------------

 -------
 Reduced
 -------
 Symbolic Z-matrix:
 Charge = -2 Multiplicity = 1

 SCF Done:  E(UB3LYP) =  -3302.06305616     A.U. after   18 cycles
 SCF Done:  E(UB3LYP) =  -3302.06400101     A.U. after   13 cycles
 SCF Done:  E(UB3LYP) =  -3302.06412970     A.U. after   12 cycles
 SCF Done:  E(UB3LYP) =  -3302.06413453     A.U. after   11 cycles
 SCF Done:  E(UB3LYP) =  -3302.06413481     A.U. after   10 cycles
 Optimization completed.
    -- Stationary point found.
 Normal termination of Gaussian 16 at Sat Feb 10 17:47:50 2024.

 ----------------------------------------------------------------------
 #P Geom=AllCheck Guess=TCheck SCRF=Check GenChk UB3LYP/6-311++G(d,p) F
 req
 ----------------------------------------------------------------------

 Structure from the checkpoint file:  "120-an.chk"
 -------
 Reduced
 -------
 Charge = -2 Multiplicity = 1

                          Input orientation:
 ---------------------------------------------------------------------
 Center     Atomic      Atomic             Coordinates (Angstroms)
 Number     Number       Type             X           Y           Z
 ---------------------------------------------------------------------
      1          6           0       -3.361496    3.683494    0.034635
      2          6           0       -4.568310    3.023545    0.055637
      3          6           0       -4.592637    1.600502    0.081732
      4          6           0       -2.114066    2.994697    0.037990
      5          6           0       -2.138408    1.542997    0.064689
      6          6           0       -3.409424    0.898801    0.085555
      7          6           0       -0.886228    3.744472    0.015438
      8          6           0        0.308437    2.946634    0.019746
      9          6           0        0.287415    1.497401    0.045452
     10          6           0       -0.937729    0.748877    0.069316
     11          6           0        1.577885    3.589089   -0.000830
     12          6           0        2.739820    2.867259    0.001398
     13          6           0        2.766981    1.438187    0.024199
     14          6           0        1.536382    0.814675    0.045713
     15          8           0       -0.857674    5.046225   -0.008089
     16          8           0       -0.961736   -0.554048    0.092181
     17         35           0        4.424575    3.851665   -0.026614
     18          6           0        4.048835    0.645371    0.024315
     19          1           0       -3.327743    4.767187    0.014162
     20          1           0       -5.499424    3.582153    0.052348
     21          1           0       -5.542462    1.074502    0.097935
     22          1           0       -3.413161   -0.185490    0.104630
     23          1           0        1.589854    4.671478   -0.018124
     24          1           0        1.499575   -0.269537    0.064358
     25          1           0        4.672717    0.877712    0.893921
     26          1           0        4.656835    0.852485   -0.862730
     27          1           0        3.830226   -0.424081    0.041597
 ---------------------------------------------------------------------

 SCF Done:  E(UB3LYP) =  -3302.06413481     A.U. after    1 cycles

 Alpha  occ. eigenvalues -- -482.81793 -62.47083 -56.29091 -56.28744 -56.28732
 Alpha  occ. eigenvalues --  -19.01964 -19.01826 -10.20636 -10.17515 -10.17377
 Alpha  occ. eigenvalues --  -10.17036 -10.15813 -10.15783 -10.15057 -10.14978
 Alpha  occ. eigenvalues --  -10.14935 -10.14731 -10.14704 -10.14197 -10.13943
 Alpha  occ. eigenvalues --  -10.13903 -10.13862  -8.68048  -6.51099  -6.49947
 Alpha  occ. eigenvalues --   -6.49917  -2.62207  -2.61880  -2.61860  -2.60944
 Alpha  occ. eigenvalues --   -2.60943  -0.93240  -0.92775  -0.84925  -0.82477
 Alpha  occ. eigenvalues --   -0.78639  -0.76420  -0.73559  -0.72383  -0.70738
 Alpha  occ. eigenvalues --   -0.67687  -0.63445  -0.60565  -0.58068  -0.56668
 Alpha  occ. eigenvalues --   -0.52809  -0.49977  -0.49093  -0.45385  -0.43644
 Alpha  occ. eigenvalues --   -0.42939  -0.41908  -0.41424  -0.40572  -0.39897
 Alpha  occ. eigenvalues --   -0.38887  -0.38045  -0.37007  -0.36713  -0.36146
 Alpha  occ. eigenvalues --   -0.35142  -0.34631  -0.32377  -0.32375  -0.31786
 Alpha  occ. eigenvalues --   -0.31608  -0.29979  -0.28351  -0.28348  -0.23615
 Alpha  occ. eigenvalues --   -0.22559  -0.22231  -0.21425  -0.20169  -0.19570
 Alpha  occ. eigenvalues --   -0.10957
 Alpha virt. eigenvalues --   -0.03113  -0.00804  -0.00053  -0.00041   0.00710
 Alpha virt. eigenvalues --    0.01491   0.01510   0.02298   0.02754   0.03966
 Alpha virt. eigenvalues --    0.04222   0.04357   0.04967   0.05287   0.05528

  Beta  occ. eigenvalues -- -482.81793 -62.47083 -56.29091 -56.28744 -56.28732
  Beta  occ. eigenvalues --  -19.01964 -19.01826 -10.20636 -10.17515 -10.17377
  Beta  occ. eigenvalues --  -10.17036 -10.15813 -10.15783 -10.15057 -10.14978
  Beta  occ. eigenvalues --  -10.14935 -10.14731 -10.14704 -10.14197 -10.13943
  Beta  occ. eigenvalues --  -10.13903 -10.13862  -8.68048  -6.51099  -6.49947
  Beta  occ. eigenvalues --   -6.49917  -2.62207  -2.61880  -2.61860  -2.60944
  Beta  occ. eigenvalues --   -2.60943  -0.93240  -0.92775  -0.84925  -0.82477
  Beta  occ. eigenvalues --   -0.78639  -0.76420  -0.73559  -0.72383  -0.70738
  Beta  occ. eigenvalues --   -0.67687  -0.63445  -0.60565  -0.58068  -0.56668
  Beta  occ. eigenvalues --   -0.52809  -0.49977  -0.49093  -0.45385  -0.43644
  Beta  occ. eigenvalues --   -0.42939  -0.41908  -0.41424  -0.40572  -0.39897
  Beta  occ. eigenvalues --   -0.38887  -0.38045  -0.37007  -0.36713  -0.36146
  Beta  occ. eigenvalues --   -0.35142  -0.34631  -0.32377  -0.32375  -0.31786
  Beta  occ. eigenvalues --   -0.31608  -0.29979  -0.28351  -0.28348  -0.23615
  Beta  occ. eigenvalues --   -0.22559  -0.22231  -0.21425  -0.20169  -0.19570
  Beta  occ. eigenvalues --   -0.10957
  Beta virt. eigenvalues --   -0.03113  -0.00804  -0.00053  -0.00041   0.00710
  Beta virt. eigenvalues --    0.01491   0.01510   0.02298   0.02754   0.03966
  Beta virt. eigenvalues --    0.04222   0.04357   0.04967   0.05287   0.05528

 Mulliken charges and spin densities:
               1          2
     1  C    0.013336   0.000000
     2  C   -0.530851  -0.000000
     3  C   -0.515567  -0.000000
     4  C    0.177532  -0.000000
     5  C    0.326007  -0.000000
     6  C   -0.074887   0.000000
     7  C   -0.775042   0.000000
     8  C    0.303745   0.000000
     9  C    0.172539  -0.000000
    10  C   -0.466396  -0.000000
    11  C   -0.128471   0.000000
    12  C   -0.407931   0.000000
    13  C    0.502679  -0.000000
    14  C   -0.196429  -0.000000
    15  O   -0.665013   0.000000
    16  O   -0.672055   0.000000
    17  Br  -0.266238   0.000000
    18  C   -0.207743  -0.000000
    19  H    0.147292  -0.000000
    20  H    0.157620  -0.000000
    21  H    0.159365  -0.000000
    22  H    0.143248   0.000000
    23  H    0.200834  -0.000000
    24  H    0.116351  -0.000000
    25  H    0.162547   0.000000
    26  H    0.162363   0.000000
    27  H    0.161164   0.000000
 Sum of Mulliken charges =  -2.00000   0.00000

 Dipole moment (field-independent basis, Debye):
    X=              6.0259    Y=            -23.1892    Z=             -0.3576  Tot=             23.9621
 Quadrupole moment (field-independent basis, Debye-Ang):
   XX=           -161.5789   YY=           -237.3476   ZZ=           -129.6763
   XY=              5.0686   XZ=              0.6054   YZ=              0.1384

  Exact polarizability: 646.181   9.356 402.215  -3.899  -4.013 175.950
 Approx polarizability: 681.872   4.869 473.589  -3.955  -4.884 196.805

                      1                      2                      3
                      A                      A                      A
 Frequencies --     43.4994                61.1432               125.5646
 Red. masses --      8.8964                 4.6200                11.0288
 Frc consts  --      0.0099                 0.0102                 0.1025
 IR Inten    --      7.1002                 9.9770                 4.8680

                      4                      5                      6
                      A                      A                      A
 Frequencies --    133.1753               138.2563               173.1070
 Red. masses --      5.5155                 4.7625                 1.1222
 Frc consts  --      0.0576                 0.0536                 0.0198
 IR Inten    --      4.8330                 4.0211                 0.6401

                      7                      8                      9
                      A                      A                      A
 Frequencies --    193.8023               214.6733               228.8757
 Red. masses --      6.3048                14.8658                 3.7452
 Frc consts  --      0.1395                 0.4036                 0.1156
 IR Inten    --      3.8565                 7.6565                10.1020

                     10                     11                     12
                      A                      A                      A
 Frequencies --    231.9408               284.5383               313.5835
 Red. masses --      3.7290                 6.1500                 5.5306
 Frc consts  --      0.1182                 0.2934                 0.3204
 IR Inten    --      0.2803                 6.4106                 7.3603

                     13                     14                     15
                      A                      A                      A
 Frequencies --    342.4506               369.6833               412.0737
 Red. masses --      6.8113                 9.9579                 7.0486
 Frc consts  --      0.4706                 0.8018                 0.7052
 IR Inten    --      6.3968                 1.1968                 0.1927

                     16                     17                     18
                      A                      A                      A
 Frequencies --    423.7012               446.7189               466.1441
 Red. masses --      3.3897                 4.9303                 6.0950
 Frc consts  --      0.3585                 0.5797                 0.7803
 IR Inten    --     12.4805                13.5086                 7.5006

                     19                     20                     21
                      A                      A                      A
 Frequencies --    478.9336               499.8978               535.1235
 Red. masses --      3.0690                11.1711                 4.9917
 Frc consts  --      0.4148                 1.6448                 0.8422
 IR Inten    --      2.8782                 2.3469                 0.2206

                     22                     23                     24
                      A                      A                      A
 Frequencies --    591.7460               623.7630               643.2786
 Red. masses --      6.4421                 4.7745                 6.6702
 Frc consts  --      1.3291                 1.0945                 1.6262
 IR Inten    --     61.4388                 0.0112               100.7671

                     25                     26                     27
                      A                      A                      A
 Frequencies --    666.3954               692.7932               697.4520
 Red. masses --      6.3490                 6.5103                 2.4644
 Frc consts  --      1.6612                 1.8410                 0.7063
 IR Inten    --     28.2638                14.9735               110.6350

                     28                     29                     30
                      A                      A                      A
 Frequencies --    714.0486               740.7817               775.0504
 Red. masses --      4.6079                 6.1320                 1.8623
 Frc consts  --      1.3842                 1.9826                 0.6591
 IR Inten    --      0.8731                22.9454                45.3720

                     31                     32                     33
                      A                      A                      A
 Frequencies --    801.6119               855.5197               859.9580
 Red. masses --      3.2358                 1.7091                 6.3973
 Frc consts  --      1.2251                 0.7370                 2.7874
 IR Inten    --      0.1169                 0.0278                 5.6819

                     34                     35                     36
                      A                      A                      A
 Frequencies --    904.8885               918.2742               931.7636
 Red. masses --      1.3953                 1.4066                 6.1258
 Frc consts  --      0.6731                 0.6988                 3.1335
 IR Inten    --      0.0249                35.4401                15.7928

                     37                     38                     39
                      A                      A                      A
 Frequencies --    967.0807               977.8001               984.4762
 Red. masses --      2.9298                 1.3488                 1.2468
 Frc consts  --      1.6144                 0.7598                 0.7120
 IR Inten    --    115.3888                 3.9556                 0.1051

                     40                     41                     42
                      A                      A                      A
 Frequencies --   1017.9922              1026.8433              1056.8820
 Red. masses --      2.0860                 1.6905                 1.4574
 Frc consts  --      1.2737                 1.0502                 0.9592
 IR Inten    --    102.4849                17.0384                 4.4166

                     43                     44                     45
                      A                      A                      A
 Frequencies --   1086.1134              1127.5874              1136.8911
 Red. masses --      4.1800                 1.5914                 2.1069
 Frc consts  --      2.9052                 1.1922                 1.6044
 IR Inten    --    818.3219               346.4065               139.7320

                     46                     47                     48
                      A                      A                      A
 Frequencies --   1151.8398              1202.2437              1205.5983
 Red. masses --      2.2991                 1.9301                 2.3028
 Frc consts  --      1.7972                 1.6437                 1.9720
 IR Inten    --    236.9034               185.2684               254.4623

                     49                     50                     51
                      A                      A                      A
 Frequencies --   1210.7146              1231.3719              1308.5629
 Red. masses --      2.6654                 2.0487                 3.3696
 Frc consts  --      2.3020                 1.8303                 3.3996
 IR Inten    --    362.2215               256.7171               722.9252

                     52                     53                     54
                      A                      A                      A
 Frequencies --   1311.8571              1349.8914              1353.1418
 Red. masses --      5.1215                 3.0168                 5.7939
 Frc consts  --      5.1930                 3.2389                 6.2503
 IR Inten    --     45.0222              1811.7840               817.6794

                     55                     56                     57
                      A                      A                      A
 Frequencies --   1408.7413              1428.0112              1442.4563
 Red. masses --      1.3044                 2.9844                 4.6763
 Frc consts  --      1.5252                 3.5857                 5.7327
 IR Inten    --     54.1047               138.0179               146.3700

                     58                     59                     60
                      A                      A                      A
 Frequencies --   1450.0748              1462.3139              1468.8967
 Red. masses --      4.7767                 2.5437                 1.0441
 Frc consts  --      5.9178                 3.2047                 1.3273
 IR Inten    --     38.5313                36.7870                10.9563

                     61                     62                     63
                      A                      A                      A
 Frequencies --   1485.9449              1498.5742              1517.3537
 Red. masses --      1.4100                 3.8929                 4.2815
 Frc consts  --      1.8343                 5.1508                 5.8079
 IR Inten    --     33.0727                 5.0152                85.8674

                     64                     65                     66
                      A                      A                      A
 Frequencies --   1573.9456              1594.5156              1608.1841
 Red. masses --      7.7005                 6.8032                 5.2651
 Frc consts  --     11.2396                10.1911                 8.0229
 IR Inten    --      8.4669                50.7337                 8.0391

                     67                     68                     69
                      A                      A                      A
 Frequencies --   3011.7929              3052.9506              3097.2473
 Red. masses --      1.0377                 1.1001                 1.0992
 Frc consts  --      5.5462                 6.0413                 6.2125
 IR Inten    --    141.7568                35.1207                43.3146

                     70                     71                     72
                      A                      A                      A
 Frequencies --   3139.2630              3154.5817              3166.4083
 Red. masses --      1.0846                 1.0890                 1.0877
 Frc consts  --      6.2976                 6.3851                 6.4252
 IR Inten    --     25.1498                32.8277                30.8290

                     73                     74                     75
                      A                      A                      A
 Frequencies --   3172.4977              3177.8136              3191.4746
 Red. masses --      1.0915                 1.0929                 1.0896
 Frc consts  --      6.4724                 6.5028                 6.5387
 IR Inten    --     48.5564                84.2347                15.2769

 - Thermochemistry -
 -------------------
 Temperature   298.150 Kelvin.  Pressure   1.00000 Atm.
 Atom     1 has atomic number  6 and mass  12.00000

 Molecular mass:   299.97859 amu.
 Principal axes and moments of inertia in atomic units:
                           1         2         3
     Eigenvalues --  2238.42296********************
           X            0.98686  -0.16139   0.00787
           Y            0.16124   0.98677   0.01703
           Z           -0.01052  -0.01554   0.99982
 This molecule is an asymmetric top.
 Rotational symmetry number  1.
 Warning -- assumption of classical behavior for rotation
           may cause significant error
 Rotational temperatures (Kelvin)      0.03869     0.00815     0.00674
 Rotational constants (GHZ):           0.80626     0.16980     0.14038
 Zero-point vibrational energy     504490.0 (Joules/Mol)
                                  120.57600 (Kcal/Mol)
 Warning -- explicit consideration of  22 degrees of freedom as
           vibrations may cause significant error
 Vibrational temperatures:     62.59    87.97   180.66   191.61   198.92
          (Kelvin)            249.06   278.84   308.87   329.30   333.71
                              409.39   451.18   492.71   531.89   592.88
                              609.61   642.73   670.68   689.08   719.24
                              769.92   851.39   897.46   925.53   958.79
                              996.77  1003.48  1027.36  1065.82  1115.12
                             1153.34  1230.90  1237.29  1301.93  1321.19
                             1340.60  1391.41  1406.84  1416.44  1464.66
                             1477.40  1520.62  1562.67  1622.35  1635.73
                             1657.24  1729.76  1734.59  1741.95  1771.67
                             1882.73  1887.47  1942.19  1946.87  2026.86
                             2054.59  2075.37  2086.33  2103.94  2113.41
                             2137.94  2156.11  2183.13  2264.56  2294.15
                             2313.82  4333.30  4392.51  4456.25  4516.70
                             4538.74  4555.76  4564.52  4572.16  4591.82

 Zero-point correction=                           0.192150 (Hartree/Particle)
 Thermal correction to Energy=                    0.206654
 Thermal correction to Enthalpy=                  0.207598
 Thermal correction to Gibbs Free Energy=         0.150001
 Sum of electronic and zero-point Energies=          -3301.871985
 Sum of electronic and thermal Energies=             -3301.857481
 Sum of electronic and thermal Enthalpies=           -3301.856537
 Sum of electronic and thermal Free Energies=        -3301.914133

                     E (Thermal)             CV                S
                      KCal/Mol        Cal/Mol-Kelvin    Cal/Mol-Kelvin
 Total                  129.677             57.083            121.222
 Electronic               0.000              0.000              0.000
 Translational            0.889              2.981             42.993
 Rotational               0.889              2.981             34.080
 Vibrational            127.900             51.121             44.149
 Vibration     1          0.595              1.980              5.093
 Vibration     2          0.597              1.973              4.420
 Vibration     3          0.611              1.928              3.013
 Vibration     4          0.613              1.920              2.900
 Vibration     5          0.614              1.915              2.828
 Vibration     6          0.627              1.876              2.401
 Vibration     7          0.635              1.848              2.191
 Vibration     8          0.645              1.819              2.004
 Vibration     9          0.652              1.797              1.888
 Vibration    10          0.653              1.792              1.864
 Vibration    11          0.683              1.702              1.506
 Vibration    12          0.701              1.648              1.343
 Vibration    13          0.722              1.591              1.201
 Vibration    14          0.742              1.535              1.081
 Vibration    15          0.776              1.444              0.919
 Vibration    16          0.786              1.419              0.879
 Vibration    17          0.806              1.368              0.806
 Vibration    18          0.824              1.325              0.748
 Vibration    19          0.835              1.297              0.713
 Vibration    20          0.855              1.250              0.658
 Vibration    21          0.890              1.172              0.576
 Vibration    22          0.949              1.049              0.464

 Optimization completed.
    -- Stationary point found.
 Normal termination of Gaussian 16 at Sat Feb 10 18:48:24 2024.
