 Gaussian 16, Revision A.03,
 Gaussian 16:  ES64L-G16RevA.03 25-Dec-2016

 ----------------------------------------------------------------------
 #P UB3LYP/6-311++G(d,p) nosym opt freq SCRF=(PCM,Solvent=n,n-DiMethylF
 ormamide)
 ----------------------------------------------------------------------

 -------
 Reduced
 -------
 Symbolic Z-matrix:
 Charge = -2 Multiplicity = 1

 SCF Done:  E(UB3LYP) =  -653.477826394     A.U. after   18 cycles
 SCF Done:  E(UB3LYP) =  -653.479293071     A.U. after   13 cycles
 SCF Done:  E(UB3LYP) =  -653.479544575     A.U. after   12 cycles
 SCF Done:  E(UB3LYP) =  -653.479560877     A.U. after   12 cycles
 SCF Done:  E(UB3LYP) =  -653.479568038     A.U. after   11 cycles
 SCF Done:  E(UB3LYP) =  -653.479570516     A.U. after   10 cycles
 SCF Done:  E(UB3LYP) =  -653.479571654     A.U. after   10 cycles
 SCF Done:  E(UB3LYP) =  -653.479572134     A.U. after   10 cycles
 SCF Done:  E(UB3LYP) =  -653.479572511     A.U. after   10 cycles
 Optimization completed.
    -- Stationary point found.
 Normal termination of Gaussian 16 at Sun Feb 11 03:07:16 2024.

 ----------------------------------------------------------------------
 #P Geom=AllCheck Guess=TCheck SCRF=Check GenChk UB3LYP/6-311++G(d,p) F
 req
 ----------------------------------------------------------------------

 Structure from the checkpoint file:  "247-an.chk"
 -------
 Reduced
 -------
 Charge = -2 Multiplicity = 1

                          Input orientation:
 ---------------------------------------------------------------------
 Center     Atomic      Atomic             Coordinates (Angstroms)
 Number     Number       Type             X           Y           Z
 ---------------------------------------------------------------------
      1          6           0       -3.195993    1.349606    0.214507
      2          6           0       -2.390457    0.674268   -0.913136
      3          6           0       -1.010252    0.209429   -0.492046
      4          6           0       -0.824135   -1.111716    0.024164
      5          6           0       -2.006795   -2.051823    0.139677
      6          6           0        0.441126   -1.605271    0.427660
      7          8           0        0.635576   -2.823692    0.884895
      8          6           0        1.545816   -0.673693    0.306909
      9          6           0        2.853816   -1.061030    0.700310
     10          6           0        3.937042   -0.210206    0.599253
     11          6           0        3.754378    1.097205    0.084599
     12          6           0        2.494566    1.505951   -0.307129
     13          6           0        1.359375    0.658801   -0.213546
     14          6           0        0.054324    1.134303   -0.630499
     15          8           0       -0.102210    2.349739   -1.104955
     16          1           0       -4.174953    1.692770   -0.140998
     17          1           0       -2.655544    2.217397    0.602112
     18          1           0       -3.366944    0.663713    1.050068
     19          1           0       -2.976298   -0.160868   -1.311281
     20          1           0       -2.271855    1.399952   -1.722724
     21          1           0       -1.714132   -2.925663    0.722798
     22          1           0       -2.872701   -1.585522    0.621573
     23          1           0       -2.354568   -2.413681   -0.838862
     24          1           0        2.977656   -2.066266    1.088172
     25          1           0        4.923904   -0.539499    0.911414
     26          1           0        4.601175    1.772079   -0.000471
     27          1           0        2.338084    2.503719   -0.702465
 ---------------------------------------------------------------------

 SCF Done:  E(UB3LYP) =  -653.479572511     A.U. after    1 cycles

 Alpha  occ. eigenvalues --  -19.00656 -19.00625 -10.15951 -10.15944 -10.14579
 Alpha  occ. eigenvalues --  -10.14533 -10.14191 -10.14174 -10.14135 -10.13749
 Alpha  occ. eigenvalues --  -10.13220 -10.13179 -10.13145 -10.12215 -10.11900
 Alpha  occ. eigenvalues --   -0.91544  -0.91090  -0.81978  -0.77816  -0.73511
 Alpha  occ. eigenvalues --   -0.71729  -0.71211  -0.66231  -0.62522  -0.60388
 Alpha  occ. eigenvalues --   -0.56254  -0.54817  -0.51334  -0.47569  -0.45747
 Alpha  occ. eigenvalues --   -0.42834  -0.42496  -0.40791  -0.39619  -0.39022
 Alpha  occ. eigenvalues --   -0.38611  -0.36883  -0.36222  -0.35753  -0.34794
 Alpha  occ. eigenvalues --   -0.34446  -0.33980  -0.32837  -0.31533  -0.30264
 Alpha  occ. eigenvalues --   -0.30125  -0.29522  -0.28858  -0.22394  -0.21473
 Alpha  occ. eigenvalues --   -0.19640  -0.19006  -0.18323  -0.10712
 Alpha virt. eigenvalues --   -0.00354   0.00009   0.00711   0.01263   0.01671
 Alpha virt. eigenvalues --    0.02399   0.02732   0.02815   0.04576   0.04966
 Alpha virt. eigenvalues --    0.05239   0.05319   0.05720   0.06806   0.07202

  Beta  occ. eigenvalues --  -19.00656 -19.00625 -10.15951 -10.15944 -10.14579
  Beta  occ. eigenvalues --  -10.14533 -10.14191 -10.14174 -10.14135 -10.13749
  Beta  occ. eigenvalues --  -10.13220 -10.13179 -10.13145 -10.12215 -10.11900
  Beta  occ. eigenvalues --   -0.91544  -0.91090  -0.81978  -0.77816  -0.73511
  Beta  occ. eigenvalues --   -0.71729  -0.71211  -0.66231  -0.62522  -0.60388
  Beta  occ. eigenvalues --   -0.56254  -0.54817  -0.51334  -0.47569  -0.45747
  Beta  occ. eigenvalues --   -0.42834  -0.42496  -0.40791  -0.39619  -0.39022
  Beta  occ. eigenvalues --   -0.38611  -0.36883  -0.36222  -0.35753  -0.34794
  Beta  occ. eigenvalues --   -0.34446  -0.33980  -0.32837  -0.31533  -0.30264
  Beta  occ. eigenvalues --   -0.30125  -0.29522  -0.28858  -0.22394  -0.21473
  Beta  occ. eigenvalues --   -0.19640  -0.19006  -0.18323  -0.10712
  Beta virt. eigenvalues --   -0.00354   0.00009   0.00711   0.01263   0.01671
  Beta virt. eigenvalues --    0.02399   0.02732   0.02815   0.04576   0.04966
  Beta virt. eigenvalues --    0.05239   0.05319   0.05720   0.06806   0.07202

 Mulliken charges and spin densities:
               1          2
     1  C   -0.669054   0.000000
     2  C   -0.315726  -0.000000
     3  C    0.603304  -0.000000
     4  C    0.589176   0.000000
     5  C   -0.543054   0.000000
     6  C   -0.809002  -0.000000
     7  O   -0.717949   0.000000
     8  C    0.507866   0.000000
     9  C    0.038993   0.000000
    10  C   -0.441929   0.000000
    11  C   -0.445242  -0.000000
    12  C   -0.050588  -0.000000
    13  C    0.183436   0.000000
    14  C   -0.938888   0.000000
    15  O   -0.708123  -0.000000
    16  H    0.115729  -0.000000
    17  H    0.158026   0.000000
    18  H    0.115728   0.000000
    19  H    0.132493  -0.000000
    20  H    0.158287  -0.000000
    21  H    0.165405   0.000000
    22  H    0.134610  -0.000000
    23  H    0.141263  -0.000000
    24  H    0.148036  -0.000000
    25  H    0.149761   0.000000
    26  H    0.150080  -0.000000
    27  H    0.147364  -0.000000
 Sum of Mulliken charges =  -2.00000  -0.00000

 Dipole moment (field-independent basis, Debye):
    X=             -4.8470    Y=              1.7916    Z=              0.5982  Tot=              5.2020
 Quadrupole moment (field-independent basis, Debye-Ang):
   XX=           -113.6505   YY=           -152.2718   ZZ=           -109.1219
   XY=              7.2325   XZ=             -2.7645   YZ=             18.6970

  Exact polarizability: 394.678  18.000 299.371  31.559 -44.838 184.411
 Approx polarizability: 424.166  21.737 336.128  36.905 -53.338 202.345

                      1                      2                      3
                      A                      A                      A
 Frequencies --     64.6188                84.6236               114.0028
 Red. masses --      4.3730                 2.8592                 3.2985
 Frc consts  --      0.0108                 0.0121                 0.0253
 IR Inten    --     17.9327                 3.9608                 9.0313

                      4                      5                      6
                      A                      A                      A
 Frequencies --    136.2007               143.3755               177.6606
 Red. masses --      3.8536                 1.1644                 4.3420
 Frc consts  --      0.0421                 0.0141                 0.0807
 IR Inten    --      0.9608                 2.9270                 2.6577

                      7                      8                      9
                      A                      A                      A
 Frequencies --    211.4759               228.9801               260.8476
 Red. masses --      1.2558                 3.0662                 3.6564
 Frc consts  --      0.0331                 0.0947                 0.1466
 IR Inten    --      3.6712                 1.0724                18.4026

                     10                     11                     12
                      A                      A                      A
 Frequencies --    325.0603               345.4842               351.0287
 Red. masses --      4.0519                 2.4085                 3.8335
 Frc consts  --      0.2523                 0.1694                 0.2783
 IR Inten    --      0.6255                 1.4639                 5.9585

                     13                     14                     15
                      A                      A                      A
 Frequencies --    371.5455               406.3769               432.4010
 Red. masses --      5.0955                 6.9177                 5.9785
 Frc consts  --      0.4144                 0.6731                 0.6586
 IR Inten    --     15.5082                 3.6271                 6.3216

                     16                     17                     18
                      A                      A                      A
 Frequencies --    444.5617               472.6702               516.9544
 Red. masses --      3.9398                 3.7830                 8.6207
 Frc consts  --      0.4588                 0.4980                 1.3574
 IR Inten    --      4.1166                 2.3669                 0.5501

                     19                     20                     21
                      A                      A                      A
 Frequencies --    557.7617               604.7699               659.4239
 Red. masses --      4.5116                 4.5056                 4.9786
 Frc consts  --      0.8269                 0.9709                 1.2755
 IR Inten    --     10.0508                63.7673                 1.8470

                     22                     23                     24
                      A                      A                      A
 Frequencies --    664.6240               684.5918               707.9801
 Red. masses --      3.6927                 3.4757                 2.7231
 Frc consts  --      0.9610                 0.9597                 0.8042
 IR Inten    --      4.2437                34.4662                74.0276

                     25                     26                     27
                      A                      A                      A
 Frequencies --    765.0028               775.7405               797.0868
 Red. masses --      1.5405                 2.0393                 3.2921
 Frc consts  --      0.5312                 0.7230                 1.2324
 IR Inten    --      0.4553                47.8589                 0.3552

                     28                     29                     30
                      A                      A                      A
 Frequencies --    839.5876               858.5008               872.1109
 Red. masses --      2.8401                 1.7755                 3.0355
 Frc consts  --      1.1795                 0.7710                 1.3603
 IR Inten    --     46.1809                 0.3496                 7.2085

                     31                     32                     33
                      A                      A                      A
 Frequencies --    946.5135               966.8610               976.3270
 Red. masses --      2.8480                 1.3727                 1.2544
 Frc consts  --      1.5033                 0.7560                 0.7045
 IR Inten    --     62.8216                 4.3042                 0.5532

                     34                     35                     36
                      A                      A                      A
 Frequencies --    993.0903              1018.7390              1030.8533
 Red. masses --      2.5075                 2.1764                 2.0388
 Frc consts  --      1.4570                 1.3308                 1.2765
 IR Inten    --     19.0416                69.8389               100.3592

                     37                     38                     39
                      A                      A                      A
 Frequencies --   1038.3914              1068.3931              1098.3173
 Red. masses --      1.4693                 1.9344                 2.1200
 Frc consts  --      0.9334                 1.3009                 1.5067
 IR Inten    --      9.9037                26.8311                77.0990

                     40                     41                     42
                      A                      A                      A
 Frequencies --   1103.5085              1116.4413              1167.7672
 Red. masses --      2.0428                 1.7962                 2.1697
 Frc consts  --      1.4656                 1.3191                 1.7432
 IR Inten    --    262.4598               153.3139                 7.8330

                     43                     44                     45
                      A                      A                      A
 Frequencies --   1179.4424              1226.5836              1268.1474
 Red. masses --      1.7207                 3.1635                 2.2686
 Frc consts  --      1.4103                 2.8043                 2.1495
 IR Inten    --    234.2623               222.5793                21.7816

                     46                     47                     48
                      A                      A                      A
 Frequencies --   1292.8707              1322.5274              1330.4163
 Red. masses --      1.3437                 5.3231                 2.4104
 Frc consts  --      1.3234                 5.4856                 2.5138
 IR Inten    --     67.2417               323.6577               693.2182

                     49                     50                     51
                      A                      A                      A
 Frequencies --   1351.4470              1372.4431              1382.4592
 Red. masses --      1.9277                 4.4329                 1.2555
 Frc consts  --      2.0743                 4.9196                 1.4137
 IR Inten    --    672.8091               342.8063                12.7216

                     52                     53                     54
                      A                      A                      A
 Frequencies --   1387.2725              1428.4671              1432.2149
 Red. masses --      1.8290                 3.0620                 2.5191
 Frc consts  --      2.0739                 3.6813                 3.0445
 IR Inten    --    312.8366                23.8209                 8.6752

                     55                     56                     57
                      A                      A                      A
 Frequencies --   1462.3134              1473.7241              1481.3582
 Red. masses --      1.1823                 1.1153                 1.0475
 Frc consts  --      1.4896                 1.4272                 1.3543
 IR Inten    --     10.9127                 4.1104                13.2500

                     58                     59                     60
                      A                      A                      A
 Frequencies --   1489.8629              1497.8568              1502.9616
 Red. masses --      1.1237                 1.2386                 2.0366
 Frc consts  --      1.4696                 1.6372                 2.7105
 IR Inten    --      5.2285                14.3600                16.0895

                     61                     62                     63
                      A                      A                      A
 Frequencies --   1523.1592              1578.8158              1602.8385
 Red. masses --      4.5702                 7.1940                 5.4079
 Frc consts  --      6.2470                10.5653                 8.1857
 IR Inten    --    167.2132                 6.0564                 2.1415

                     64                     65                     66
                      A                      A                      A
 Frequencies --   2969.1023              3001.4712              3016.4978
 Red. masses --      1.0579                 1.0397                 1.0608
 Frc consts  --      5.4948                 5.5185                 5.6870
 IR Inten    --    196.1094               127.8706               134.0513

                     67                     68                     69
                      A                      A                      A
 Frequencies --   3028.9742              3049.8885              3061.3346
 Red. masses --      1.0792                 1.0996                 1.0954
 Frc consts  --      5.8337                 6.0261                 6.0483
 IR Inten    --    139.5530                14.4085               130.3769

                     70                     71                     72
                      A                      A                      A
 Frequencies --   3083.9809              3101.6387              3134.1056
 Red. masses --      1.1019                 1.0941                 1.0845
 Frc consts  --      6.1750                 6.2011                 6.2763
 IR Inten    --     88.4055                20.2648                19.5573

                     73                     74                     75
                      A                      A                      A
 Frequencies --   3150.2691              3169.5099              3174.5261
 Red. masses --      1.0896                 1.0910                 1.0925
 Frc consts  --      6.3709                 6.4575                 6.4868
 IR Inten    --     42.6550                48.4596                63.9442

 - Thermochemistry -
 -------------------
 Temperature   298.150 Kelvin.  Pressure   1.00000 Atm.
 Atom     1 has atomic number  6 and mass  12.00000

 Molecular mass:   200.08373 amu.
 Principal axes and moments of inertia in atomic units:
                           1         2         3
     Eigenvalues --  1888.081223482.721425180.53764
           X            0.99344   0.06229  -0.09594
           Y           -0.03209   0.95679   0.28900
           Z            0.10980  -0.28402   0.95251
 This molecule is an asymmetric top.
 Rotational symmetry number  1.
 Warning -- assumption of classical behavior for rotation
           may cause significant error
 Rotational temperatures (Kelvin)      0.04587     0.02487     0.01672
 Rotational constants (GHZ):           0.95586     0.51820     0.34837
 Zero-point vibrational energy     555837.3 (Joules/Mol)
                                  132.84829 (Kcal/Mol)
 Warning -- explicit consideration of  20 degrees of freedom as
           vibrations may cause significant error
 Vibrational temperatures:     92.97   121.75   164.02   195.96   206.29
          (Kelvin)            255.61   304.27   329.45   375.30   467.69
                              497.07   505.05   534.57   584.69   622.13
                              639.63   680.07   743.78   802.49   870.13
                              948.76   956.25   984.97  1018.63  1100.67
                             1116.12  1146.83  1207.98  1235.19  1254.77
                             1361.82  1391.10  1404.72  1428.84  1465.74
                             1483.17  1494.01  1537.18  1580.23  1587.70
                             1606.31  1680.16  1696.95  1764.78  1824.58
                             1860.15  1902.82  1914.17  1944.43  1974.64
                             1989.05  1995.98  2055.25  2060.64  2103.94
                             2120.36  2131.34  2143.58  2155.08  2162.43
                             2191.49  2271.56  2306.13  4271.88  4318.45
                             4340.07  4358.02  4388.11  4404.58  4437.16
                             4462.57  4509.28  4532.53  4560.22  4567.44

 Zero-point correction=                           0.211707 (Hartree/Particle)
 Thermal correction to Energy=                    0.224854
 Thermal correction to Enthalpy=                  0.225798
 Thermal correction to Gibbs Free Energy=         0.172572
 Sum of electronic and zero-point Energies=           -653.267865
 Sum of electronic and thermal Energies=              -653.254719
 Sum of electronic and thermal Enthalpies=            -653.253775
 Sum of electronic and thermal Free Energies=         -653.307001

                     E (Thermal)             CV                S
                      KCal/Mol        Cal/Mol-Kelvin    Cal/Mol-Kelvin
 Total                  141.098             51.670            112.024
 Electronic               0.000              0.000              0.000
 Translational            0.889              2.981             41.785
 Rotational               0.889              2.981             31.899
 Vibrational            139.320             45.708             38.339
 Vibration     1          0.597              1.971              4.311
 Vibration     2          0.601              1.960              3.781
 Vibration     3          0.607              1.938              3.200
 Vibration     4          0.614              1.917              2.857
 Vibration     5          0.616              1.910              2.758
 Vibration     6          0.628              1.870              2.353
 Vibration     7          0.643              1.823              2.031
 Vibration     8          0.652              1.797              1.887
 Vibration     9          0.669              1.744              1.656
 Vibration    10          0.709              1.625              1.285
 Vibration    11          0.724              1.584              1.187
 Vibration    12          0.728              1.573              1.162
 Vibration    13          0.743              1.531              1.073
 Vibration    14          0.771              1.456              0.940
 Vibration    15          0.793              1.400              0.851
 Vibration    16          0.804              1.373              0.812
 Vibration    17          0.830              1.311              0.730
 Vibration    18          0.872              1.212              0.617
 Vibration    19          0.913              1.123              0.528
 Vibration    20          0.963              1.022              0.442

 Optimization completed.
    -- Stationary point found.
 Normal termination of Gaussian 16 at Sun Feb 11 04:00:24 2024.
