 Gaussian 16, Revision A.03,
 Gaussian 16:  ES64L-G16RevA.03 25-Dec-2016

 --------------------------------------
 #P UB3LYP/6-311++G(d,p) nosym opt freq
 --------------------------------------

 -------
 Radical
 -------
 Symbolic Z-matrix:
 Charge = -1 Multiplicity = 2

 SCF Done:  E(UB3LYP) =  -839.537973427     A.U. after   23 cycles
 Optimization completed.
    -- Stationary point found.
 Normal termination of Gaussian 16 at Sun Jan  7 05:05:08 2024.

 ----------------------------------------------------------------------
 #P Geom=AllCheck Guess=TCheck SCRF=Check GenChk UB3LYP/6-311++G(d,p) F
 req
 ----------------------------------------------------------------------

 Structure from the checkpoint file:  "184-rad.chk"
 -------
 Radical
 -------
 Charge = -1 Multiplicity = 2

                          Input orientation:
 ---------------------------------------------------------------------
 Center     Atomic      Atomic             Coordinates (Angstroms)
 Number     Number       Type             X           Y           Z
 ---------------------------------------------------------------------
      1          6           0        4.865973   -2.883396   -0.337282
      2          6           0        5.598832   -2.000123   -1.102323
      3          6           0        5.018442   -0.786243   -1.533781
      4          6           0        3.529415   -2.596353    0.029020
      5          6           0        2.942522   -1.370248   -0.406544
      6          6           0        3.714936   -0.486442   -1.187303
      7          6           0        2.782444   -3.539329    0.831938
      8          6           0        1.421128   -3.189488    1.174083
      9          6           0        0.816181   -1.969811    0.749038
     10          6           0        1.560645   -1.004290   -0.065240
     11          6           0        0.660054   -4.090413    1.959924
     12          6           0       -0.651992   -3.791660    2.310539
     13          6           0       -0.513094   -1.698418    1.121171
     14          6           0       -1.240648   -2.592612    1.890305
     15          8           0        3.296808   -4.649402    1.232753
     16          8           0        1.051558    0.072183   -0.450090
     17          8           0        1.174841   -5.269010    2.397846
     18          1           0        5.289755   -3.820179    0.005043
     19          1           0        6.623334   -2.236830   -1.374068
     20          1           0        5.596902   -0.092164   -2.135901
     21          1           0        3.243751    0.437059   -1.503872
     22          1           0        2.127018   -5.268798    2.025639
     23          8           0       -1.363239   -4.687732    3.074338
     24          1           0       -0.950015   -0.765800    0.786230
     25          1           0       -2.265705   -2.386130    2.178853
     26          1           0       -0.761607   -5.427939    3.240751
 ---------------------------------------------------------------------

 SCF Done:  E(UB3LYP) =  -839.537973427     A.U. after    1 cycles

 Alpha  occ. eigenvalues --  -19.04283 -19.01773 -18.96822 -18.95435 -10.11423
 Alpha  occ. eigenvalues --  -10.11367 -10.10911 -10.10678 -10.06534 -10.06395
 Alpha  occ. eigenvalues --  -10.06092 -10.05952 -10.05938 -10.05887 -10.05833
 Alpha  occ. eigenvalues --  -10.05706 -10.05365 -10.05260  -0.95982  -0.92874
 Alpha  occ. eigenvalues --   -0.88224  -0.87989  -0.74709  -0.73378  -0.67175
 Alpha  occ. eigenvalues --   -0.63913  -0.62745  -0.62320  -0.55474  -0.53248
 Alpha  occ. eigenvalues --   -0.51343  -0.48815  -0.45390  -0.43924  -0.41981
 Alpha  occ. eigenvalues --   -0.40234  -0.38061  -0.36722  -0.35328  -0.33661
 Alpha  occ. eigenvalues --   -0.32474  -0.32358  -0.31268  -0.30158  -0.29588
 Alpha  occ. eigenvalues --   -0.29400  -0.28462  -0.28234  -0.26548  -0.25826
 Alpha  occ. eigenvalues --   -0.24902  -0.24324  -0.24020  -0.23538  -0.22254
 Alpha  occ. eigenvalues --   -0.20387  -0.15160  -0.14381  -0.13750  -0.12850
 Alpha  occ. eigenvalues --   -0.11724  -0.10330  -0.02362
 Alpha virt. eigenvalues --    0.06533   0.07947   0.09037   0.09472   0.09821
 Alpha virt. eigenvalues --    0.10129   0.11332   0.11848   0.12843   0.13297
 Alpha virt. eigenvalues --    0.14970   0.14978   0.15328   0.16209   0.16767

  Beta  occ. eigenvalues --  -19.04263 -19.01733 -18.96265 -18.94924 -10.11364
  Beta  occ. eigenvalues --  -10.11309 -10.10629 -10.10589 -10.06517 -10.06293
  Beta  occ. eigenvalues --  -10.06052 -10.05961 -10.05901 -10.05873 -10.05838
  Beta  occ. eigenvalues --  -10.05569 -10.05301 -10.05248  -0.95907  -0.92724
  Beta  occ. eigenvalues --   -0.87344  -0.87060  -0.74445  -0.73261  -0.66786
  Beta  occ. eigenvalues --   -0.63681  -0.62581  -0.62110  -0.54761  -0.53107
  Beta  occ. eigenvalues --   -0.51098  -0.48703  -0.45199  -0.43826  -0.41793
  Beta  occ. eigenvalues --   -0.40125  -0.37888  -0.36507  -0.35151  -0.33574
  Beta  occ. eigenvalues --   -0.32199  -0.31927  -0.31221  -0.29925  -0.29389
  Beta  occ. eigenvalues --   -0.28346  -0.28205  -0.27974  -0.25720  -0.25485
  Beta  occ. eigenvalues --   -0.24258  -0.23878  -0.23864  -0.22439  -0.22078
  Beta  occ. eigenvalues --   -0.19495  -0.13720  -0.13293  -0.13205  -0.12375
  Beta  occ. eigenvalues --   -0.11243  -0.09466
  Beta virt. eigenvalues --    0.03405   0.07458   0.07939   0.09038   0.09816
  Beta virt. eigenvalues --    0.10127   0.10431   0.11334   0.12243   0.12837
  Beta virt. eigenvalues --    0.13287   0.14983   0.15025   0.15330   0.16494

 Mulliken charges and spin densities:
               1          2
     1  C    0.084151   0.057594
     2  C   -0.426908   0.011693
     3  C   -0.425382   0.081762
     4  C    0.251656   0.006635
     5  C   -0.031365   0.079176
     6  C    0.074127  -0.012555
     7  C   -0.475948   0.162222
     8  C    0.556572  -0.023620
     9  C    0.519006   0.047565
    10  C   -0.640430   0.040304
    11  C   -0.219932   0.062226
    12  C   -0.394701   0.038283
    13  C    0.040486   0.018688
    14  C    0.088724   0.035600
    15  O   -0.439364   0.203382
    16  O   -0.356032   0.191179
    17  O   -0.458148   0.013183
    18  H    0.157375  -0.002226
    19  H    0.125059  -0.001626
    20  H    0.124767  -0.006169
    21  H    0.156523   0.000672
    22  H    0.386611  -0.004796
    23  O   -0.291566   0.005833
    24  H    0.154923  -0.001692
    25  H    0.162559  -0.003081
    26  H    0.277235  -0.000231
 Sum of Mulliken charges =  -1.00000   1.00000

 Dipole moment (field-independent basis, Debye):
    X=             -7.9984    Y=             12.0096    Z=             -3.3863  Tot=             14.8213
 Quadrupole moment (field-independent basis, Debye-Ang):
   XX=           -139.3220   YY=           -161.1486   ZZ=           -120.5843
   XY=             21.4673   XZ=             -0.3017   YZ=             19.1800

  Exact polarizability: 279.915  10.058 208.070 -77.979 -65.650 160.291
 Approx polarizability: 440.614 -17.475 383.828-104.111-120.056 255.569

                      1                      2                      3
                      A                      A                      A
 Frequencies --     53.1742                96.2833               130.4938
 Red. masses --      7.4528                 5.6904                 7.9554
 Frc consts  --      0.0124                 0.0311                 0.0798
 IR Inten    --      2.7870                 0.6079                 1.3163

                      4                      5                      6
                      A                      A                      A
 Frequencies --    146.2249               186.6189               197.9100
 Red. masses --      6.6680                 6.5535                 5.8017
 Frc consts  --      0.0840                 0.1345                 0.1339
 IR Inten    --      0.0217                 0.3880                 3.1731

                      7                      8                      9
                      A                      A                      A
 Frequencies --    265.2772               286.7004               324.9429
 Red. masses --      5.5802                 6.3778                 6.0372
 Frc consts  --      0.2314                 0.3089                 0.3756
 IR Inten    --      0.0213                 5.7631                 2.6834

                     10                     11                     12
                      A                      A                      A
 Frequencies --    334.1729               345.8301               394.7577
 Red. masses --      8.1809                 6.4218                 7.4356
 Frc consts  --      0.5383                 0.4525                 0.6827
 IR Inten    --      1.1129                 0.5536                 9.8861

                     13                     14                     15
                      A                      A                      A
 Frequencies --    421.5010               422.4246               444.4284
 Red. masses --      3.9519                11.6298                 3.3899
 Frc consts  --      0.4137                 1.2227                 0.3945
 IR Inten    --      6.5944                21.9114                11.0469

                     16                     17                     18
                      A                      A                      A
 Frequencies --    458.3190               489.0165               489.8989
 Red. masses --      1.3869                 6.7948                11.7147
 Frc consts  --      0.1716                 0.9574                 1.6565
 IR Inten    --     90.9000                20.8816                 1.8292

                     19                     20                     21
                      A                      A                      A
 Frequencies --    517.6155               570.6397               575.7634
 Red. masses --      3.3603                 4.6586                 7.6812
 Frc consts  --      0.5304                 0.8938                 1.5003
 IR Inten    --      4.1705                 0.9329                18.1836

                     22                     23                     24
                      A                      A                      A
 Frequencies --    619.2912               652.1170               668.0199
 Red. masses --      6.7307                 5.3528                 6.8293
 Frc consts  --      1.5209                 1.3412                 1.7956
 IR Inten    --     12.7770                 0.0150                18.2314

                     25                     26                     27
                      A                      A                      A
 Frequencies --    695.6119               706.2709               719.6493
 Red. masses --      6.1386                 2.3511                 7.4477
 Frc consts  --      1.7501                 0.6910                 2.2726
 IR Inten    --     12.4636                69.3476                 4.4209

                     28                     29                     30
                      A                      A                      A
 Frequencies --    764.8009               774.7287               783.9070
 Red. masses --      7.2636                 1.8322                 2.8691
 Frc consts  --      2.5032                 0.6479                 1.0388
 IR Inten    --      9.7310                14.4867                 4.2296

                     31                     32                     33
                      A                      A                      A
 Frequencies --    817.9784               840.9928               866.3708
 Red. masses --      1.8661                 7.5318                 1.4851
 Frc consts  --      0.7357                 3.1386                 0.6568
 IR Inten    --     26.9339                54.2163                 0.0492

                     34                     35                     36
                      A                      A                      A
 Frequencies --    905.3671               949.6325               970.6802
 Red. masses --      7.1387                 1.2765                 1.0555
 Frc consts  --      3.4476                 0.6782                 0.5859
 IR Inten    --      5.1139                 0.0755                68.2950

                     37                     38                     39
                      A                      A                      A
 Frequencies --    979.4032               983.6020              1016.6850
 Red. masses --      1.3246                 1.2953                 4.6718
 Frc consts  --      0.7486                 0.7383                 2.8452
 IR Inten    --      0.0294                 1.2710                25.9914

                     40                     41                     42
                      A                      A                      A
 Frequencies --   1038.9671              1048.7184              1110.4306
 Red. masses --      2.5393                 2.4401                 2.1151
 Frc consts  --      1.6150                 1.5812                 1.5366
 IR Inten    --     30.8260                24.9405                 9.2047

                     43                     44                     45
                      A                      A                      A
 Frequencies --   1149.7310              1168.2929              1193.1476
 Red. masses --      1.3785                 1.4382                 2.1195
 Frc consts  --      1.0736                 1.1566                 1.7778
 IR Inten    --      8.0082                 3.7149                 7.6074

                     46                     47                     48
                      A                      A                      A
 Frequencies --   1208.3303              1236.2933              1247.4849
 Red. masses --      2.0233                 2.2869                 3.1063
 Frc consts  --      1.7405                 2.0594                 2.8482
 IR Inten    --     29.1500               235.1945                46.7699

                     49                     50                     51
                      A                      A                      A
 Frequencies --   1269.4603              1327.7040              1335.3603
 Red. masses --      2.9660                 3.5367                 3.4156
 Frc consts  --      2.8162                 3.6732                 3.5885
 IR Inten    --     65.9026               124.5507                97.5615

                     52                     53                     54
                      A                      A                      A
 Frequencies --   1357.6629              1379.8557              1415.4843
 Red. masses --     10.2554                 2.9114                 2.5135
 Frc consts  --     11.1375                 3.2660                 2.9672
 IR Inten    --      7.0422               246.1313               266.2089

                     55                     56                     57
                      A                      A                      A
 Frequencies --   1433.8268              1475.5938              1483.8908
 Red. masses --      4.2404                 2.7617                 2.9922
 Frc consts  --      5.1363                 3.5429                 3.8819
 IR Inten    --     62.9253                48.2387                12.8647

                     58                     59                     60
                      A                      A                      A
 Frequencies --   1499.5920              1546.6607              1560.4915
 Red. masses --      3.0401                 5.4903                 4.4922
 Frc consts  --      4.0280                 7.7382                 6.4452
 IR Inten    --    376.1435               178.9094               272.7166

                     61                     62                     63
                      A                      A                      A
 Frequencies --   1583.6413              1613.8562              1625.8303
 Red. masses --      3.5488                 6.2259                 5.2457
 Frc consts  --      5.2437                 9.5539                 8.1697
 IR Inten    --    108.3352                13.0366                39.1266

                     64                     65                     66
                      A                      A                      A
 Frequencies --   1661.7788              2719.5795              3136.5073
 Red. masses --      4.2212                 1.0765                 1.0848
 Frc consts  --      6.8680                 4.6911                 6.2876
 IR Inten    --     32.4438               534.3702                17.7086

                     67                     68                     69
                      A                      A                      A
 Frequencies --   3155.3824              3165.8953              3183.1832
 Red. masses --      1.0910                 1.0881                 1.0917
 Frc consts  --      6.4000                 6.4253                 6.5177
 IR Inten    --     46.6779                16.0068                14.6603

                     70                     71                     72
                      A                      A                      A
 Frequencies --   3187.0985              3193.8284              3746.8798
 Red. masses --      1.0927                 1.0923                 1.0649
 Frc consts  --      6.5396                 6.5645                 8.8087
 IR Inten    --     25.0868                11.7978                66.6049

 - Thermochemistry -
 -------------------
 Temperature   298.150 Kelvin.  Pressure   1.00000 Atm.
 Atom     1 has atomic number  6 and mass  12.00000

 Molecular mass:   240.04226 amu.
 Principal axes and moments of inertia in atomic units:
                           1         2         3
     Eigenvalues --  2035.362915648.759447684.12232
           X            0.75536  -0.56917   0.32477
           Y            0.40540   0.79525   0.45080
           Z           -0.51485  -0.20886   0.83145
 This molecule is an asymmetric top.
 Rotational symmetry number  1.
 Warning -- assumption of classical behavior for rotation
           may cause significant error
 Rotational temperatures (Kelvin)      0.04255     0.01533     0.01127
 Rotational constants (GHZ):           0.88669     0.31949     0.23487
 Zero-point vibrational energy     486446.7 (Joules/Mol)
                                  116.26356 (Kcal/Mol)
 Warning -- explicit consideration of  22 degrees of freedom as
           vibrations may cause significant error
 Vibrational temperatures:     76.51   138.53   187.75   210.39   268.50
          (Kelvin)            284.75   381.67   412.50   467.52   480.80
                              497.57   567.97   606.45   607.77   639.43
                              659.42   703.59   704.86   744.73   821.02
                              828.40   891.02   938.25   961.13  1000.83
                             1016.17  1035.41  1100.38  1114.66  1127.87
                             1176.89  1210.00  1246.51  1302.62  1366.31
                             1396.59  1409.14  1415.18  1462.78  1494.84
                             1508.87  1597.66  1654.21  1680.91  1716.67
                             1738.52  1778.75  1794.85  1826.47  1910.27
                             1921.29  1953.37  1985.30  2036.57  2062.96
                             2123.05  2134.99  2157.58  2225.30  2245.20
                             2278.51  2321.98  2339.21  2390.93  3912.87
                             4512.73  4539.89  4555.02  4579.89  4585.52
                             4595.21  5390.92

 Zero-point correction=                           0.185278 (Hartree/Particle)
 Thermal correction to Energy=                    0.198372
 Thermal correction to Enthalpy=                  0.199316
 Thermal correction to Gibbs Free Energy=         0.145347
 Sum of electronic and zero-point Energies=           -839.352696
 Sum of electronic and thermal Energies=              -839.339601
 Sum of electronic and thermal Enthalpies=            -839.338657
 Sum of electronic and thermal Free Energies=         -839.392627

                     E (Thermal)             CV                S
                      KCal/Mol        Cal/Mol-Kelvin    Cal/Mol-Kelvin
 Total                  124.480             53.819            113.589
 Electronic               0.000              0.000              1.377
 Translational            0.889              2.981             42.328
 Rotational               0.889              2.981             32.846
 Vibrational            122.703             47.858             37.037
 Vibration     1          0.596              1.976              4.696
 Vibration     2          0.603              1.952              3.528
 Vibration     3          0.612              1.923              2.939
 Vibration     4          0.617              1.907              2.721
 Vibration     5          0.632              1.858              2.261
 Vibration     6          0.637              1.843              2.152
 Vibration     7          0.671              1.737              1.627
 Vibration     8          0.684              1.698              1.493
 Vibration     9          0.709              1.626              1.285
 Vibration    10          0.716              1.607              1.240
 Vibration    11          0.724              1.584              1.185
 Vibration    12          0.762              1.481              0.982
 Vibration    13          0.784              1.423              0.887
 Vibration    14          0.785              1.421              0.884
 Vibration    15          0.804              1.373              0.813
 Vibration    16          0.816              1.342              0.771
 Vibration    17          0.845              1.274              0.686
 Vibration    18          0.846              1.272              0.684
 Vibration    19          0.873              1.211              0.616
 Vibration    20          0.927              1.095              0.503
 Vibration    21          0.932              1.084              0.493
 Vibration    22          0.979              0.991              0.418

 Optimization completed.
    -- Stationary point found.
 Normal termination of Gaussian 16 at Sun Jan  7 06:02:23 2024.
