 Q-Chem 5.4, Q-Chem, Inc., Pleasanton, CA (2021)
 Q-Chem 5.4.0 for Intel X86 EM64T Linux

User input:
--------------------------------------------------------------
$molecule
-1 2
C                  4.8659730000     -2.8833960000     -0.3372820000
C                  5.5988320000     -2.0001230000     -1.1023230000
C                  5.0184420000     -0.7862430000     -1.5337810000
C                  3.5294150000     -2.5963530000      0.0290200000
C                  2.9425220000     -1.3702480000     -0.4065440000
C                  3.7149360000     -0.4864420000     -1.1873030000
C                  2.7824440000     -3.5393290000      0.8319380000
C                  1.4211280000     -3.1894880000      1.1740830000
C                  0.8161810000     -1.9698110000      0.7490380000
C                  1.5606450000     -1.0042900000     -0.0652400000
C                  0.6600540000     -4.0904130000      1.9599240000
C                 -0.6519920000     -3.7916600000      2.3105390000
C                 -0.5130940000     -1.6984180000      1.1211710000
C                 -1.2406480000     -2.5926120000      1.8903050000
O                  3.2968080000     -4.6494020000      1.2327530000
O                  1.0515580000      0.0721830000     -0.4500900000
O                  1.1748410000     -5.2690100000      2.3978460000
H                  5.2897550000     -3.8201790000      0.0050430000
H                  6.6233340000     -2.2368300000     -1.3740680000
H                  5.5969020000     -0.0921640000     -2.1359010000
H                  3.2437510000      0.4370590000     -1.5038720000
H                  2.1270180000     -5.2687980000      2.0256390000
O                 -1.3632390000     -4.6877320000      3.0743380000
H                 -0.9500150000     -0.7658000000      0.7862300000
H                 -2.2657050000     -2.3861300000      2.1788530000
H                 -0.7616070000     -5.4279390000      3.2407510000
$end
$rem
MAX_SCF_CYCLES=200
BASIS  =  6-311++G(d,p)
GUI  =  2
JOB_TYPE  =  SP
METHOD  =  B3LYP
SOLVENT_METHOD = COSMO
$end
$solvent
dielectric 37.219
opticaldielectric 1.43
$end

--------------------------------------------------------------

             Standard Nuclear Orientation (Angstroms)
    I     Atom           X                Y                Z
 ----------------------------------------------------------------
    1      C       2.6902367278    -1.6419324097     0.0000719877
    2      C       3.9918297079    -1.1854272699     0.0001700855
    3      C       4.2555266567     0.2027287485     0.0001640756
    4      C       1.6004764968    -0.7389480501    -0.0000367219
    5      C       1.8662062178     0.6635071462    -0.0000575537
    6      C       3.2061493791     1.1015406611     0.0000582680
    7      C       0.2449357331    -1.2432851928    -0.0001394363
    8      C      -0.8262356127    -0.2710583054    -0.0000645096
    9      C      -0.5821900523     1.1341740143    -0.0001004362
   10      C       0.7862547855     1.6603534854    -0.0000938173
   11      C      -2.1669844614    -0.7302293906     0.0000106524
   12      C      -3.2253947106     0.1716667652     0.0000985964
   13      C      -1.6756395406     2.0193165846    -0.0000507570
   14      C      -2.9796499414     1.5502305518     0.0000539341
   15      O      -0.0118828683    -2.5048434538    -0.0002580704
   16      O       1.0255084365     2.8886982678    -0.0001342880
   17      O      -2.4698190924    -2.0546777316    -0.0000088592
   18      H       2.4635953924    -2.7016369350     0.0000235207
   19      H       4.8158747336    -1.8928378204     0.0002442326
   20      H       5.2807685668     0.5602048094     0.0002897243
   21      H       3.3782445069     2.1718063260     0.0001390355
   22      H      -1.5548325300    -2.5107245561    -0.0001486989
   23      O      -4.5150179508    -0.3069542968     0.0002168753
   24      H      -1.4644354961     3.0815098897    -0.0000075800
   25      H      -3.8247793155     2.2302253685     0.0001448547
   26      H      -4.4378723709    -1.2721533995     0.0002834441
 ----------------------------------------------------------------

    9    -839.5380340557      6.99e-06  Convergence criterion met
 Total energy in the final basis set =     -839.5380340557
    4    -839.6167154620      9.05e-06  Convergence criterion met
 Total energy in the final basis set =     -839.6167154620

                    Orbital Energies (a.u.)
 --------------------------------------------------------------

 Alpha MOs
 -- Occupied --
-19.1568 -19.1398 -19.0955 -19.0842 -10.2352 -10.2345 -10.2339 -10.2331
-10.1817 -10.1787 -10.1769 -10.1766 -10.1756 -10.1750 -10.1741 -10.1731
-10.1725 -10.1717  -1.0765  -1.0491  -1.0126  -1.0074  -0.8662  -0.8521
 -0.7898  -0.7560  -0.7458  -0.7423  -0.6753  -0.6494  -0.6314  -0.6038
 -0.5723  -0.5551  -0.5377  -0.5183  -0.5010  -0.4874  -0.4700  -0.4520
 -0.4467  -0.4391  -0.4287  -0.4251  -0.4179  -0.4165  -0.4088  -0.3994
 -0.3929  -0.3742  -0.3693  -0.3615  -0.3560  -0.3553  -0.3399  -0.3269
 -0.2730  -0.2650  -0.2615  -0.2473  -0.2473  -0.2254  -0.1479

 Beta MOs
 -- Occupied --
-19.1565 -19.1394 -19.0903 -19.0795 -10.2346 -10.2325 -10.2325 -10.2315
-10.1818 -10.1783 -10.1762 -10.1758 -10.1749 -10.1748 -10.1733 -10.1727
-10.1726 -10.1715  -1.0755  -1.0475  -1.0045  -0.9988  -0.8636  -0.8509
 -0.7860  -0.7532  -0.7441  -0.7404  -0.6682  -0.6478  -0.6288  -0.6025
 -0.5703  -0.5542  -0.5357  -0.5171  -0.4991  -0.4850  -0.4683  -0.4510
 -0.4400  -0.4374  -0.4276  -0.4221  -0.4156  -0.4069  -0.4056  -0.3985
 -0.3772  -0.3731  -0.3618  -0.3607  -0.3547  -0.3467  -0.3387  -0.3174
 -0.2608  -0.2561  -0.2544  -0.2430  -0.2430  -0.2165

          Ground-State Mulliken Net Atomic Charges

     Atom                 Charge (a.u.)    Spin (a.u.)
  --------------------------------------------------------
      1 C                     0.072294       0.063374
      2 C                    -0.472336       0.011291
      3 C                    -0.508516       0.070515
      4 C                     0.144006      -0.006029
      5 C                    -0.099165       0.055581
      6 C                     0.077648       0.003598
      7 C                    -0.350593       0.182152
      8 C                     0.559397      -0.024972
      9 C                     0.460970       0.033483
     10 C                    -0.417454       0.077841
     11 C                    -0.131028       0.066724
     12 C                    -0.367230       0.044936
     13 C                    -0.007741       0.034996
     14 C                    -0.050259       0.027781
     15 O                    -0.532625       0.184011
     16 O                    -0.478343       0.170865
     17 O                    -0.490945       0.014483
     18 H                     0.185082      -0.002369
     19 H                     0.204519      -0.001597
     20 H                     0.203558      -0.005180
     21 H                     0.177354       0.000186
     22 H                     0.413521      -0.004155
     23 O                    -0.331158       0.007601
     24 H                     0.179585      -0.002279
     25 H                     0.232891      -0.002623
     26 H                     0.326567      -0.000215
  --------------------------------------------------------
  Sum of atomic charges =    -1.000000

                    Cartesian Multipole Moments
 -----------------------------------------------------------------
    Charge (ESU x 10^10)
                -4.8032
    Dipole Moment (Debye)
         X       1.3476      Y      -1.7368      Z       0.0002
       Tot       2.1983
    Quadrupole Moments (Debye-Ang)
        XX    -117.1475     XY      -8.0145     YY    -134.6261
        XZ       0.0023     YZ      -0.0009     ZZ    -110.1878

 Total job time:  83.19s(wall), 614.30s(cpu)
        *  Thank you very much for using Q-Chem.  Have a nice day.  *
