 Q-Chem 5.4, Q-Chem, Inc., Pleasanton, CA (2021)
 Q-Chem 5.4.0 for Intel X86 EM64T Linux

User input:
--------------------------------------------------------------
$molecule
-1 2
C                 -1.2379970000      2.7334090000     -0.5181290000
C                 -2.5151820000      2.2073740000     -0.4572760000
C                 -2.7162120000      0.8929190000      0.0114110000
C                 -0.1166310000      1.9757660000     -0.1168420000
C                 -0.3221120000      0.6504120000      0.3562260000
C                 -1.6300260000      0.1335400000      0.4097690000
C                  1.2195640000      2.5789500000     -0.2015630000
C                  2.3107180000      1.7220200000      0.2353380000
C                  2.1099930000      0.4334290000      0.6917260000
C                  0.8147610000     -0.1810640000      0.7862250000
O                  1.4028510000      3.7514500000     -0.6195010000
O                  0.6585650000     -1.3582720000      1.2073510000
H                 -1.0570530000      3.7410340000     -0.8748540000
H                 -1.7493620000     -0.8804420000      0.7752090000
O                  3.5399880000      2.3312850000      0.1606080000
H                 -3.3651680000      2.8069910000     -0.7709440000
H                 -3.7196180000      0.4797370000      0.0592070000
H                  2.9354080000     -0.1933450000      1.0063200000
C                  4.7289380000      1.6097160000      0.4765090000
C                  5.7815690000      2.6666050000      0.7977900000
C                  5.1503590000      0.7093190000     -0.6877900000
H                  4.5598200000      0.9983400000      1.3716560000
H                  6.7341510000      2.1944430000      1.0582190000
H                  5.4541460000      3.2858520000      1.6357710000
H                  5.9367060000      3.3185160000     -0.0663720000
H                  6.0548150000      0.1474020000     -0.4313240000
H                  5.3569340000      1.3192900000     -1.5722390000
H                  4.3622820000     -0.0023630000     -0.9381520000
$end
$rem
MAX_SCF_CYCLES=200
BASIS  =  6-311++G(d,p)
GUI  =  2
JOB_TYPE  =  SP
METHOD  =  B3LYP
SOLVENT_METHOD = PCM
$end
$pcm
theory = CPCM
$end
$solvent
dielectric 37.219
opticaldielectric 1.43
$end

--------------------------------------------------------------

             Standard Nuclear Orientation (Angstroms)
    I     Atom           X                Y                Z
 ----------------------------------------------------------------
    1      C      -1.2379970000     2.7334090000    -0.5181290000
    2      C      -2.5151820000     2.2073740000    -0.4572760000
    3      C      -2.7162120000     0.8929190000     0.0114110000
    4      C      -0.1166310000     1.9757660000    -0.1168420000
    5      C      -0.3221120000     0.6504120000     0.3562260000
    6      C      -1.6300260000     0.1335400000     0.4097690000
    7      C       1.2195640000     2.5789500000    -0.2015630000
    8      C       2.3107180000     1.7220200000     0.2353380000
    9      C       2.1099930000     0.4334290000     0.6917260000
   10      C       0.8147610000    -0.1810640000     0.7862250000
   11      O       1.4028510000     3.7514500000    -0.6195010000
   12      O       0.6585650000    -1.3582720000     1.2073510000
   13      H      -1.0570530000     3.7410340000    -0.8748540000
   14      H      -1.7493620000    -0.8804420000     0.7752090000
   15      O       3.5399880000     2.3312850000     0.1606080000
   16      H      -3.3651680000     2.8069910000    -0.7709440000
   17      H      -3.7196180000     0.4797370000     0.0592070000
   18      H       2.9354080000    -0.1933450000     1.0063200000
   19      C       4.7289380000     1.6097160000     0.4765090000
   20      C       5.7815690000     2.6666050000     0.7977900000
   21      C       5.1503590000     0.7093190000    -0.6877900000
   22      H       4.5598200000     0.9983400000     1.3716560000
   23      H       6.7341510000     2.1944430000     1.0582190000
   24      H       5.4541460000     3.2858520000     1.6357710000
   25      H       5.9367060000     3.3185160000    -0.0663720000
   26      H       6.0548150000     0.1474020000    -0.4313240000
   27      H       5.3569340000     1.3192900000    -1.5722390000
   28      H       4.3622820000    -0.0023630000    -0.9381520000
 ----------------------------------------------------------------

    9    -728.6299117098      4.19e-06  Convergence criterion met
 Total energy in the final basis set =     -728.6299117098

                    Orbital Energies (a.u.)
 --------------------------------------------------------------

 Alpha MOs
 -- Occupied --
-19.1483 -19.0786 -19.0751 -10.2287 -10.2254 -10.2247 -10.2228 -10.1736
-10.1715 -10.1714 -10.1706 -10.1690 -10.1687 -10.1563 -10.1556 -10.1551
 -1.0646  -1.0012  -0.9992  -0.8572  -0.8090  -0.7787  -0.7496  -0.7336
 -0.6887  -0.6785  -0.6266  -0.6177  -0.5761  -0.5617  -0.5230  -0.5127
 -0.4917  -0.4628  -0.4587  -0.4435  -0.4355  -0.4233  -0.4193  -0.4150
 -0.4062  -0.3978  -0.3893  -0.3857  -0.3816  -0.3717  -0.3623  -0.3514
 -0.3501  -0.3383  -0.3246  -0.3175  -0.2658  -0.2566  -0.2480  -0.2408
 -0.2349  -0.1498

 Beta MOs
 -- Occupied --
-19.1474 -19.0722 -19.0700 -10.2271 -10.2255 -10.2232 -10.2204 -10.1733
-10.1713 -10.1706 -10.1700 -10.1691 -10.1684 -10.1557 -10.1556 -10.1550
 -1.0624  -0.9911  -0.9888  -0.8550  -0.8054  -0.7770  -0.7476  -0.7318
 -0.6885  -0.6702  -0.6243  -0.6160  -0.5740  -0.5593  -0.5215  -0.5108
 -0.4891  -0.4603  -0.4566  -0.4415  -0.4335  -0.4225  -0.4125  -0.4079
 -0.4004  -0.3956  -0.3887  -0.3843  -0.3731  -0.3633  -0.3529  -0.3489
 -0.3445  -0.3372  -0.3210  -0.3094  -0.2499  -0.2469  -0.2425  -0.2356
 -0.2261

          Ground-State Mulliken Net Atomic Charges

     Atom                 Charge (a.u.)    Spin (a.u.)
  --------------------------------------------------------
      1 C                     0.168296       0.066084
      2 C                    -0.454069       0.008294
      3 C                    -0.387619       0.053142
      4 C                     0.121423      -0.002637
      5 C                     0.475108       0.058321
      6 C                     0.115352       0.008814
      7 C                    -0.394643       0.141131
      8 C                    -0.417638       0.131971
      9 C                    -0.005443       0.010707
     10 C                    -0.229022       0.085214
     11 O                    -0.512997       0.245998
     12 O                    -0.513289       0.185537
     13 H                     0.167101      -0.003557
     14 H                     0.164028      -0.000889
     15 O                    -0.072658       0.018644
     16 H                     0.198002      -0.001356
     17 H                     0.198046      -0.003731
     18 H                     0.240251      -0.006106
     19 C                    -0.007083       0.001975
     20 C                    -0.533047       0.000296
     21 C                    -0.419229       0.001718
     22 H                     0.147100       0.000300
     23 H                     0.168294      -0.000052
     24 H                     0.159396       0.000131
     25 H                     0.153019       0.000007
     26 H                     0.156536       0.001093
     27 H                     0.170273       0.000127
     28 H                     0.144511      -0.001175
  --------------------------------------------------------
  Sum of atomic charges =    -1.000000

                    Cartesian Multipole Moments
 -----------------------------------------------------------------
    Charge (ESU x 10^10)
                -4.8032
    Dipole Moment (Debye)
         X      -3.2749      Y      -6.8913      Z      -0.9799
       Tot       7.6925
    Quadrupole Moments (Debye-Ang)
        XX     -86.0993     XY     -13.9294     YY    -143.7177
        XZ       3.9146     YZ      10.1068     ZZ    -104.0835

 Total job time:  85.33s(wall), 379.58s(cpu)
        *  Thank you very much for using Q-Chem.  Have a nice day.  *
