 Q-Chem 5.4, Q-Chem, Inc., Pleasanton, CA (2021)
 Q-Chem 5.4.0 for Intel X86 EM64T Linux

User input:
--------------------------------------------------------------
$molecule
0 1
C                  1.7060970000      1.4281280000     -0.5486290000
C                  0.3233550000      1.8574960000     -0.1717500000
C                 -0.5871900000      0.9343730000      0.1997260000
C                 -0.2153590000     -0.5136010000      0.2830720000
C                  1.1371160000     -0.9551350000     -0.1303310000
C                  2.0649950000     -0.0358570000     -0.5095560000
O                  2.5406760000      2.2387650000     -0.9011110000
O                 -1.0268850000     -1.3248050000      0.7098400000
O                  3.3407390000     -0.2239480000     -0.8578340000
C                  3.8837970000     -1.5205390000     -1.1470150000
C                  0.0443050000      3.3360360000     -0.2507060000
C                 -2.0038470000      1.2471300000      0.5838240000
H                  4.8902890000     -1.3195430000     -1.5102680000
H                  3.3031690000     -2.0177270000     -1.9274400000
H                  3.9160610000     -2.1452720000     -0.2563480000
O                  1.4658320000     -2.2691800000      0.0358450000
C                  0.7155380000     -3.2460100000     -0.7079970000
H                  1.1683520000     -4.2071240000     -0.4680580000
H                  0.8095310000     -3.0562030000     -1.7832080000
H                 -0.3322520000     -3.2428880000     -0.4125640000
H                  0.9496980000      3.8737960000     -0.5258270000
H                 -0.3128620000      3.7227670000      0.7073630000
H                 -0.7231770000      3.5529030000     -0.9996930000
H                 -2.2262990000      2.3084970000      0.4927670000
H                 -2.1986130000      0.9299420000      1.6121600000
H                 -2.7021460000      0.6842600000     -0.0419310000
$end
$rem
MAX_SCF_CYCLES=200
BASIS  =  6-311++G(d,p)
GUI  =  2
JOB_TYPE  =  SP
METHOD  =  B3LYP
SOLVENT_METHOD = COSMO
$end
$solvent
dielectric 37.219
opticaldielectric 1.43
$end

--------------------------------------------------------------

             Standard Nuclear Orientation (Angstroms)
    I     Atom           X                Y                Z
 ----------------------------------------------------------------
    1      C      -0.6889661253    -1.4701802610     0.0059416494
    2      C      -1.8694915316    -0.5520479985     0.0479298902
    3      C      -1.6828379242     0.7826006786    -0.0078915062
    4      C      -0.3074252051     1.3550106263    -0.1576254602
    5      C       0.8716060876     0.4578355569    -0.1553794483
    6      C       0.6989560442    -0.8899979721    -0.0972432176
    7      O      -0.8293264896    -2.6760618975     0.0695534425
    8      O      -0.1649427737     2.5626851048    -0.2989704807
    9      O       1.6186693719    -1.8576662389    -0.1413347534
   10      C       3.0228674738    -1.6019514772     0.0087436086
   11      C      -3.2185686459    -1.2127310119     0.1648588413
   12      C      -2.7884007547     1.7963260795     0.0406565090
   13      H       3.4771294222    -2.5906106044     0.0484612670
   14      H       3.2212498034    -1.0679175455     0.9408595743
   15      H       3.4152937470    -1.0340353706    -0.8327389568
   16      O       2.1012248249     1.0075472377    -0.3750104174
   17      C       2.5900214403     1.9598807257     0.5865391927
   18      H       3.5902991460     2.2285116578     0.2494438100
   19      H       2.6505818513     1.4982298797     1.5785830470
   20      H       1.9565728135     2.8446982612     0.6180836789
   21      H      -3.1086387204    -2.2953069906     0.1412256363
   22      H      -3.8784832121    -0.9118020542    -0.6530530541
   23      H      -3.7113837449    -0.9394478805     1.1026706830
   24      H      -3.7640173092     1.3302428477     0.1640053551
   25      H      -2.7944442150     2.3974425297    -0.8729295246
   26      H      -2.6257242041     2.4994919414     0.8623058021
 ----------------------------------------------------------------

    9    -689.3260716757      6.62e-06  Convergence criterion met
 Total energy in the final basis set =     -689.3260716757
    5    -689.3425745330      3.74e-06  Convergence criterion met
 Total energy in the final basis set =     -689.3425745330

                    Orbital Energies (a.u.)
 --------------------------------------------------------------

 Alpha MOs
 -- Occupied --
-19.1798 -19.1596 -19.1413 -19.1338 -10.2885 -10.2819 -10.2671 -10.2510
-10.2238 -10.2171 -10.2109 -10.2098 -10.1717 -10.1698  -1.1049  -1.0814
 -1.0690  -1.0554  -0.8620  -0.8080  -0.7503  -0.7421  -0.7141  -0.6718
 -0.6638  -0.5981  -0.5920  -0.5548  -0.5327  -0.5147  -0.4964  -0.4775
 -0.4675  -0.4643  -0.4544  -0.4499  -0.4428  -0.4273  -0.4175  -0.4133
 -0.4089  -0.3975  -0.3910  -0.3804  -0.3705  -0.3589  -0.3555  -0.3175
 -0.2886  -0.2864  -0.2735  -0.2436

          Ground-State Mulliken Net Atomic Charges

     Atom                 Charge (a.u.)
  ----------------------------------------
      1 C                    -0.918149
      2 C                     0.629761
      3 C                     0.785515
      4 C                    -0.554359
      5 C                     0.292286
      6 C                     0.185012
      7 O                    -0.300115
      8 O                    -0.319114
      9 O                    -0.212718
     10 C                    -0.304009
     11 C                    -0.493826
     12 C                    -0.501764
     13 H                     0.205839
     14 H                     0.190028
     15 H                     0.202481
     16 O                    -0.230334
     17 C                    -0.316479
     18 H                     0.180111
     19 H                     0.156993
     20 H                     0.174724
     21 H                     0.190630
     22 H                     0.190423
     23 H                     0.196241
     24 H                     0.177868
     25 H                     0.200420
     26 H                     0.192533
  ----------------------------------------
  Sum of atomic charges =     0.000000

                    Cartesian Multipole Moments
 -----------------------------------------------------------------
    Charge (ESU x 10^10)
                 0.0000
    Dipole Moment (Debye)
         X       0.6457      Y       1.5398      Z       2.0506
       Tot       2.6444
    Quadrupole Moments (Debye-Ang)
        XX     -60.3479     XY      -3.2943     YY    -101.6160
        XZ       3.6185     YZ       3.6550     ZZ     -81.5373

 Total job time:  79.41s(wall), 268.53s(cpu)
        *  Thank you very much for using Q-Chem.  Have a nice day.  *
