 Q-Chem 5.4, Q-Chem, Inc., Pleasanton, CA (2021)
 Q-Chem 5.4.0 for Intel X86 EM64T Linux

User input:
--------------------------------------------------------------
$molecule
-2 1
O                 -0.0512010000     -1.1933200000      1.2841520000
C                 -0.4564080000     -0.3763240000      0.3812300000
C                 -1.9316230000     -0.2347830000      0.2173940000
C                 -2.7489750000     -1.0316910000      1.0635840000
C                 -4.1361220000     -0.9865160000      1.0064890000
C                 -4.7901020000     -0.1517050000      0.0900450000
C                 -4.0032790000      0.6321670000     -0.7641000000
C                 -2.6111630000      0.5954060000     -0.7129310000
C                  0.4564360000      0.3763170000     -0.4818120000
O                  0.0512640000      1.1935110000     -1.3845760000
C                  1.9316260000      0.2348040000     -0.3179100000
C                  2.7490120000      1.0317200000     -1.1640610000
C                  4.1361550000      0.9865040000     -1.1069390000
C                  4.7900890000      0.1516520000     -0.1904980000
C                  4.0032270000     -0.6322180000      0.6636180000
C                  2.6111160000     -0.5954130000      0.6124300000
H                 -2.2353150000     -1.6825550000      1.7616280000
H                 -4.7229730000     -1.6088700000      1.6810270000
H                 -5.8768810000     -0.1077050000      0.0499650000
H                 -4.4877840000      1.2874820000     -1.4864050000
H                 -2.0081830000      1.1948530000     -1.3803050000
H                  2.2353760000      1.6826010000     -1.8621080000
H                  4.7230390000      1.6088580000     -1.7814500000
H                  5.8768640000      0.1076180000     -0.1503960000
H                  4.4877050000     -1.2875530000      1.3859240000
H                  2.0081020000     -1.1948400000      1.2797900000
$end
$rem
MAX_SCF_CYCLES=200
BASIS  =  6-311++G(d,p)
GUI  =  2
JOB_TYPE  =  SP
METHOD  =  B3LYP
SOLVENT_METHOD = COSMO
$end
$solvent
dielectric 37.219
opticaldielectric 1.43
$end

--------------------------------------------------------------

             Standard Nuclear Orientation (Angstroms)
    I     Atom           X                Y                Z
 ----------------------------------------------------------------
    1      O      -0.2152430468    -1.7778563922     0.0124932097
    2      C      -0.5069814260    -0.5281236171     0.0126481799
    3      C      -1.9561132376    -0.1771928856     0.0126557096
    4      C      -2.8767519318    -1.2594243643    -0.0064123171
    5      C      -4.2513855299    -1.0597749464    -0.0064040222
    6      C      -4.7888131859     0.2346801021    -0.0012568815
    7      C      -3.8988899564     1.3168670732     0.0029182806
    8      C      -2.5183787943     1.1267603442     0.0051449717
    9      C       0.5070073280     0.5281797078    -0.0127335002
   10      O       0.2153061532     1.7779250744    -0.0123258438
   11      C       1.9561117126     0.1772212916    -0.0126758660
   12      C       2.8767822175     1.2594262210     0.0064241640
   13      C       4.2514074260     1.0597298326     0.0064036466
   14      C       4.7887868390    -0.2347461948     0.0012242803
   15      C       3.8988268061    -1.3169068501    -0.0029687423
   16      C       2.5183246971    -1.1267571396    -0.0051756184
   17      H      -2.4528977889    -2.2568490642    -0.0214987885
   18      H      -4.9200159019    -1.9197860207    -0.0122767308
   19      H      -5.8655406673     0.3934205916     0.0082504367
   20      H      -4.2918340438     2.3324941521     0.0049027134
   21      H      -1.8356296516     1.9646881662    -0.0011965928
   22      H       2.4529532623     2.2568622988     0.0215211292
   23      H       4.9200688865     1.9197179549     0.0122943752
   24      H       5.8655067087    -0.3935252847    -0.0082934333
   25      H       4.2917426569    -2.3325455617    -0.0049672242
   26      H       1.8355439021    -1.9646581376     0.0011714781
 ----------------------------------------------------------------

   21    -690.0895579924      5.97e-06  Convergence criterion met
 Total energy in the final basis set =     -690.0895579924
    6    -690.3616201575      3.78e-06  Convergence criterion met
 Total energy in the final basis set =     -690.3616201575

                    Orbital Energies (a.u.)
 --------------------------------------------------------------

 Alpha MOs
 -- Occupied --
-19.0117 -19.0117 -10.1628 -10.1624 -10.1538 -10.1538 -10.1524 -10.1523
-10.1488 -10.1488 -10.1462 -10.1462 -10.1405 -10.1404 -10.1386 -10.1386
 -0.9432  -0.9253  -0.8273  -0.8252  -0.7258  -0.7228  -0.7201  -0.7191
 -0.6277  -0.5925  -0.5801  -0.5729  -0.5502  -0.5132  -0.4875  -0.4551
 -0.4433  -0.4227  -0.4168  -0.4158  -0.3968  -0.3947  -0.3804  -0.3802
 -0.3694  -0.3514  -0.3501  -0.3350  -0.3239  -0.3142  -0.3105  -0.3073
 -0.2847  -0.2373  -0.2366  -0.2279  -0.2209  -0.2147  -0.1717  -0.0995

          Ground-State Mulliken Net Atomic Charges

     Atom                 Charge (a.u.)
  ----------------------------------------
      1 O                    -0.674575
      2 C                    -0.351414
      3 C                     1.455089
      4 C                     0.291313
      5 C                    -0.369801
      6 C                    -0.554230
      7 C                    -0.456486
      8 C                    -1.226682
      9 C                    -0.352907
     10 O                    -0.672084
     11 C                     1.454631
     12 C                     0.293143
     13 C                    -0.369756
     14 C                    -0.553938
     15 C                    -0.456328
     16 C                    -1.228382
     17 H                     0.168327
     18 H                     0.187774
     19 H                     0.164641
     20 H                     0.198121
     21 H                     0.167422
     22 H                     0.168225
     23 H                     0.187805
     24 H                     0.164698
     25 H                     0.198188
     26 H                     0.167205
  ----------------------------------------
  Sum of atomic charges =    -2.000000

                    Cartesian Multipole Moments
 -----------------------------------------------------------------
    Charge (ESU x 10^10)
                -9.6064
    Dipole Moment (Debye)
         X       0.0132      Y       0.0090      Z      -0.0001
       Tot       0.0160
    Quadrupole Moments (Debye-Ang)
        XX    -132.5807     XY      -2.1834     YY    -122.4833
        XZ       0.0046     YZ       0.2637     ZZ    -108.9617

 Total job time:  76.29s(wall), 585.29s(cpu)
        *  Thank you very much for using Q-Chem.  Have a nice day.  *
