 Gaussian 16, Revision A.03,
 Gaussian 16:  ES64L-G16RevA.03 25-Dec-2016

 ----------------------------------------------------------------------
 #P UB3LYP/6-311++G(d,p) nosym opt freq SCRF=(PCM,Solvent=n,n-DiMethylF
 ormamide)
 ----------------------------------------------------------------------

 -------
 Reduced
 -------
 Symbolic Z-matrix:
 Charge = -2 Multiplicity = 1

 SCF Done:  E(UB3LYP) =  -798.984130619     A.U. after   19 cycles
 SCF Done:  E(UB3LYP) =  -798.983978409     A.U. after   15 cycles
 SCF Done:  E(UB3LYP) =  -798.983992806     A.U. after   15 cycles
 SCF Done:  E(UB3LYP) =  -798.985552595     A.U. after   13 cycles
 SCF Done:  E(UB3LYP) =  -798.986133516     A.U. after   14 cycles
 SCF Done:  E(UB3LYP) =  -798.986284362     A.U. after   13 cycles
 SCF Done:  E(UB3LYP) =  -798.986383666     A.U. after   12 cycles
 SCF Done:  E(UB3LYP) =  -798.986418945     A.U. after   12 cycles
 SCF Done:  E(UB3LYP) =  -798.986427860     A.U. after   12 cycles
 SCF Done:  E(UB3LYP) =  -798.986429377     A.U. after   11 cycles
 SCF Done:  E(UB3LYP) =  -798.986429642     A.U. after   10 cycles
 Optimization completed.
    -- Stationary point found.
 Normal termination of Gaussian 16 at Sun Feb 11 02:53:47 2024.

 ----------------------------------------------------------------------
 #P Geom=AllCheck Guess=TCheck SCRF=Check GenChk UB3LYP/6-311++G(d,p) F
 req
 ----------------------------------------------------------------------

 Structure from the checkpoint file:  "271-an.chk"
 -------
 Reduced
 -------
 Charge = -2 Multiplicity = 1

                          Input orientation:
 ---------------------------------------------------------------------
 Center     Atomic      Atomic             Coordinates (Angstroms)
 Number     Number       Type             X           Y           Z
 ---------------------------------------------------------------------
      1          6           0       -0.968941    3.931715    0.028524
      2          6           0       -2.146259    3.235076    0.199587
      3          6           0       -2.137633    1.815016    0.190975
      4          6           0        0.280896    3.275674   -0.157208
      5          6           0        0.286549    1.826203   -0.160958
      6          6           0       -0.944688    1.143910    0.013110
      7          6           0        1.482240    4.037251   -0.346036
      8          6           0        2.679139    3.294992   -0.514881
      9          6           0        2.688251    1.880676   -0.453188
     10          6           0        1.512724    1.093425   -0.329527
     11          8           0        1.506099    5.355371   -0.384842
     12          8           0        1.576026   -0.214802   -0.386255
     13          7           0        3.841007    4.035996   -0.828405
     14          1           0       -0.966031    5.016294    0.031001
     15          1           0       -3.081080    3.769800    0.340466
     16          1           0       -3.063315    1.263843    0.325094
     17          1           0       -0.920399    0.059371    0.007016
     18          1           0        3.638451    5.014647   -0.638799
     19          1           0        4.661251    3.705819   -0.325506
     20          7           0        3.851787    1.080948   -0.665059
     21          6           0        5.100293    1.183877   -0.159960
     22          6           0        6.027549    0.024832   -0.477063
     23          1           0        3.555951    0.146398   -0.944263
     24          1           0        5.532238   -0.797887   -0.994580
     25          1           0        6.461806   -0.344921    0.454494
     26          1           0        6.848952    0.386502   -1.101396
     27          8           0        5.514613    2.149211    0.505190
 ---------------------------------------------------------------------

 SCF Done:  E(UB3LYP) =  -798.986429642     A.U. after    1 cycles

 Alpha  occ. eigenvalues --  -19.08376 -19.02516 -19.01466 -14.33011 -14.27500
 Alpha  occ. eigenvalues --  -10.26743 -10.17538 -10.16640 -10.16572 -10.16352
 Alpha  occ. eigenvalues --  -10.16271 -10.14778 -10.14660 -10.14548 -10.14412
 Alpha  occ. eigenvalues --  -10.13748 -10.13693  -1.02858  -0.94550  -0.92521
 Alpha  occ. eigenvalues --   -0.90565  -0.86182  -0.82360  -0.76193  -0.73497
 Alpha  occ. eigenvalues --   -0.72201  -0.69105  -0.64572  -0.60651  -0.58443
 Alpha  occ. eigenvalues --   -0.55456  -0.53476  -0.50617  -0.48915  -0.47136
 Alpha  occ. eigenvalues --   -0.46971  -0.44364  -0.43629  -0.41831  -0.41375
 Alpha  occ. eigenvalues --   -0.40113  -0.39904  -0.39373  -0.38789  -0.37838
 Alpha  occ. eigenvalues --   -0.36243  -0.35814  -0.34556  -0.33295  -0.32295
 Alpha  occ. eigenvalues --   -0.32046  -0.30269  -0.28144  -0.26906  -0.25749
 Alpha  occ. eigenvalues --   -0.22821  -0.22149  -0.20915  -0.19797  -0.18174
 Alpha  occ. eigenvalues --   -0.11212
 Alpha virt. eigenvalues --   -0.00953  -0.00263   0.00607   0.00812   0.01518
 Alpha virt. eigenvalues --    0.02280   0.02887   0.02993   0.04036   0.04397
 Alpha virt. eigenvalues --    0.04804   0.05312   0.05691   0.06330   0.06726

  Beta  occ. eigenvalues --  -19.08376 -19.02516 -19.01466 -14.33011 -14.27500
  Beta  occ. eigenvalues --  -10.26743 -10.17538 -10.16640 -10.16572 -10.16352
  Beta  occ. eigenvalues --  -10.16271 -10.14778 -10.14660 -10.14548 -10.14412
  Beta  occ. eigenvalues --  -10.13748 -10.13693  -1.02858  -0.94550  -0.92521
  Beta  occ. eigenvalues --   -0.90565  -0.86182  -0.82360  -0.76193  -0.73497
  Beta  occ. eigenvalues --   -0.72201  -0.69105  -0.64572  -0.60651  -0.58443
  Beta  occ. eigenvalues --   -0.55456  -0.53476  -0.50617  -0.48915  -0.47136
  Beta  occ. eigenvalues --   -0.46971  -0.44364  -0.43629  -0.41831  -0.41375
  Beta  occ. eigenvalues --   -0.40113  -0.39904  -0.39373  -0.38789  -0.37838
  Beta  occ. eigenvalues --   -0.36243  -0.35814  -0.34556  -0.33295  -0.32295
  Beta  occ. eigenvalues --   -0.32046  -0.30269  -0.28144  -0.26906  -0.25749
  Beta  occ. eigenvalues --   -0.22821  -0.22149  -0.20915  -0.19797  -0.18174
  Beta  occ. eigenvalues --   -0.11212
  Beta virt. eigenvalues --   -0.00953  -0.00263   0.00607   0.00812   0.01518
  Beta virt. eigenvalues --    0.02280   0.02887   0.02993   0.04036   0.04397
  Beta virt. eigenvalues --    0.04804   0.05312   0.05691   0.06330   0.06726

 Mulliken charges and spin densities:
               1          2
     1  C    0.003273   0.000000
     2  C   -0.352416  -0.000000
     3  C   -0.443058   0.000000
     4  C    0.490967  -0.000000
     5  C    0.058350   0.000000
     6  C   -0.041332   0.000000
     7  C   -0.779689   0.000000
     8  C    0.288728  -0.000000
     9  C    0.419182  -0.000000
    10  C   -0.809273  -0.000000
    11  O   -0.730112  -0.000000
    12  O   -0.681521   0.000000
    13  N   -0.498954   0.000000
    14  H    0.142423   0.000000
    15  H    0.153668   0.000000
    16  H    0.154075  -0.000000
    17  H    0.144720   0.000000
    18  H    0.276094  -0.000000
    19  H    0.271622   0.000000
    20  N   -0.045090  -0.000000
    21  C    0.237392   0.000000
    22  C   -0.564983  -0.000000
    23  H    0.316025  -0.000000
    24  H    0.137732  -0.000000
    25  H    0.174017  -0.000000
    26  H    0.178797   0.000000
    27  O   -0.500636  -0.000000
 Sum of Mulliken charges =  -2.00000  -0.00000

 Dipole moment (field-independent basis, Debye):
    X=            -15.4436    Y=            -28.0814    Z=              2.0515  Tot=             32.1135
 Quadrupole moment (field-independent basis, Debye-Ang):
   XX=           -158.8010   YY=           -234.5537   ZZ=           -114.9976
   XY=            -53.1194   XZ=             -1.2207   YZ=              9.8975

  Exact polarizability: 457.937  -0.991 320.951 -25.590   2.531 166.785
 Approx polarizability: 489.728  12.607 367.305 -26.648   4.928 184.532

                      1                      2                      3
                      A                      A                      A
 Frequencies --     52.1111                69.1416                96.4378
 Red. masses --      5.9285                 3.8092                 1.2525
 Frc consts  --      0.0095                 0.0107                 0.0069
 IR Inten    --      3.8645                13.7886                 0.4378

                      4                      5                      6
                      A                      A                      A
 Frequencies --    104.2728               128.9925               154.2403
 Red. masses --      4.1831                 4.4243                 4.8235
 Frc consts  --      0.0268                 0.0434                 0.0676
 IR Inten    --     12.2787                11.0772                 2.5391

                      7                      8                      9
                      A                      A                      A
 Frequencies --    187.2789               217.0636               262.3015
 Red. masses --      6.9961                 5.9276                 6.0770
 Frc consts  --      0.1446                 0.1646                 0.2463
 IR Inten    --      1.7158                10.7274                17.9081

                     10                     11                     12
                      A                      A                      A
 Frequencies --    281.2940               308.5582               339.9927
 Red. masses --      5.3641                 4.5894                 5.0049
 Frc consts  --      0.2501                 0.2574                 0.3409
 IR Inten    --     13.0437                 1.0320                 9.6035

                     13                     14                     15
                      A                      A                      A
 Frequencies --    351.7051               363.8215               392.3947
 Red. masses --      4.4086                 7.2687                 8.0403
 Frc consts  --      0.3213                 0.5669                 0.7294
 IR Inten    --     14.9356                 8.2546                 3.9260

                     16                     17                     18
                      A                      A                      A
 Frequencies --    433.3655               466.7037               481.1505
 Red. masses --      7.0010                 2.6878                 3.9549
 Frc consts  --      0.7747                 0.3449                 0.5394
 IR Inten    --     10.1017                10.6688                 0.4442

                     19                     20                     21
                      A                      A                      A
 Frequencies --    499.0214               522.4652               542.4675
 Red. masses --      1.3833                 6.3947                 3.8106
 Frc consts  --      0.2030                 1.0285                 0.6607
 IR Inten    --    144.9903                15.1415                 7.7302

                     22                     23                     24
                      A                      A                      A
 Frequencies --    585.6767               614.9253               657.3838
 Red. masses --      5.4089                 3.2359                 6.1223
 Frc consts  --      1.0931                 0.7209                 1.5589
 IR Inten    --     56.4387                29.4025                22.8296

                     25                     26                     27
                      A                      A                      A
 Frequencies --    673.4556               690.4275               697.1510
 Red. masses --      3.8811                 3.3972                 1.8224
 Frc consts  --      1.0371                 0.9541                 0.5218
 IR Inten    --     28.3182               103.5096                89.8840

                     28                     29                     30
                      A                      A                      A
 Frequencies --    707.8478               737.7405               762.9097
 Red. masses --      3.1375                 3.8823                 1.9082
 Frc consts  --      0.9262                 1.2449                 0.6544
 IR Inten    --      2.2808                78.0369                42.2575

                     31                     32                     33
                      A                      A                      A
 Frequencies --    777.7309               847.1362               848.3705
 Red. masses --      4.2003                 1.6016                 1.7605
 Frc consts  --      1.4969                 0.6772                 0.7465
 IR Inten    --     20.5788               175.1890               419.1569

                     34                     35                     36
                      A                      A                      A
 Frequencies --    872.0846               912.2390               967.2976
 Red. masses --      3.3471                 3.6131                 1.3486
 Frc consts  --      1.4998                 1.7715                 0.7434
 IR Inten    --    112.8363                43.8291                 4.3177

                     37                     38                     39
                      A                      A                      A
 Frequencies --    976.6002               998.2405              1015.2534
 Red. masses --      1.2372                 4.6242                 2.1608
 Frc consts  --      0.6952                 2.7149                 1.3122
 IR Inten    --      0.3483                21.1430               104.6126

                     40                     41                     42
                      A                      A                      A
 Frequencies --   1027.6687              1050.5647              1066.3549
 Red. masses --      1.7999                 1.7534                 3.3423
 Frc consts  --      1.1200                 1.1402                 2.2393
 IR Inten    --     41.3655                39.0324               163.4326

                     43                     44                     45
                      A                      A                      A
 Frequencies --   1108.4884              1130.2930              1156.6599
 Red. masses --      2.0473                 1.4792                 3.3983
 Frc consts  --      1.4821                 1.1134                 2.6787
 IR Inten    --     51.3313               129.2472               126.6682

                     46                     47                     48
                      A                      A                      A
 Frequencies --   1184.4731              1205.1205              1261.6609
 Red. masses --      1.8335                 2.0484                 3.0772
 Frc consts  --      1.5156                 1.7528                 2.8860
 IR Inten    --     83.2735               391.9475               119.7369

                     49                     50                     51
                      A                      A                      A
 Frequencies --   1292.7136              1304.6547              1325.1866
 Red. masses --      2.2395                 2.2304                 4.8642
 Frc consts  --      2.2050                 2.2368                 5.0329
 IR Inten    --    126.1526                36.5260               365.4155

                     52                     53                     54
                      A                      A                      A
 Frequencies --   1375.5531              1394.7578              1417.5299
 Red. masses --      7.9573                 1.2478                 4.8982
 Frc consts  --      8.8710                 1.4302                 5.7990
 IR Inten    --   1937.6645                14.5525               142.6708

                     55                     56                     57
                      A                      A                      A
 Frequencies --   1439.2599              1459.0786              1463.5845
 Red. masses --      2.7685                 2.6868                 1.0975
 Frc consts  --      3.3789                 3.3701                 1.3852
 IR Inten    --     68.3122                48.7887                11.4281

                     58                     59                     60
                      A                      A                      A
 Frequencies --   1473.8120              1506.0274              1522.5794
 Red. masses --      1.1903                 3.8622                 4.5003
 Frc consts  --      1.5233                 5.1612                 6.1468
 IR Inten    --    146.4647               364.1197               102.1115

                     61                     62                     63
                      A                      A                      A
 Frequencies --   1541.9947              1586.1517              1597.0750
 Red. masses --      2.6750                 1.8432                 2.6138
 Frc consts  --      3.7475                 2.7322                 3.9280
 IR Inten    --    515.0508               153.1547               108.2591

                     64                     65                     66
                      A                      A                      A
 Frequencies --   1604.5227              1646.8549              3037.2921
 Red. masses --      5.1224                 3.6133                 1.0354
 Frc consts  --      7.7700                 5.7738                 5.6275
 IR Inten    --     30.8803               521.5900                33.0982

                     67                     68                     69
                      A                      A                      A
 Frequencies --   3098.8210              3118.8075              3137.4204
 Red. masses --      1.1002                 1.1040                 1.0845
 Frc consts  --      6.2249                 6.3270                 6.2897
 IR Inten    --     15.7010                32.1977                18.1106

                     70                     71                     72
                      A                      A                      A
 Frequencies --   3153.0554              3170.7623              3175.4133
 Red. masses --      1.0887                 1.0911                 1.0934
 Frc consts  --      6.3769                 6.4634                 6.4958
 IR Inten    --     33.4069                50.5880                68.6231

                     73                     74                     75
                      A                      A                      A
 Frequencies --   3436.7558              3458.7489              3531.8647
 Red. masses --      1.0485                 1.0753                 1.0962
 Frc consts  --      7.2968                 7.5789                 8.0566
 IR Inten    --     51.8376               200.8292               182.2140

 - Thermochemistry -
 -------------------
 Temperature   298.150 Kelvin.  Pressure   1.00000 Atm.
 Atom     1 has atomic number  6 and mass  12.00000

 Molecular mass:   230.06914 amu.
 Principal axes and moments of inertia in atomic units:
                           1         2         3
     Eigenvalues --  1967.126335506.350567294.06772
           X            0.96877   0.24207   0.05374
           Y           -0.24355   0.96962   0.02276
           Z           -0.04660  -0.03514   0.99830
 This molecule is an asymmetric top.
 Rotational symmetry number  1.
 Warning -- assumption of classical behavior for rotation
           may cause significant error
 Rotational temperatures (Kelvin)      0.04403     0.01573     0.01187
 Rotational constants (GHZ):           0.91745     0.32776     0.24743
 Zero-point vibrational energy     526708.7 (Joules/Mol)
                                  125.88639 (Kcal/Mol)
 Warning -- explicit consideration of  23 degrees of freedom as
           vibrations may cause significant error
 Vibrational temperatures:     74.98    99.48   138.75   150.03   185.59
          (Kelvin)            221.92   269.45   312.31   377.39   404.72
                              443.95   489.17   506.03   523.46   564.57
                              623.52   671.48   692.27   717.98   751.71
                              780.49   842.66   884.74   945.83   968.95
                              993.37  1003.04  1018.44  1061.44  1097.66
                             1118.98  1218.84  1220.62  1254.74  1312.51
                             1391.73  1405.11  1436.25  1460.72  1478.59
                             1511.53  1534.25  1594.87  1626.24  1664.18
                             1704.19  1733.90  1815.25  1859.93  1877.11
                             1906.65  1979.11  2006.75  2039.51  2070.77
                             2099.29  2105.77  2120.49  2166.84  2190.65
                             2218.59  2282.12  2297.83  2308.55  2369.46
                             4369.99  4458.51  4487.27  4514.05  4536.54
                             4562.02  4568.71  4944.73  4976.37  5081.57

 Zero-point correction=                           0.200613 (Hartree/Particle)
 Thermal correction to Energy=                    0.214978
 Thermal correction to Enthalpy=                  0.215922
 Thermal correction to Gibbs Free Energy=         0.159502
 Sum of electronic and zero-point Energies=           -798.785817
 Sum of electronic and thermal Energies=              -798.771452
 Sum of electronic and thermal Enthalpies=            -798.770508
 Sum of electronic and thermal Free Energies=         -798.826927

                     E (Thermal)             CV                S
                      KCal/Mol        Cal/Mol-Kelvin    Cal/Mol-Kelvin
 Total                  134.901             56.319            118.746
 Electronic               0.000              0.000              0.000
 Translational            0.889              2.981             42.202
 Rotational               0.889              2.981             32.735
 Vibrational            133.123             50.358             43.809
 Vibration     1          0.596              1.977              4.736
 Vibration     2          0.598              1.969              4.178
 Vibration     3          0.603              1.952              3.525
 Vibration     4          0.605              1.946              3.373
 Vibration     5          0.611              1.924              2.961
 Vibration     6          0.620              1.898              2.619
 Vibration     7          0.632              1.857              2.255
 Vibration     8          0.646              1.815              1.983
 Vibration     9          0.670              1.742              1.646
 Vibration    10          0.681              1.708              1.526
 Vibration    11          0.698              1.657              1.370
 Vibration    12          0.720              1.596              1.212
 Vibration    13          0.728              1.572              1.159
 Vibration    14          0.737              1.547              1.106
 Vibration    15          0.760              1.486              0.991
 Vibration    16          0.794              1.398              0.848
 Vibration    17          0.824              1.324              0.747
 Vibration    18          0.837              1.292              0.707
 Vibration    19          0.854              1.252              0.661
 Vibration    20          0.877              1.200              0.604
 Vibration    21          0.898              1.156              0.560
 Vibration    22          0.943              1.062              0.475
 Vibration    23          0.974              1.000              0.425

                           ! Non-Optimized Parameters !
 Normal termination of Gaussian 16 at Sun Feb 11 03:26:36 2024.
