 Q-Chem 5.4, Q-Chem, Inc., Pleasanton, CA (2021)
 Q-Chem 5.4.0 for Intel X86 EM64T Linux

User input:
--------------------------------------------------------------
$molecule
-1 2
C                  2.4861380000     -4.8028150000      2.0561040000
C                  2.4926000000     -3.9294680000      0.8980880000
C                  2.1096820000     -2.6158220000      0.8522560000
C                  1.6438850000     -1.9950020000      2.0934490000
C                  1.6518530000     -2.8647990000      3.2567680000
C                  2.0237890000     -4.1810860000      3.2903600000
O                  2.8550730000     -5.9992290000      1.9985680000
O                  1.2386570000     -0.8107540000      2.1523430000
C                  1.9908560000     -5.0379880000      4.5248320000
C                  2.1457730000     -1.7929470000     -0.4270320000
C                  0.7355280000     -1.3454270000     -0.8602810000
C                  3.1090370000     -0.5951570000     -0.3110870000
N                  2.9712160000     -4.5885750000     -0.3443930000
N                  1.1938270000     -2.2312040000      4.5126710000
H                  2.1113970000     -4.4525190000      5.4381590000
H                  2.7795740000     -5.7886300000      4.4618360000
H                  1.0383000000     -5.5742690000      4.5958710000
H                  2.5332030000     -2.4348430000     -1.2229670000
H                  0.7905510000     -0.8156720000     -1.8178520000
H                  0.2979740000     -0.6807960000     -0.1147000000
H                  0.0769960000     -2.2087590000     -0.9895490000
H                  3.1606450000     -0.0645920000     -1.2683600000
H                  4.1179320000     -0.9317190000     -0.0569480000
H                  2.7685710000      0.0988430000      0.4580710000
O                  4.1673730000     -4.5281740000     -0.5948900000
O                  2.1406860000     -5.1477430000     -1.0473790000
O                  0.0942510000     -2.5566090000      4.9499610000
O                  1.9442520000     -1.4314550000      5.0531410000
$end
$rem
MAX_SCF_CYCLES=200
BASIS  =  6-311++G(d,p)
GUI  =  2
JOB_TYPE  =  SP
METHOD  =  B3LYP
SOLVENT_METHOD = COSMO
$end
$solvent
dielectric 37.219
opticaldielectric 1.43
$end

--------------------------------------------------------------

             Standard Nuclear Orientation (Angstroms)
    I     Atom           X                Y                Z
 ----------------------------------------------------------------
    1      C       0.0372854584    -1.7824832803    -0.0229493316
    2      C      -1.0044803294    -0.7733133489    -0.0141238584
    3      C      -0.8379098504     0.5854369084     0.0069615445
    4      C       0.5297817693     1.1072494136     0.0156634844
    5      C       1.5734638887     0.0972739428    -0.0088025766
    6      C       1.3975181865    -1.2595841496    -0.0162526685
    7      O      -0.2152136187    -3.0099945692    -0.0399827283
    8      O       0.7913624394     2.3314921928     0.0697627560
    9      C       2.5210423946    -2.2580624950    -0.0208446457
   10      C      -2.0085211484     1.5571696719     0.0271664448
   11      C      -2.0427256107     2.3859046755     1.3267041145
   12      C      -2.0246204607     2.4611709472    -1.2212502194
   13      N      -2.3799651740    -1.3347306183    -0.0244408441
   14      N       2.9546049905     0.6273170723    -0.0139332583
   15      H       3.4258797984    -1.8605403466    -0.4842189067
   16      H       2.2006533214    -3.1564506002    -0.5497658553
   17      H       2.7741940962    -2.5573994820     1.0020524009
   18      H      -2.9290126336     0.9674661764     0.0028720637
   19      H      -2.9334860041     3.0238858021     1.3383709203
   20      H      -1.1565936628     3.0168206699     1.4028229400
   21      H      -2.0839769854     1.7326408186     2.2026387070
   22      H      -2.9141872883     3.1006957083    -1.2066508853
   23      H      -2.0555075631     1.8608473960    -2.1346982765
   24      H      -1.1367918418     3.0937323749    -1.2492414640
   25      O      -2.9083797520    -1.5233286322    -1.1118218350
   26      O      -2.9060665102    -1.5698189013     1.0547204657
   27      O       3.6161447609     0.5108044390     1.0131832280
   28      O       3.3648207129     1.1365482948    -1.0470114682
 ----------------------------------------------------------------

   11    -948.0844349338      8.35e-06  Convergence criterion met
 Total energy in the final basis set =     -948.0844349338
    5    -948.1602868806      3.57e-06  Convergence criterion met
 Total energy in the final basis set =     -948.1602868806

                    Orbital Energies (a.u.)
 --------------------------------------------------------------

 Alpha MOs
 -- Occupied --
-19.1845 -19.1844 -19.1825 -19.1815 -19.1058 -19.1032 -14.5702 -14.5681
-10.2571 -10.2559 -10.2355 -10.2335 -10.2110 -10.2087 -10.1884 -10.1715
-10.1543 -10.1543  -1.2580  -1.2552  -1.0844  -1.0815  -1.0352  -1.0320
 -0.8838  -0.8496  -0.7972  -0.7685  -0.7441  -0.6930  -0.6821  -0.6523
 -0.6210  -0.6015  -0.5821  -0.5734  -0.5674  -0.5436  -0.5424  -0.5348
 -0.5298  -0.4966  -0.4541  -0.4524  -0.4493  -0.4374  -0.4294  -0.4230
 -0.4057  -0.4037  -0.3993  -0.3915  -0.3773  -0.3544  -0.3472  -0.3428
 -0.3423  -0.3406  -0.3370  -0.3363  -0.3347  -0.3336  -0.2997  -0.2747
 -0.2717  -0.2637  -0.1884

 Beta MOs
 -- Occupied --
-19.1844 -19.1844 -19.1824 -19.1814 -19.0988 -19.0963 -14.5703 -14.5681
-10.2560 -10.2546 -10.2349 -10.2328 -10.2094 -10.2070 -10.1885 -10.1716
-10.1542 -10.1542  -1.2579  -1.2550  -1.0843  -1.0813  -1.0234  -1.0200
 -0.8787  -0.8478  -0.7955  -0.7650  -0.7407  -0.6889  -0.6818  -0.6486
 -0.6188  -0.6005  -0.5807  -0.5724  -0.5668  -0.5433  -0.5419  -0.5329
 -0.5270  -0.4952  -0.4502  -0.4462  -0.4413  -0.4318  -0.4273  -0.4165
 -0.4012  -0.3972  -0.3917  -0.3835  -0.3702  -0.3531  -0.3456  -0.3424
 -0.3416  -0.3402  -0.3356  -0.3336  -0.3330  -0.3282  -0.2727  -0.2683
 -0.2651  -0.2577

          Ground-State Mulliken Net Atomic Charges

     Atom                 Charge (a.u.)    Spin (a.u.)
  --------------------------------------------------------
      1 C                    -0.645757       0.087378
      2 C                     0.058930       0.047319
      3 C                     1.133495       0.115977
      4 C                    -0.811192       0.097614
      5 C                    -1.314739       0.019974
      6 C                     1.812798       0.121010
      7 O                    -0.427157       0.257058
      8 O                    -0.386167       0.253966
      9 C                    -0.398390      -0.003586
     10 C                    -0.076051      -0.020232
     11 C                    -0.651995       0.009320
     12 C                    -0.670548       0.010699
     13 N                    -0.225525      -0.011119
     14 N                    -0.237545      -0.005870
     15 H                     0.202080       0.001790
     16 H                     0.191110       0.001450
     17 H                     0.228716       0.007493
     18 H                     0.214553      -0.000721
     19 H                     0.165572       0.000587
     20 H                     0.192806      -0.001066
     21 H                     0.149132       0.000332
     22 H                     0.165872       0.000678
     23 H                     0.150270       0.000171
     24 H                     0.190579      -0.001064
     25 O                    -0.005085       0.002126
     26 O                    -0.004124       0.002166
     27 O                    -0.008566       0.003008
     28 O                     0.006930       0.003543
  --------------------------------------------------------
  Sum of atomic charges =    -1.000000

                    Cartesian Multipole Moments
 -----------------------------------------------------------------
    Charge (ESU x 10^10)
                -4.8032
    Dipole Moment (Debye)
         X      -1.5579      Y       1.9638      Z       0.0319
       Tot       2.5069
    Quadrupole Moments (Debye-Ang)
        XX    -140.3141     XY     -27.3524     YY    -139.8255
        XZ      -0.8637     YZ       0.6959     ZZ    -113.7169

 Total job time:  95.25s(wall), 727.37s(cpu)
        *  Thank you very much for using Q-Chem.  Have a nice day.  *
