 Gaussian 16, Revision A.03,
 Gaussian 16:  ES64L-G16RevA.03 25-Dec-2016

 --------------------------------------
 #P UB3LYP/6-311++G(d,p) nosym opt freq
 --------------------------------------

 -------
 Radical
 -------
 Symbolic Z-matrix:
 Charge = -1 Multiplicity = 2

 SCF Done:  E(UB3LYP) =  -613.960963809     A.U. after   24 cycles
 SCF Done:  E(UB3LYP) =  -613.983707701     A.U. after   18 cycles
 SCF Done:  E(UB3LYP) =  -613.986073418     A.U. after   17 cycles
 SCF Done:  E(UB3LYP) =  -613.986167505     A.U. after   13 cycles
 SCF Done:  E(UB3LYP) =  -613.986189945     A.U. after   14 cycles
 SCF Done:  E(UB3LYP) =  -613.986195695     A.U. after   12 cycles
 SCF Done:  E(UB3LYP) =  -613.986215694     A.U. after   12 cycles
 SCF Done:  E(UB3LYP) =  -613.986293409     A.U. after   16 cycles
 SCF Done:  E(UB3LYP) =  -613.986372914     A.U. after   16 cycles
 SCF Done:  E(UB3LYP) =  -613.986564122     A.U. after   15 cycles
 SCF Done:  E(UB3LYP) =  -613.987262563     A.U. after   15 cycles
 SCF Done:  E(UB3LYP) =  -613.987327021     A.U. after   14 cycles
 SCF Done:  E(UB3LYP) =  -613.987338397     A.U. after   13 cycles
 SCF Done:  E(UB3LYP) =  -613.987352135     A.U. after   12 cycles
 SCF Done:  E(UB3LYP) =  -613.987364797     A.U. after   12 cycles
 SCF Done:  E(UB3LYP) =  -613.987391907     A.U. after   13 cycles
 SCF Done:  E(UB3LYP) =  -613.987415380     A.U. after   13 cycles
 SCF Done:  E(UB3LYP) =  -613.987422726     A.U. after   12 cycles
 SCF Done:  E(UB3LYP) =  -613.987422992     A.U. after   10 cycles
 Optimization completed.
    -- Stationary point found.
 Normal termination of Gaussian 16 at Tue Dec 26 21:29:42 2023.

 ----------------------------------------------------------------------
 #P Geom=AllCheck Guess=TCheck SCRF=Check GenChk UB3LYP/6-311++G(d,p) F
 req
 ----------------------------------------------------------------------

 Structure from the checkpoint file:  "242-rad.chk"
 -------
 Radical
 -------
 Charge = -1 Multiplicity = 2

                          Input orientation:
 ---------------------------------------------------------------------
 Center     Atomic      Atomic             Coordinates (Angstroms)
 Number     Number       Type             X           Y           Z
 ---------------------------------------------------------------------
      1          6           0       -4.031082    0.278525    0.272846
      2          6           0       -2.562712    0.006298    0.039996
      3          6           0       -2.159850   -1.053566   -0.805597
      4          6           0       -0.820708   -1.312947   -1.026530
      5          6           0        0.184189   -0.533322   -0.419087
      6          6           0        1.601468   -0.836341   -0.675266
      7          8           0        1.952120   -1.784658   -1.431720
      8          6           0        2.567016    0.013016   -0.011809
      9          6           0        2.167750    1.046774    0.812805
     10          6           0        0.798663    1.381150    1.093196
     11          8           0        0.471437    2.334139    1.852979
     12          6           0       -0.208244    0.532663    0.431122
     13          6           0       -1.580382    0.776829    0.640252
     14          6           0        4.023782   -0.278174   -0.258574
     15          1           0       -4.552593    0.505814   -0.664928
     16          1           0       -4.171347    1.127587    0.946394
     17          1           0       -4.536104   -0.587818    0.717240
     18          1           0       -2.916090   -1.670168   -1.286480
     19          1           0       -0.502521   -2.123205   -1.673164
     20          1           0        2.914050    1.670594    1.299758
     21          1           0       -1.839809    1.601018    1.297129
     22          1           0        4.261530   -0.214998   -1.326204
     23          1           0        4.276714   -1.300333    0.044080
     24          1           0        4.662722    0.421123    0.288285
 ---------------------------------------------------------------------

 SCF Done:  E(UB3LYP) =  -613.987422992     A.U. after    2 cycles

 Alpha  occ. eigenvalues --  -18.93585 -18.93423 -10.08186 -10.08174 -10.06691
 Alpha  occ. eigenvalues --  -10.06076 -10.04965 -10.04431 -10.04142 -10.04042
 Alpha  occ. eigenvalues --  -10.03975 -10.03962 -10.03934 -10.02587  -0.85910
 Alpha  occ. eigenvalues --   -0.85548  -0.73375  -0.68402  -0.65069  -0.62381
 Alpha  occ. eigenvalues --   -0.58772  -0.56700  -0.51970  -0.48965  -0.45801
 Alpha  occ. eigenvalues --   -0.42300  -0.38097  -0.35926  -0.34369  -0.31853
 Alpha  occ. eigenvalues --   -0.31692  -0.30309  -0.29817  -0.29685  -0.27713
 Alpha  occ. eigenvalues --   -0.27231  -0.26470  -0.25988  -0.25457  -0.24258
 Alpha  occ. eigenvalues --   -0.23267  -0.21863  -0.21184  -0.20669  -0.13499
 Alpha  occ. eigenvalues --   -0.12709  -0.11442  -0.10295  -0.09612  -0.01442
 Alpha virt. eigenvalues --    0.07715   0.09408   0.09633   0.09942   0.10235
 Alpha virt. eigenvalues --    0.11666   0.11936   0.12065   0.13444   0.13597
 Alpha virt. eigenvalues --    0.13647   0.14772   0.16711   0.17257   0.17525

  Beta  occ. eigenvalues --  -18.92932 -18.92750 -10.08074 -10.08033 -10.06695
  Beta  occ. eigenvalues --  -10.06028 -10.04938 -10.04436 -10.04150 -10.03983
  Beta  occ. eigenvalues --  -10.03967 -10.03904 -10.03775 -10.02454  -0.84783
  Beta  occ. eigenvalues --   -0.84376  -0.73214  -0.67913  -0.64938  -0.62191
  Beta  occ. eigenvalues --   -0.58645  -0.56312  -0.51309  -0.48782  -0.45583
  Beta  occ. eigenvalues --   -0.42008  -0.37921  -0.35709  -0.34149  -0.31777
  Beta  occ. eigenvalues --   -0.31592  -0.30113  -0.29563  -0.29221  -0.27545
  Beta  occ. eigenvalues --   -0.26986  -0.25734  -0.25564  -0.25102  -0.24059
  Beta  occ. eigenvalues --   -0.21687  -0.20847  -0.20463  -0.20027  -0.12109
  Beta  occ. eigenvalues --   -0.10879  -0.10444  -0.09676  -0.08997
  Beta virt. eigenvalues --    0.05221   0.07708   0.09402   0.09930   0.10231
  Beta virt. eigenvalues --    0.10663   0.11666   0.11937   0.12616   0.13442
  Beta virt. eigenvalues --    0.13589   0.13892   0.14761   0.16719   0.17540

 Mulliken charges and spin densities:
               1          2
     1  C   -0.422062  -0.002558
     2  C    0.578878   0.031031
     3  C   -0.376228   0.023312
     4  C    0.072773   0.017537
     5  C   -0.084163  -0.000462
     6  C   -0.712507   0.095540
     7  O   -0.391176   0.243572
     8  C    0.865030   0.099124
     9  C   -0.346024   0.104001
    10  C   -0.994560   0.054282
    11  O   -0.398249   0.244644
    12  C    0.437978   0.083054
    13  C   -0.273793  -0.000717
    14  C   -0.300080   0.007945
    15  H    0.129343   0.002602
    16  H    0.152223   0.000049
    17  H    0.129456   0.002607
    18  H    0.119297  -0.002199
    19  H    0.156882  -0.002165
    20  H    0.109509  -0.010405
    21  H    0.117763  -0.002387
    22  H    0.152626   0.005907
    23  H    0.152527   0.005927
    24  H    0.124556  -0.000241
 Sum of Mulliken charges =  -1.00000   1.00000

 Dipole moment (field-independent basis, Debye):
    X=             -4.2446    Y=             -1.1137    Z=             -0.8656  Tot=              4.4728
 Quadrupole moment (field-independent basis, Debye-Ang):
   XX=            -99.3422   YY=           -107.3109   ZZ=           -100.3727
   XY=              4.8936   XZ=              3.9799   YZ=            -15.1321

  Exact polarizability: 246.127  -0.953 154.292  -2.491  50.846 130.599
 Approx polarizability: 340.565  -9.664 273.588  -9.899 105.547 224.561

                      1                      2                      3
                      A                      A                      A
 Frequencies --     66.6409                76.4165               105.1437
 Red. masses --      2.1191                 1.3648                 1.5020
 Frc consts  --      0.0055                 0.0047                 0.0098
 IR Inten    --      4.0809                 2.1521                 0.9819

                      4                      5                      6
                      A                      A                      A
 Frequencies --    116.2183               161.3896               198.9816
 Red. masses --      1.9728                 5.7946                 3.3965
 Frc consts  --      0.0157                 0.0889                 0.0792
 IR Inten    --      1.6626                 1.2009                 0.4535

                      7                      8                      9
                      A                      A                      A
 Frequencies --    201.8978               283.7099               286.1888
 Red. masses --      3.9695                 4.4741                 3.1546
 Frc consts  --      0.0953                 0.2122                 0.1522
 IR Inten    --      2.7644                 1.5633                 0.9878

                     10                     11                     12
                      A                      A                      A
 Frequencies --    339.4160               364.4595               387.8560
 Red. masses --      5.5693                 5.1503                 4.4668
 Frc consts  --      0.3780                 0.4031                 0.3959
 IR Inten    --      5.5643                 3.2468                 2.3645

                     13                     14                     15
                      A                      A                      A
 Frequencies --    411.7413               442.2446               477.0090
 Red. masses --      5.2604                 3.4518                 8.2609
 Frc consts  --      0.5254                 0.3978                 1.1075
 IR Inten    --      3.9988                 0.7320                 0.2810

                     16                     17                     18
                      A                      A                      A
 Frequencies --    512.3470               530.9391               601.8672
 Red. masses --      3.4718                 7.5126                 5.0156
 Frc consts  --      0.5369                 1.2478                 1.0705
 IR Inten    --      3.6556                 0.9621                 8.1095

                     19                     20                     21
                      A                      A                      A
 Frequencies --    647.6055               671.3543               697.2703
 Red. masses --      4.5742                 3.7638                 3.8499
 Frc consts  --      1.1303                 0.9995                 1.1028
 IR Inten    --      0.5254                 1.0183                 9.3912

                     22                     23                     24
                      A                      A                      A
 Frequencies --    722.0620               759.9776               786.3144
 Red. masses --      5.5770                 5.2078                 3.0029
 Frc consts  --      1.7132                 1.7722                 1.0939
 IR Inten    --      0.0708                16.5914                 9.0762

                     25                     26                     27
                      A                      A                      A
 Frequencies --    825.0591               867.6233               909.0356
 Red. masses --      1.7109                 1.5092                 3.5087
 Frc consts  --      0.6862                 0.6694                 1.7083
 IR Inten    --     22.6176                17.7776                10.3906

                     28                     29                     30
                      A                      A                      A
 Frequencies --    928.5329               956.2674               980.0667
 Red. masses --      1.3530                 4.5825                 1.3187
 Frc consts  --      0.6873                 2.4690                 0.7463
 IR Inten    --      4.8988                19.7292                 1.2075

                     31                     32                     33
                      A                      A                      A
 Frequencies --   1005.4179              1023.9446              1046.8522
 Red. masses --      1.4691                 1.6688                 1.4876
 Frc consts  --      0.8750                 1.0309                 0.9605
 IR Inten    --     14.8642                 2.7148                 0.9379

                     34                     35                     36
                      A                      A                      A
 Frequencies --   1055.5359              1096.6336              1132.1303
 Red. masses --      1.4916                 2.2314                 1.5583
 Frc consts  --      0.9791                 1.5811                 1.1767
 IR Inten    --      2.4130                 4.2283                 4.8012

                     37                     38                     39
                      A                      A                      A
 Frequencies --   1181.6279              1210.0888              1226.6608
 Red. masses --      2.6760                 2.6432                 4.9614
 Frc consts  --      2.2014                 2.2804                 4.3984
 IR Inten    --     15.7689                 4.1384                17.4001

                     40                     41                     42
                      A                      A                      A
 Frequencies --   1244.4783              1286.6238              1356.1120
 Red. masses --      1.7705                 1.7322                 8.1572
 Frc consts  --      1.6155                 1.6895                 8.8385
 IR Inten    --     32.3434                 3.5213                10.8452

                     43                     44                     45
                      A                      A                      A
 Frequencies --   1381.2479              1395.5361              1402.2453
 Red. masses --      2.5665                 1.3950                 1.2663
 Frc consts  --      2.8849                 1.6006                 1.4670
 IR Inten    --     16.4136                37.0978                 3.6747

                     46                     47                     48
                      A                      A                      A
 Frequencies --   1445.9245              1464.7633              1476.1425
 Red. masses --      4.4125                 1.0466                 1.3753
 Frc consts  --      5.4354                 1.3230                 1.7656
 IR Inten    --     53.0964                 4.2356                25.0878

                     49                     50                     51
                      A                      A                      A
 Frequencies --   1483.5291              1487.9181              1491.8206
 Red. masses --      1.0456                 2.7340                 1.2982
 Frc consts  --      1.3558                 3.5663                 1.7023
 IR Inten    --      4.7353                94.2940                17.6645

                     52                     53                     54
                      A                      A                      A
 Frequencies --   1512.5670              1528.0338              1555.9424
 Red. masses --      4.7106                 3.6964                 4.8598
 Frc consts  --      6.3497                 5.0851                 6.9320
 IR Inten    --      5.4633               400.6131               118.9715

                     55                     56                     57
                      A                      A                      A
 Frequencies --   1621.2692              1639.2114              2995.3205
 Red. masses --      7.2422                 6.2555                 1.0385
 Frc consts  --     11.2158                 9.9033                 5.4895
 IR Inten    --      2.1670                 9.3087               134.0792

                     58                     59                     60
                      A                      A                      A
 Frequencies --   3005.2044              3031.9298              3046.0196
 Red. masses --      1.0344                 1.0997                 1.0988
 Frc consts  --      5.5044                 5.9563                 6.0064
 IR Inten    --     93.2578                40.0526                35.3968

                     61                     62                     63
                      A                      A                      A
 Frequencies --   3077.0578              3082.9982              3123.9164
 Red. masses --      1.1022                 1.0972                 1.0877
 Frc consts  --      6.1486                 6.1443                 6.2541
 IR Inten    --     26.1364                25.0212                44.5874

                     64                     65                     66
                      A                      A                      A
 Frequencies --   3130.3662              3163.6696              3177.7120
 Red. masses --      1.0884                 1.0892                 1.0913
 Frc consts  --      6.2838                 6.4229                 6.4929
 IR Inten    --     39.2764                12.0272                14.4903

 - Thermochemistry -
 -------------------
 Temperature   298.150 Kelvin.  Pressure   1.00000 Atm.
 Atom     1 has atomic number  6 and mass  12.00000

 Molecular mass:   186.06808 amu.
 Principal axes and moments of inertia in atomic units:
                           1         2         3
     Eigenvalues --  1445.523833350.265534773.61022
           X            0.99815   0.06024   0.00873
           Y           -0.04177   0.78226  -0.62155
           Z           -0.04427   0.62004   0.78332
 This molecule is an asymmetric top.
 Rotational symmetry number  1.
 Warning -- assumption of classical behavior for rotation
           may cause significant error
 Rotational temperatures (Kelvin)      0.05992     0.02585     0.01814
 Rotational constants (GHZ):           1.24850     0.53869     0.37807
 Zero-point vibrational energy     483901.9 (Joules/Mol)
                                  115.65534 (Kcal/Mol)
 Warning -- explicit consideration of  18 degrees of freedom as
           vibrations may cause significant error
 Vibrational temperatures:     95.88   109.95   151.28   167.21   232.20
          (Kelvin)            286.29   290.49   408.20   411.76   488.34
                              524.38   558.04   592.40   636.29   686.31
                              737.15   763.90   865.95   931.76   965.93
                             1003.22  1038.89  1093.44  1131.33  1187.08
                             1248.32  1307.90  1335.95  1375.86  1410.10
                             1446.57  1473.23  1506.19  1518.68  1577.81
                             1628.88  1700.10  1741.05  1764.89  1790.53
                             1851.16  1951.14  1987.31  2007.87  2017.52
                             2080.36  2107.47  2123.84  2134.47  2140.78
                             2146.40  2176.25  2198.50  2238.65  2332.64
                             2358.46  4309.60  4323.82  4362.27  4382.54
                             4427.20  4435.75  4494.62  4503.90  4551.81
                             4572.02

 Zero-point correction=                           0.184309 (Hartree/Particle)
 Thermal correction to Energy=                    0.196504
 Thermal correction to Enthalpy=                  0.197448
 Thermal correction to Gibbs Free Energy=         0.145244
 Sum of electronic and zero-point Energies=           -613.803114
 Sum of electronic and thermal Energies=              -613.790919
 Sum of electronic and thermal Enthalpies=            -613.789975
 Sum of electronic and thermal Free Energies=         -613.842179

                     E (Thermal)             CV                S
                      KCal/Mol        Cal/Mol-Kelvin    Cal/Mol-Kelvin
 Total                  123.308             46.789            109.872
 Electronic               0.000              0.000              1.377
 Translational            0.889              2.981             41.569
 Rotational               0.889              2.981             31.514
 Vibrational            121.531             40.828             35.412
 Vibration     1          0.598              1.970              4.250
 Vibration     2          0.599              1.965              3.981
 Vibration     3          0.605              1.945              3.357
 Vibration     4          0.608              1.936              3.162
 Vibration     5          0.622              1.890              2.533
 Vibration     6          0.637              1.841              2.142
 Vibration     7          0.639              1.837              2.116
 Vibration     8          0.682              1.704              1.511
 Vibration     9          0.684              1.699              1.496
 Vibration    10          0.719              1.597              1.215
 Vibration    11          0.738              1.545              1.103
 Vibration    12          0.756              1.496              1.008
 Vibration    13          0.776              1.445              0.920
 Vibration    14          0.802              1.378              0.820
 Vibration    15          0.834              1.301              0.718
 Vibration    16          0.867              1.223              0.628
 Vibration    17          0.886              1.182              0.585
 Vibration    18          0.960              1.028              0.446

 Optimization completed.
    -- Stationary point found.
 Normal termination of Gaussian 16 at Tue Dec 26 21:59:41 2023.
