 Q-Chem 5.4, Q-Chem, Inc., Pleasanton, CA (2021)
 Q-Chem 5.4.0 for Intel X86 EM64T Linux

User input:
--------------------------------------------------------------
$molecule
0 1
C                 -0.9917010000      3.9953130000     -0.1109490000
C                 -2.2401980000      3.3829410000     -0.1666850000
C                 -2.3345490000      1.9905560000     -0.1894270000
C                  0.1650690000      3.2132790000     -0.0727280000
C                  0.0708090000      1.8130790000     -0.0914250000
C                 -1.1827150000      1.2070180000     -0.1551100000
C                  1.4929360000      3.8661850000     -0.0358760000
C                  2.7101660000      2.9917400000      0.0312190000
C                  2.5981350000      1.6298360000      0.0939430000
C                  1.3002000000      0.9565370000     -0.0400790000
O                  1.6371990000      5.0790620000     -0.0779240000
O                  1.2175410000     -0.2612970000     -0.1083970000
N                  3.8826200000      3.6825560000      0.0736490000
S                  3.9992890000      0.5417700000      0.2389740000
H                 -0.8936940000      5.0738160000     -0.0994170000
H                 -3.1385520000      3.9887210000     -0.1948310000
H                 -3.3076770000      1.5148540000     -0.2342330000
H                 -1.2348850000      0.1255480000     -0.1736920000
H                  3.8015290000      4.6767520000     -0.0966030000
H                  4.7279740000      3.2271230000     -0.2351610000
H                  4.7456500000      1.3917720000      0.9783310000
$end
$rem
MAX_SCF_CYCLES=200
BASIS  =  6-311++G(d,p)
GUI  =  2
JOB_TYPE  =  SP
METHOD  =  B3LYP
SOLVENT_METHOD = COSMO
$end
$solvent
dielectric 37.219
opticaldielectric 1.43
$end

--------------------------------------------------------------

             Standard Nuclear Orientation (Angstroms)
    I     Atom           X                Y                Z
 ----------------------------------------------------------------
    1      C       2.5508536051    -1.1119749309     0.0583394845
    2      C       3.6137418773    -0.2135913769     0.0634617851
    3      C       3.3674480816     1.1596675361     0.0227847397
    4      C       1.2383294662    -0.6357675408     0.0175747784
    5      C       0.9898052663     0.7450575243    -0.0192005790
    6      C       2.0595676819     1.6385286469    -0.0216215018
    7      C       0.1095903487    -1.5928724240    -0.0102340640
    8      C      -1.2856741084    -1.0417325782    -0.0271643577
    9      C      -1.5124958984     0.3064845085     0.0189909574
   10      C      -0.4119403952     1.2758306237    -0.0522438476
   11      O       0.2677017366    -2.8043840278    -0.0400818002
   12      O      -0.6243570994     2.4768541372    -0.1361555558
   13      N      -2.2550590551    -1.9976642413    -0.0399281164
   14      S      -3.1424427790     1.0200914236     0.0658148878
   15      H       2.7178562773    -2.1817601360     0.0823561965
   16      H       4.6325865159    -0.5819079974     0.0966278002
   17      H       4.1963768117     1.8583435458     0.0254434154
   18      H       1.8478856566     2.6999892458    -0.0553331858
   19      H      -1.9244239185    -2.9424204319    -0.1885999929
   20      H      -3.1660235464    -1.7630180545    -0.4039213602
   21      H      -3.7018725960     0.0154199318     0.7756602153
 ----------------------------------------------------------------

    9    -988.8642686881      5.46e-06  Convergence criterion met
 Total energy in the final basis set =     -988.8642686881
    5    -988.8831686060      7.01e-06  Convergence criterion met
 Total energy in the final basis set =     -988.8831686060

                    Orbital Energies (a.u.)
 --------------------------------------------------------------

 Alpha MOs
 -- Occupied --
-88.8692 -19.1449 -19.1274 -14.3482 -10.2939 -10.2820 -10.2547 -10.2235
-10.2091 -10.2086 -10.1984 -10.1969 -10.1955 -10.1951  -7.9558  -5.9193
 -5.9159  -5.9100  -1.0803  -1.0638  -0.9518  -0.8901  -0.8349  -0.7916
 -0.7785  -0.7375  -0.6904  -0.6460  -0.6321  -0.5959  -0.5767  -0.5433
 -0.5166  -0.5042  -0.4892  -0.4684  -0.4645  -0.4546  -0.4506  -0.4435
 -0.4302  -0.4243  -0.3938  -0.3816  -0.3750  -0.3680  -0.3589  -0.3025
 -0.2953  -0.2859  -0.2809  -0.2784  -0.2288

          Ground-State Mulliken Net Atomic Charges

     Atom                 Charge (a.u.)
  ----------------------------------------
      1 C                     0.126074
      2 C                    -0.370050
      3 C                    -0.379589
      4 C                     0.337769
      5 C                     0.590341
      6 C                     0.184522
      7 C                    -1.085978
      8 C                     0.036799
      9 C                     1.851100
     10 C                    -1.420275
     11 O                    -0.308771
     12 O                    -0.296924
     13 N                    -0.340217
     14 S                    -0.511406
     15 H                     0.197624
     16 H                     0.230858
     17 H                     0.232099
     18 H                     0.195062
     19 H                     0.325191
     20 H                     0.296676
     21 H                     0.109095
  ----------------------------------------
  Sum of atomic charges =     0.000000

                    Cartesian Multipole Moments
 -----------------------------------------------------------------
    Charge (ESU x 10^10)
                 0.0000
    Dipole Moment (Debye)
         X       1.1755      Y      -3.6962      Z      -0.0554
       Tot       3.8791
    Quadrupole Moments (Debye-Ang)
        XX     -63.1271     XY      15.5589     YY    -100.0957
        XZ       0.1672     YZ       1.8077     ZZ     -90.3680

 Total job time:  83.38s(wall), 225.92s(cpu)
        *  Thank you very much for using Q-Chem.  Have a nice day.  *
