 Gaussian 16, Revision A.03,
 Gaussian 16:  ES64L-G16RevA.03 25-Dec-2016

 ----------------------------------------------------------------
 #P UB3LYP/6-311++G(d,p) SCRF=(PCM,Solvent=n,n-DiMethylFormamide)
 ----------------------------------------------------------------

 ------------------
 Radical PCM in DMF
 ------------------
 Symbolic Z-matrix:
 Charge = -1 Multiplicity = 2

                         Standard orientation:
 ---------------------------------------------------------------------
 Center     Atomic      Atomic             Coordinates (Angstroms)
 Number     Number       Type             X           Y           Z
 ---------------------------------------------------------------------
      1          8           0        3.109730    2.064101   -0.000085
      2          6           0        2.830670    0.741461   -0.000043
      3          6           0        3.880997   -0.166297    0.000061
      4          6           0        3.619496   -1.545411    0.000164
      5          6           0        2.319806   -2.020409    0.000106
      6          6           0        1.235460   -1.124827   -0.000046
      7          6           0       -0.135530   -1.675948   -0.000114
      8          8           0       -0.307257   -2.909014    0.000074
      9          6           0       -1.242752   -0.706942   -0.000071
     10          6           0       -2.599876   -1.122450   -0.000057
     11          8           0       -2.915034   -2.461471   -0.000106
     12          6           0       -3.624986   -0.185588    0.000020
     13          6           0       -3.361053    1.188907    0.000081
     14          6           0       -2.054222    1.644653    0.000071
     15          8           0       -1.837873    2.981596    0.000223
     16          6           0       -0.971055    0.708582   -0.000051
     17          6           0        0.381101    1.207114   -0.000131
     18          8           0        0.618765    2.491439   -0.000139
     19          6           0        1.476930    0.274766   -0.000098
     20          1           0        2.220083    2.521228   -0.000139
     21          1           0        4.894979    0.217962    0.000084
     22          1           0        4.451816   -2.243100    0.000282
     23          1           0        2.098138   -3.079886    0.000223
     24          1           0       -3.876097   -2.523882   -0.000017
     25          1           0       -4.656497   -0.532304    0.000058
     26          1           0       -4.166767    1.913804    0.000172
     27          1           0       -0.842211    3.087302    0.000260
 ---------------------------------------------------------------------

 SCF Done:  E(UB3LYP) =  -914.858385911     A.U. after   18 cycles

 The electronic state is 2-A.
 Alpha  occ. eigenvalues --  -19.15140 -19.13595 -19.13192 -19.10228 -19.07770
 Alpha  occ. eigenvalues --  -10.23967 -10.23875 -10.23753 -10.23457 -10.23438
 Alpha  occ. eigenvalues --  -10.18476 -10.18374 -10.18047 -10.17770 -10.17710
 Alpha  occ. eigenvalues --  -10.17669 -10.17194 -10.16795 -10.16460  -1.06350
 Alpha  occ. eigenvalues --   -1.06231  -1.05236  -1.01010  -1.00686  -0.86405
 Alpha  occ. eigenvalues --   -0.84827  -0.79258  -0.75073  -0.74818  -0.73717
 Alpha  occ. eigenvalues --   -0.67729  -0.64901  -0.64154  -0.59512  -0.58937
 Alpha  occ. eigenvalues --   -0.56153  -0.53976  -0.52907  -0.51130  -0.49071
 Alpha  occ. eigenvalues --   -0.47863  -0.47208  -0.45212  -0.44476  -0.44265
 Alpha  occ. eigenvalues --   -0.42854  -0.42506  -0.41754  -0.41289  -0.40398
 Alpha  occ. eigenvalues --   -0.39721  -0.38788  -0.38482  -0.37285  -0.37246
 Alpha  occ. eigenvalues --   -0.36458  -0.35889  -0.34765  -0.33264  -0.31321
 Alpha  occ. eigenvalues --   -0.27666  -0.26774  -0.25541  -0.23770  -0.23451
 Alpha  occ. eigenvalues --   -0.21793  -0.14575
 Alpha virt. eigenvalues --   -0.04671  -0.02850  -0.00255   0.00368   0.00935
 Alpha virt. eigenvalues --    0.01091   0.01949   0.02205   0.03836   0.04236
 Alpha virt. eigenvalues --    0.04457   0.04646   0.04672   0.05999   0.06293

  Beta  occ. eigenvalues --  -19.15116 -19.13563 -19.13137 -19.09788 -19.07288
  Beta  occ. eigenvalues --  -10.23834 -10.23749 -10.23647 -10.23372 -10.23361
  Beta  occ. eigenvalues --  -10.18498 -10.18298 -10.18078 -10.17654 -10.17589
  Beta  occ. eigenvalues --  -10.17581 -10.17120 -10.16753 -10.16462  -1.06283
  Beta  occ. eigenvalues --   -1.06041  -1.05133  -1.00200  -0.99955  -0.86145
  Beta  occ. eigenvalues --   -0.84676  -0.78865  -0.74878  -0.74511  -0.73545
  Beta  occ. eigenvalues --   -0.67069  -0.64689  -0.63952  -0.59381  -0.58760
  Beta  occ. eigenvalues --   -0.56023  -0.53773  -0.52784  -0.51013  -0.48847
  Beta  occ. eigenvalues --   -0.47689  -0.47071  -0.45117  -0.44147  -0.43635
  Beta  occ. eigenvalues --   -0.42595  -0.42354  -0.41376  -0.40933  -0.39705
  Beta  occ. eigenvalues --   -0.39594  -0.38702  -0.37442  -0.37154  -0.36372
  Beta  occ. eigenvalues --   -0.35757  -0.35604  -0.34638  -0.32550  -0.30639
  Beta  occ. eigenvalues --   -0.26452  -0.26016  -0.25089  -0.23331  -0.22549
  Beta  occ. eigenvalues --   -0.20970
  Beta virt. eigenvalues --   -0.09177  -0.03393  -0.01825  -0.00239   0.00377
  Beta virt. eigenvalues --    0.00955   0.01483   0.01963   0.02213   0.03851
  Beta virt. eigenvalues --    0.04255   0.04561   0.04691   0.05581   0.06306

 Mulliken charges and spin densities:
               1          2
     1  O   -0.400076   0.010340
     2  C   -0.006550   0.050428
     3  C   -0.258886   0.025837
     4  C   -0.375102   0.063249
     5  C   -0.195485   0.022434
     6  C    0.312479   0.077164
     7  C   -0.315166   0.047211
     8  O   -0.433619   0.181396
     9  C    0.178390   0.044512
    10  C   -0.305153   0.018215
    11  O   -0.251103   0.006085
    12  C   -0.191389   0.094021
    13  C   -0.122692   0.046913
    14  C   -0.279975   0.063308
    15  O   -0.414293   0.016883
    16  C    0.590328  -0.041279
    17  C   -0.372255   0.188874
    18  O   -0.575789   0.151535
    19  C    0.426199  -0.040298
    20  H    0.397365  -0.002292
    21  H    0.184588  -0.002876
    22  H    0.191150  -0.004567
    23  H    0.157907  -0.001276
    24  H    0.292077  -0.000645
    25  H    0.171647  -0.008025
    26  H    0.195651  -0.004564
    27  H    0.399751  -0.002583
 Sum of Mulliken charges =  -1.00000   1.00000

 Dipole moment (field-independent basis, Debye):
    X=             -2.9468    Y=             -0.3475    Z=              0.0004  Tot=              2.9673
 Quadrupole moment (field-independent basis, Debye-Ang):
   XX=           -109.1255   YY=           -151.3781   ZZ=           -115.5254
   XY=             -2.0574   XZ=              0.0004   YZ=              0.0003

 Normal termination of Gaussian 16 at Tue Jan 16 05:48:17 2024.
