 Q-Chem 5.4, Q-Chem, Inc., Pleasanton, CA (2021)
 Q-Chem 5.4.0 for Intel X86 EM64T Linux

User input:
--------------------------------------------------------------
$molecule
0 1
C                  3.7413550000      0.0288080000     -0.2368300000
C                  2.8022320000      0.1296760000      0.9808400000
C                  1.3535630000      0.3024080000      0.6006840000
C                  0.5803420000     -0.9453300000      0.3436990000
O                  1.1404850000     -2.0262030000      0.4654170000
C                 -0.8460740000     -0.8243080000     -0.0516220000
C                 -1.6428190000     -1.9444910000     -0.3034330000
O                 -1.1782390000     -3.2069440000     -0.2078410000
C                 -2.9970730000     -1.7649530000     -0.6759380000
O                 -3.7188380000     -2.8970060000     -0.9078060000
C                 -3.5518800000     -0.5086010000     -0.7963310000
O                 -4.8613640000     -0.4132330000     -1.1583250000
C                 -2.7668530000      0.6270480000     -0.5469010000
C                 -1.4238250000      0.4726070000     -0.1776420000
C                 -0.6456510000      1.6801000000      0.0726300000
C                  0.7766340000      1.5203970000      0.4602550000
O                  1.4006950000      2.7033820000      0.6506230000
O                 -1.1381100000      2.8125180000     -0.0321550000
O                 -3.3900410000      1.8125080000     -0.6872710000
H                  3.4724280000     -0.8328980000     -0.8501810000
H                  3.6892920000      0.9227140000     -0.8649590000
H                  4.7770750000     -0.0974860000      0.0890630000
H                  2.8881060000     -0.7856180000      1.5687990000
H                  3.1279550000      0.9474300000      1.6372500000
H                 -1.9011400000     -3.8130430000     -0.4233560000
H                  2.3129410000      2.5478190000      0.9221140000
H                 -2.7122010000      2.5100100000     -0.4785050000
H                 -4.6234550000     -2.6601290000     -1.1521770000
H                 -5.1013720000      0.5236760000     -1.1992290000
$end
$rem
MAX_SCF_CYCLES=200
BASIS  =  6-311++G(d,p)
GUI  =  2
JOB_TYPE  =  SP
METHOD  =  B3LYP
SOLVENT_METHOD = PCM
$end
$pcm
theory = CPCM
$end
$solvent
dielectric 37.219
opticaldielectric 1.43
$end

--------------------------------------------------------------

             Standard Nuclear Orientation (Angstroms)
    I     Atom           X                Y                Z
 ----------------------------------------------------------------
    1      C       3.7413550000     0.0288080000    -0.2368300000
    2      C       2.8022320000     0.1296760000     0.9808400000
    3      C       1.3535630000     0.3024080000     0.6006840000
    4      C       0.5803420000    -0.9453300000     0.3436990000
    5      O       1.1404850000    -2.0262030000     0.4654170000
    6      C      -0.8460740000    -0.8243080000    -0.0516220000
    7      C      -1.6428190000    -1.9444910000    -0.3034330000
    8      O      -1.1782390000    -3.2069440000    -0.2078410000
    9      C      -2.9970730000    -1.7649530000    -0.6759380000
   10      O      -3.7188380000    -2.8970060000    -0.9078060000
   11      C      -3.5518800000    -0.5086010000    -0.7963310000
   12      O      -4.8613640000    -0.4132330000    -1.1583250000
   13      C      -2.7668530000     0.6270480000    -0.5469010000
   14      C      -1.4238250000     0.4726070000    -0.1776420000
   15      C      -0.6456510000     1.6801000000     0.0726300000
   16      C       0.7766340000     1.5203970000     0.4602550000
   17      O       1.4006950000     2.7033820000     0.6506230000
   18      O      -1.1381100000     2.8125180000    -0.0321550000
   19      O      -3.3900410000     1.8125080000    -0.6872710000
   20      H       3.4724280000    -0.8328980000    -0.8501810000
   21      H       3.6892920000     0.9227140000    -0.8649590000
   22      H       4.7770750000    -0.0974860000     0.0890630000
   23      H       2.8881060000    -0.7856180000     1.5687990000
   24      H       3.1279550000     0.9474300000     1.6372500000
   25      H      -1.9011400000    -3.8130430000    -0.4233560000
   26      H       2.3129410000     2.5478190000     0.9221140000
   27      H      -2.7122010000     2.5100100000    -0.4785050000
   28      H      -4.6234550000    -2.6601290000    -1.1521770000
   29      H      -5.1013720000     0.5236760000    -1.1992290000
 ----------------------------------------------------------------

    9    -990.1887396245      3.63e-06  Convergence criterion met
 Total energy in the final basis set =     -990.1887396245

                    Orbital Energies (a.u.)
 --------------------------------------------------------------

 Alpha MOs
 -- Occupied --
-19.1861 -19.1823 -19.1793 -19.1755 -19.1723 -19.1424 -19.1191 -10.2903
-10.2771 -10.2706 -10.2700 -10.2673 -10.2661 -10.2634 -10.2090 -10.2072
-10.2030 -10.1828 -10.1633  -1.1168  -1.1048  -1.0983  -1.0859  -1.0749
 -1.0591  -1.0549  -0.8887  -0.8397  -0.7943  -0.7732  -0.7541  -0.7057
 -0.6796  -0.6730  -0.6391  -0.6151  -0.6073  -0.5812  -0.5749  -0.5484
 -0.5392  -0.5169  -0.5033  -0.4967  -0.4871  -0.4706  -0.4629  -0.4549
 -0.4441  -0.4374  -0.4310  -0.4233  -0.4171  -0.4151  -0.4097  -0.4070
 -0.3997  -0.3960  -0.3904  -0.3854  -0.3791  -0.3629  -0.3503  -0.3280
 -0.2971  -0.2707  -0.2674  -0.2445  -0.2350

          Ground-State Mulliken Net Atomic Charges

     Atom                 Charge (a.u.)
  ----------------------------------------
      1 C                    -0.622910
      2 C                    -0.144195
      3 C                     1.422531
      4 C                    -0.400897
      5 O                    -0.332276
      6 C                     0.561714
      7 C                    -0.206087
      8 O                    -0.253879
      9 C                    -0.227617
     10 O                    -0.310345
     11 C                    -0.245862
     12 O                    -0.314187
     13 C                     0.071984
     14 C                     0.909314
     15 C                    -0.601622
     16 C                    -0.867440
     17 O                    -0.246532
     18 O                    -0.369676
     19 O                    -0.411874
     20 H                     0.172598
     21 H                     0.163308
     22 H                     0.157282
     23 H                     0.210122
     24 H                     0.160860
     25 H                     0.327905
     26 H                     0.326887
     27 H                     0.391644
     28 H                     0.339825
     29 H                     0.339424
  ----------------------------------------
  Sum of atomic charges =     0.000000

                    Cartesian Multipole Moments
 -----------------------------------------------------------------
    Charge (ESU x 10^10)
                 0.0000
    Dipole Moment (Debye)
         X      -2.1328      Y       0.2068      Z      -0.6444
       Tot       2.2376
    Quadrupole Moments (Debye-Ang)
        XX     -78.6662     XY      17.6747     YY    -123.8005
        XZ       8.5036     YZ       4.6106     ZZ    -107.4201

 Total job time:  57.12s(wall), 395.65s(cpu)
        *  Thank you very much for using Q-Chem.  Have a nice day.  *
