 Gaussian 16, Revision A.03,
 Gaussian 16:  ES64L-G16RevA.03 25-Dec-2016

 --------------------------------------
 #P UB3LYP/6-311++G(d,p) nosym opt freq
 --------------------------------------

 --------
 Oxidized
 --------
 Symbolic Z-matrix:
 Charge =  0 Multiplicity = 1

 SCF Done:  E(UB3LYP) =  -990.160537693     A.U. after   16 cycles
 SCF Done:  E(UB3LYP) =  -990.160537595     A.U. after    9 cycles
 SCF Done:  E(UB3LYP) =  -990.160537770     A.U. after    8 cycles
 Optimization completed.
    -- Stationary point found.
 Normal termination of Gaussian 16 at Mon Jan  8 21:39:19 2024.

 ----------------------------------------------------------------------
 #P Geom=AllCheck Guess=TCheck SCRF=Check GenChk UB3LYP/6-311++G(d,p) F
 req
 ----------------------------------------------------------------------

 Structure from the checkpoint file:  "312.chk"
 --------
 Oxidized
 --------
 Charge =  0 Multiplicity = 1

                          Input orientation:
 ---------------------------------------------------------------------
 Center     Atomic      Atomic             Coordinates (Angstroms)
 Number     Number       Type             X           Y           Z
 ---------------------------------------------------------------------
      1          6           0        3.741355    0.028808   -0.236830
      2          6           0        2.802232    0.129676    0.980840
      3          6           0        1.353563    0.302408    0.600684
      4          6           0        0.580342   -0.945330    0.343699
      5          8           0        1.140485   -2.026203    0.465417
      6          6           0       -0.846074   -0.824308   -0.051622
      7          6           0       -1.642819   -1.944491   -0.303433
      8          8           0       -1.178239   -3.206944   -0.207841
      9          6           0       -2.997073   -1.764953   -0.675938
     10          8           0       -3.718838   -2.897006   -0.907806
     11          6           0       -3.551880   -0.508601   -0.796331
     12          8           0       -4.861364   -0.413233   -1.158325
     13          6           0       -2.766853    0.627048   -0.546901
     14          6           0       -1.423825    0.472607   -0.177642
     15          6           0       -0.645651    1.680100    0.072630
     16          6           0        0.776634    1.520397    0.460255
     17          8           0        1.400695    2.703382    0.650623
     18          8           0       -1.138110    2.812518   -0.032155
     19          8           0       -3.390041    1.812508   -0.687271
     20          1           0        3.472428   -0.832898   -0.850181
     21          1           0        3.689292    0.922714   -0.864959
     22          1           0        4.777075   -0.097486    0.089063
     23          1           0        2.888106   -0.785618    1.568799
     24          1           0        3.127955    0.947430    1.637250
     25          1           0       -1.901140   -3.813043   -0.423356
     26          1           0        2.312941    2.547819    0.922114
     27          1           0       -2.712201    2.510010   -0.478505
     28          1           0       -4.623455   -2.660129   -1.152177
     29          1           0       -5.101372    0.523676   -1.199229
 ---------------------------------------------------------------------

 SCF Done:  E(UB3LYP) =  -990.160537770     A.U. after    1 cycles

 Alpha  occ. eigenvalues --  -19.19768 -19.19329 -19.18249 -19.17399 -19.17296
 Alpha  occ. eigenvalues --  -19.13965 -19.11223 -10.28911 -10.27226 -10.27177
 Alpha  occ. eigenvalues --  -10.27160 -10.27012 -10.26818 -10.26768 -10.21094
 Alpha  occ. eigenvalues --  -10.20814 -10.20546 -10.19352 -10.17401  -1.12529
 Alpha  occ. eigenvalues --   -1.10839  -1.10226  -1.08867  -1.08052  -1.05794
 Alpha  occ. eigenvalues --   -1.04687  -0.89077  -0.84332  -0.80037  -0.77466
 Alpha  occ. eigenvalues --   -0.76042  -0.70871  -0.68410  -0.67907  -0.64504
 Alpha  occ. eigenvalues --   -0.61762  -0.61320  -0.58692  -0.57752  -0.55425
 Alpha  occ. eigenvalues --   -0.54270  -0.51773  -0.50551  -0.49821  -0.49100
 Alpha  occ. eigenvalues --   -0.47123  -0.46573  -0.45090  -0.44583  -0.43958
 Alpha  occ. eigenvalues --   -0.43593  -0.43113  -0.41906  -0.41621  -0.41333
 Alpha  occ. eigenvalues --   -0.41129  -0.39737  -0.39481  -0.39301  -0.38958
 Alpha  occ. eigenvalues --   -0.38291  -0.37108  -0.36033  -0.32725  -0.29323
 Alpha  occ. eigenvalues --   -0.26960  -0.26245  -0.25016  -0.23507
 Alpha virt. eigenvalues --   -0.11746  -0.03722  -0.03166  -0.02293  -0.01604
 Alpha virt. eigenvalues --   -0.00117   0.01012   0.01326   0.01846   0.02908
 Alpha virt. eigenvalues --    0.03801   0.03919   0.04251   0.04704   0.05322

  Beta  occ. eigenvalues --  -19.19768 -19.19329 -19.18249 -19.17399 -19.17296
  Beta  occ. eigenvalues --  -19.13965 -19.11223 -10.28911 -10.27226 -10.27177
  Beta  occ. eigenvalues --  -10.27160 -10.27012 -10.26818 -10.26768 -10.21094
  Beta  occ. eigenvalues --  -10.20814 -10.20546 -10.19352 -10.17401  -1.12529
  Beta  occ. eigenvalues --   -1.10839  -1.10226  -1.08867  -1.08052  -1.05794
  Beta  occ. eigenvalues --   -1.04687  -0.89077  -0.84332  -0.80037  -0.77466
  Beta  occ. eigenvalues --   -0.76042  -0.70871  -0.68410  -0.67907  -0.64504
  Beta  occ. eigenvalues --   -0.61762  -0.61320  -0.58692  -0.57752  -0.55425
  Beta  occ. eigenvalues --   -0.54270  -0.51773  -0.50551  -0.49821  -0.49100
  Beta  occ. eigenvalues --   -0.47123  -0.46573  -0.45090  -0.44583  -0.43958
  Beta  occ. eigenvalues --   -0.43593  -0.43113  -0.41906  -0.41621  -0.41333
  Beta  occ. eigenvalues --   -0.41129  -0.39737  -0.39481  -0.39301  -0.38958
  Beta  occ. eigenvalues --   -0.38291  -0.37108  -0.36033  -0.32725  -0.29323
  Beta  occ. eigenvalues --   -0.26960  -0.26245  -0.25016  -0.23507
  Beta virt. eigenvalues --   -0.11746  -0.03722  -0.03166  -0.02293  -0.01604
  Beta virt. eigenvalues --   -0.00117   0.01012   0.01326   0.01846   0.02908
  Beta virt. eigenvalues --    0.03801   0.03919   0.04251   0.04704   0.05322

 Mulliken charges and spin densities:
               1          2
     1  C   -0.582362   0.000000
     2  C   -0.106500   0.000000
     3  C    1.359206  -0.000000
     4  C   -0.484095   0.000000
     5  O   -0.230795  -0.000000
     6  C    0.599799  -0.000000
     7  C   -0.240341   0.000000
     8  O   -0.187042   0.000000
     9  C   -0.220915   0.000000
    10  O   -0.293240  -0.000000
    11  C   -0.243568  -0.000000
    12  O   -0.300458   0.000000
    13  C    0.042569  -0.000000
    14  C    0.877421  -0.000000
    15  C   -0.643383   0.000000
    16  C   -0.807177   0.000000
    17  O   -0.177475  -0.000000
    18  O   -0.298928  -0.000000
    19  O   -0.393653   0.000000
    20  H    0.183469  -0.000000
    21  H    0.143773  -0.000000
    22  H    0.144453  -0.000000
    23  H    0.225437   0.000000
    24  H    0.103393   0.000000
    25  H    0.288008  -0.000000
    26  H    0.268758  -0.000000
    27  H    0.363818  -0.000000
    28  H    0.302898   0.000000
    29  H    0.306931  -0.000000
 Sum of Mulliken charges =   0.00000   0.00000

 Dipole moment (field-independent basis, Debye):
    X=             -1.2124    Y=             -0.1263    Z=             -0.4405  Tot=              1.2961
 Quadrupole moment (field-independent basis, Debye-Ang):
   XX=            -86.2593   YY=           -120.6432   ZZ=           -107.9845
   XY=             13.0986   XZ=              6.3404   YZ=              3.4968

  Exact polarizability: 234.780   7.897 207.055  34.005   6.257  98.983
 Approx polarizability: 351.854 -15.208 404.492  56.759   3.722 156.295

                      1                      2                      3
                      A                      A                      A
 Frequencies --     40.5095                52.5355                65.6622
 Red. masses --      5.1352                 3.7462                 4.9902
 Frc consts  --      0.0050                 0.0061                 0.0127
 IR Inten    --      4.2198                 0.6548                 0.5117

                      4                      5                      6
                      A                      A                      A
 Frequencies --     95.4777               121.6440               154.7832
 Red. masses --      7.4012                11.0353                 6.2707
 Frc consts  --      0.0398                 0.0962                 0.0885
 IR Inten    --      0.0914                 0.3662                 0.0595

                      7                      8                      9
                      A                      A                      A
 Frequencies --    167.4595               185.7819               197.3282
 Red. masses --      8.9448                 5.2404                 2.0021
 Frc consts  --      0.1478                 0.1066                 0.0459
 IR Inten    --      1.1369                 4.5879                 1.6204

                     10                     11                     12
                      A                      A                      A
 Frequencies --    226.6349               284.3568               307.1399
 Red. masses --      1.6635                 5.0151                 4.1432
 Frc consts  --      0.0503                 0.2389                 0.2303
 IR Inten    --      1.1757                 5.6731                17.1015

                     13                     14                     15
                      A                      A                      A
 Frequencies --    315.0676               327.0941               341.4170
 Red. masses --      6.4519                 3.6330                 1.6644
 Frc consts  --      0.3773                 0.2290                 0.1143
 IR Inten    --      5.3174                27.9614               156.0154

                     16                     17                     18
                      A                      A                      A
 Frequencies --    347.7626               353.7130               375.9417
 Red. masses --      3.3769                 3.3649                 5.4492
 Frc consts  --      0.2406                 0.2480                 0.4538
 IR Inten    --     31.6093                18.3773                17.4990

                     19                     20                     21
                      A                      A                      A
 Frequencies --    382.1211               387.8240               405.6825
 Red. masses --      5.4574                 3.2489                 5.6662
 Frc consts  --      0.4695                 0.2879                 0.5494
 IR Inten    --     12.0712                32.0162                 3.5135

                     22                     23                     24
                      A                      A                      A
 Frequencies --    415.6791               426.7186               447.3088
 Red. masses --      1.1748                 2.1064                 3.7437
 Frc consts  --      0.1196                 0.2260                 0.4413
 IR Inten    --     10.3278                58.3150                48.6185

                     25                     26                     27
                      A                      A                      A
 Frequencies --    465.4210               470.8526               521.4121
 Red. masses --      1.1256                10.3013                 7.3555
 Frc consts  --      0.1437                 1.3456                 1.1782
 IR Inten    --     33.6019                 3.4395                 8.7837

                     28                     29                     30
                      A                      A                      A
 Frequencies --    534.1894               548.5134               561.0088
 Red. masses --      9.4899                 7.0615                10.0679
 Frc consts  --      1.5955                 1.2518                 1.8669
 IR Inten    --      3.1964                 2.8109                 0.1191

                     31                     32                     33
                      A                      A                      A
 Frequencies --    615.2712               656.9512               667.5659
 Red. masses --      7.2102                10.6891                10.3658
 Frc consts  --      1.6082                 2.7180                 2.7217
 IR Inten    --      6.6413                 0.1465                 0.5837

                     34                     35                     36
                      A                      A                      A
 Frequencies --    720.5433               752.9468               765.5522
 Red. masses --      2.7387                 7.6578                 2.4243
 Frc consts  --      0.8378                 2.5579                 0.8371
 IR Inten    --      2.8555                10.5446                68.1674

                     37                     38                     39
                      A                      A                      A
 Frequencies --    773.8710               782.0147               820.5821
 Red. masses --      7.4473                 6.0973                 1.1121
 Frc consts  --      2.6278                 2.1970                 0.4412
 IR Inten    --      1.9629                47.7980                91.9205

                     40                     41                     42
                      A                      A                      A
 Frequencies --    830.7559               922.3111               967.0026
 Red. masses --      2.4089                 2.9989                 4.3826
 Frc consts  --      0.9795                 1.5030                 2.4146
 IR Inten    --     12.1395                 0.6058                20.7302

                     43                     44                     45
                      A                      A                      A
 Frequencies --   1006.7641              1024.7929              1079.0211
 Red. masses --      3.4450                 3.5532                 1.8547
 Frc consts  --      2.0573                 2.1986                 1.2723
 IR Inten    --     80.3570               121.3782                 6.9722

                     46                     47                     48
                      A                      A                      A
 Frequencies --   1112.1079              1137.1807              1178.9172
 Red. masses --      2.1716                 3.3783                 3.2873
 Frc consts  --      1.5824                 2.5740                 2.6919
 IR Inten    --     64.9131                63.1564               184.2757

                     49                     50                     51
                      A                      A                      A
 Frequencies --   1213.4056              1243.0838              1266.0125
 Red. masses --      1.9502                 1.8940                 3.3273
 Frc consts  --      1.6917                 1.7244                 3.1421
 IR Inten    --      9.5727               294.0972                67.1895

                     52                     53                     54
                      A                      A                      A
 Frequencies --   1293.1110              1299.0992              1325.8187
 Red. masses --      1.4586                 1.6384                 2.4517
 Frc consts  --      1.4370                 1.6291                 2.5392
 IR Inten    --    247.2687               355.3432               285.4252

                     55                     56                     57
                      A                      A                      A
 Frequencies --   1347.2260              1355.3481              1360.0165
 Red. masses --      1.7609                 3.0277                 1.9911
 Frc consts  --      1.8831                 3.2769                 2.1699
 IR Inten    --     23.4763               114.8050                14.2764

                     58                     59                     60
                      A                      A                      A
 Frequencies --   1372.1874              1405.3680              1420.8516
 Red. masses --      2.5826                 1.4459                 2.5921
 Frc consts  --      2.8650                 1.6826                 3.0832
 IR Inten    --    328.9087                 9.1689                 6.1167

                     61                     62                     63
                      A                      A                      A
 Frequencies --   1478.5866              1490.9220              1501.1055
 Red. masses --      4.4376                 1.0825                 1.1135
 Frc consts  --      5.7160                 1.4177                 1.4784
 IR Inten    --    443.7700                12.3762                22.0036

                     64                     65                     66
                      A                      A                      A
 Frequencies --   1506.8226              1508.6364              1513.8392
 Red. masses --      3.7757                 1.3350                 2.7131
 Frc consts  --      5.0509                 1.7902                 3.6633
 IR Inten    --     52.7082                28.0284               129.6510

                     67                     68                     69
                      A                      A                      A
 Frequencies --   1626.4512              1650.6584              1658.5917
 Red. masses --      5.7911                 7.6523                 6.1695
 Frc consts  --      9.0259                12.2845                 9.9995
 IR Inten    --     76.7901               367.7931                38.5077

                     70                     71                     72
                      A                      A                      A
 Frequencies --   1684.9687              1700.9521              2995.3908
 Red. masses --      9.8364                10.7686                 1.0727
 Frc consts  --     16.4539                18.3566                 5.6709
 IR Inten    --    148.1581               116.1731                41.2540

                     73                     74                     75
                      A                      A                      A
 Frequencies --   3028.6307              3081.5922              3097.5957
 Red. masses --      1.0359                 1.0948                 1.0953
 Frc consts  --      5.5985                 6.1252                 6.1919
 IR Inten    --     35.6630                 7.8789                28.0299

                     76                     77                     78
                      A                      A                      A
 Frequencies --   3111.9542              3213.9974              3761.5275
 Red. masses --      1.1017                 1.0689                 1.0655
 Frc consts  --      6.2863                 6.5054                 8.8823
 IR Inten    --     15.3681               210.2793               165.6960

                     79                     80                     81
                      A                      A                      A
 Frequencies --   3766.8049              3791.2011              3810.4524
 Red. masses --      1.0657                 1.0660                 1.0653
 Frc consts  --      8.9089                 9.0277                 9.1129
 IR Inten    --    145.4893               161.6261                68.4680

 - Thermochemistry -
 -------------------
 Temperature   298.150 Kelvin.  Pressure   1.00000 Atm.
 Atom     1 has atomic number  6 and mass  12.00000

 Molecular mass:   266.04265 amu.
 Principal axes and moments of inertia in atomic units:
                           1         2         3
     Eigenvalues --  2941.347526026.896848775.07701
           X            0.93190  -0.29910  -0.20517
           Y            0.29716   0.95395  -0.04093
           Z            0.20796  -0.02283   0.97787
 This molecule is an asymmetric top.
 Rotational symmetry number  1.
 Warning -- assumption of classical behavior for rotation
           may cause significant error
 Rotational temperatures (Kelvin)      0.02945     0.01437     0.00987
 Rotational constants (GHZ):           0.61358     0.29945     0.20567
 Zero-point vibrational energy     551618.4 (Joules/Mol)
                                  131.83997 (Kcal/Mol)
 Warning -- explicit consideration of  31 degrees of freedom as
           vibrations may cause significant error
 Vibrational temperatures:     58.28    75.59    94.47   137.37   175.02
          (Kelvin)            222.70   240.94   267.30   283.91   326.08
                              409.13   441.91   453.31   470.62   491.22
                              500.35   508.91   540.90   549.79   557.99
                              583.69   598.07   613.95   643.58   669.64
                              677.45   750.20   768.58   789.19   807.17
                              885.24   945.21   960.48  1036.70  1083.32
                             1101.46  1113.43  1125.14  1180.63  1195.27
                             1327.00  1391.30  1448.51  1474.45  1552.47
                             1600.08  1636.15  1696.20  1745.82  1788.52
                             1821.51  1860.50  1869.11  1907.56  1938.36
                             1950.04  1956.76  1974.27  2022.01  2044.29
                             2127.36  2145.10  2159.76  2167.98  2170.59
                             2178.08  2340.10  2374.93  2386.34  2424.29
                             2447.29  4309.70  4357.52  4433.72  4456.75
                             4477.41  4624.23  5412.00  5419.59  5454.69
                             5482.39

 Zero-point correction=                           0.210100 (Hartree/Particle)
 Thermal correction to Energy=                    0.227344
 Thermal correction to Enthalpy=                  0.228288
 Thermal correction to Gibbs Free Energy=         0.165829
 Sum of electronic and zero-point Energies=           -989.950437
 Sum of electronic and thermal Energies=              -989.933194
 Sum of electronic and thermal Enthalpies=            -989.932250
 Sum of electronic and thermal Free Energies=         -989.994709

                     E (Thermal)             CV                S
                      KCal/Mol        Cal/Mol-Kelvin    Cal/Mol-Kelvin
 Total                  142.660             66.501            131.456
 Electronic               0.000              0.000              0.000
 Translational            0.889              2.981             42.635
 Rotational               0.889              2.981             33.408
 Vibrational            140.883             60.540             55.413
 Vibration     1          0.594              1.981              5.234
 Vibration     2          0.596              1.977              4.720
 Vibration     3          0.597              1.971              4.279
 Vibration     4          0.603              1.952              3.545
 Vibration     5          0.609              1.931              3.074
 Vibration     6          0.620              1.897              2.613
 Vibration     7          0.624              1.883              2.464
 Vibration     8          0.632              1.859              2.270
 Vibration     9          0.637              1.844              2.158
 Vibration    10          0.650              1.800              1.905
 Vibration    11          0.683              1.703              1.507
 Vibration    12          0.697              1.660              1.378
 Vibration    13          0.702              1.645              1.336
 Vibration    14          0.711              1.621              1.274
 Vibration    15          0.721              1.593              1.206
 Vibration    16          0.725              1.580              1.176
 Vibration    17          0.730              1.568              1.150
 Vibration    18          0.747              1.521              1.055
 Vibration    19          0.752              1.508              1.031
 Vibration    20          0.756              1.496              1.009
 Vibration    21          0.771              1.458              0.942
 Vibration    22          0.779              1.436              0.907
 Vibration    23          0.788              1.412              0.869
 Vibration    24          0.806              1.367              0.804
 Vibration    25          0.823              1.327              0.750
 Vibration    26          0.828              1.315              0.735
 Vibration    27          0.876              1.203              0.607
 Vibration    28          0.889              1.174              0.578
 Vibration    29          0.904              1.143              0.547
 Vibration    30          0.917              1.116              0.522
 Vibration    31          0.975              1.000              0.424

 Optimization completed.
    -- Stationary point found.
 Normal termination of Gaussian 16 at Mon Jan  8 23:13:33 2024.
