 Q-Chem 5.4, Q-Chem, Inc., Pleasanton, CA (2021)
 Q-Chem 5.4.0 for Intel X86 EM64T Linux

User input:
--------------------------------------------------------------
$molecule
-2 1
C                 -2.8744050000      3.9229520000      0.4811080000
C                 -4.1551110000      3.4191040000      0.5689570000
C                 -4.3254190000      2.0183300000      0.4668460000
C                 -1.7380560000      3.0966950000      0.3023980000
C                 -1.9410090000      1.6709520000      0.2000920000
C                 -3.2627020000      1.1711490000      0.2918990000
C                 -0.4222340000      3.7052470000      0.2332580000
C                  0.6705990000      2.7658030000      0.0524180000
C                  0.4676540000      1.3400580000     -0.0498820000
C                 -0.8481750000      0.7315050000      0.0192100000
C                  1.9922980000      3.2656040000     -0.0393600000
C                  3.0550140000      2.4184180000     -0.2142830000
C                  2.8847240000      1.0176340000     -0.3163710000
C                  1.6040040000      0.5138030000     -0.2285410000
O                 -0.2374090000      4.9640620000      0.3229980000
O                 -1.0329780000     -0.5273190000     -0.0703040000
H                 -3.4023460000      0.0978940000      0.2294070000
H                  1.4222770000     -0.5533700000     -0.2997610000
H                 -2.6926750000      4.9901220000      0.5523510000
H                  2.1319250000      4.3388610000      0.0231290000
H                  3.7403930000      0.3666390000     -0.4460230000
O                 -5.6030210000      1.4154250000      0.6589610000
O                  4.3326060000      3.0213830000     -0.4063320000
C                  5.4245280000      2.6338950000      0.2756050000
C                  6.6415760000      3.3960940000     -0.2117200000
O                  5.4682590000      1.7745060000      1.1269250000
H                 -5.0107710000      4.0701140000      0.6986490000
H                  6.3773990000      4.3943090000     -0.5608820000
H                  7.0975730000      2.8544180000     -1.0513240000
H                  7.3790310000      3.4512850000      0.5885060000
C                 -6.6948300000      1.8027760000     -0.0232890000
C                 -7.9119990000      1.0407860000      0.4640330000
O                 -6.7383260000      2.6617910000     -0.8749800000
H                 -7.6479190000      0.0427460000      0.8137730000
H                 -8.6491900000      0.9851610000     -0.3364100000
H                 -8.3683050000      1.5828590000      1.3032090000
$end
$rem
MAX_SCF_CYCLES=200
BASIS  =  6-311++G(d,p)
GUI  =  2
JOB_TYPE  =  SP
METHOD  =  B3LYP
SOLVENT_METHOD = COSMO
$end
$solvent
dielectric 37.219
opticaldielectric 1.43
$end

--------------------------------------------------------------

             Standard Nuclear Orientation (Angstroms)
    I     Atom           X                Y                Z
 ----------------------------------------------------------------
    1      C       2.1373637719    -1.8452186095     0.2693041043
    2      C       3.4471595920    -1.4216325616     0.3517533736
    3      C       3.6999786533    -0.0310776067     0.2882025269
    4      C       1.0503915598    -0.9475513975     0.1328785545
    5      C       1.3372925645     0.4659732222     0.0693529461
    6      C       2.6878090770     0.8829561401     0.1549937432
    7      C      -0.3004904513    -1.4740764830     0.0666023249
    8      C      -1.3372508780    -0.4660100470    -0.0693093333
    9      C      -1.0503576540     0.9475168641    -0.1328287603
   10      C       0.3005307341     1.4740439834    -0.0666005848
   11      C      -2.6877728540    -0.8829914897    -0.1549209933
   12      C      -3.6999407966     0.0310464592    -0.2881056591
   13      C      -3.4471387785     1.4216117696    -0.3516329411
   14      C      -2.1373302728     1.8451805953    -0.2692033815
   15      O      -0.5594321567    -2.7217494357     0.1221914310
   16      O       0.5594541765     2.7217203834    -0.1219632057
   17      H       2.8908742120     1.9473577988     0.1218931126
   18      H      -1.8927500913     2.9012655441    -0.3118685740
   19      H       1.8927810975    -2.9013010826     0.3119924194
   20      H      -2.8908211836    -1.9473960681    -0.1218236875
   21      H      -4.2638246307     2.1261649367    -0.4486000603
   22      O       5.0140899287     0.4883700235     0.4778210861
   23      O      -5.0140447793    -0.4884636328    -0.4776601765
   24      C      -6.0710585133    -0.0573047052     0.2324825004
   25      C      -7.3384327847    -0.7303618837    -0.2578187297
   26      O      -6.0511316752     0.7769784191     1.1092847504
   27      H       4.2638361172    -2.1262013693     0.4487601712
   28      H      -7.1396779514    -1.7315338079    -0.6402949646
   29      H      -7.7726920154    -0.1372403657    -1.0738498659
   30      H      -8.0666338835    -0.7656368900     0.5519506252
   31      C       6.0709947516     0.0573640172    -0.2326286095
   32      C       7.3384771782     0.7302055307     0.2576615722
   33      O       6.0508506823    -0.7765206761    -1.1097869569
   34      H       7.1398166986     1.7311795467     0.6407088130
   35      H       8.0664378593     0.7659358999    -0.5523077451
   36      H       7.7730149661     0.1366824185     1.0732484089
 ----------------------------------------------------------------

   20   -1144.8392831379      7.44e-06  Convergence criterion met
 Total energy in the final basis set =    -1144.8392831379
    6   -1145.1076333215      3.55e-06  Convergence criterion met
 Total energy in the final basis set =    -1145.1076333215

                    Orbital Energies (a.u.)
 --------------------------------------------------------------

 Alpha MOs
 -- Occupied --
-19.1777 -19.1777 -19.1192 -19.1192 -19.0309 -19.0308 -10.3120 -10.3120
-10.2206 -10.2205 -10.1836 -10.1836 -10.1717 -10.1717 -10.1600 -10.1600
-10.1570 -10.1570 -10.1565 -10.1565 -10.1466 -10.1466 -10.1445 -10.1444
 -1.1141  -1.1141  -1.0331  -1.0331  -0.9554  -0.9523  -0.8434  -0.8384
 -0.7769  -0.7623  -0.7471  -0.7356  -0.7300  -0.7125  -0.6571  -0.6452
 -0.6214  -0.6011  -0.5781  -0.5592  -0.5285  -0.5170  -0.5027  -0.4962
 -0.4886  -0.4871  -0.4797  -0.4740  -0.4558  -0.4516  -0.4431  -0.4228
 -0.4176  -0.4117  -0.4104  -0.4099  -0.4014  -0.3937  -0.3935  -0.3908
 -0.3820  -0.3765  -0.3736  -0.3683  -0.3505  -0.3485  -0.3409  -0.3387
 -0.3269  -0.3252  -0.3115  -0.3031  -0.2901  -0.2894  -0.2443  -0.2361
 -0.2337  -0.2218  -0.2147  -0.2067  -0.1131

          Ground-State Mulliken Net Atomic Charges

     Atom                 Charge (a.u.)
  ----------------------------------------
      1 C                    -0.041304
      2 C                    -0.038724
      3 C                    -0.682090
      4 C                     0.306798
      5 C                     0.412376
      6 C                    -0.132320
      7 C                    -0.549992
      8 C                     0.415424
      9 C                     0.316911
     10 C                    -0.545987
     11 C                    -0.172004
     12 C                    -0.629734
     13 C                    -0.016139
     14 C                    -0.000481
     15 O                    -0.673297
     16 O                    -0.669710
     17 H                     0.183450
     18 H                     0.168898
     19 H                     0.169132
     20 H                     0.188179
     21 H                     0.224848
     22 O                    -0.053558
     23 O                    -0.048989
     24 C                     0.137829
     25 C                    -0.579492
     26 O                    -0.354447
     27 H                     0.223813
     28 H                     0.179824
     29 H                     0.207255
     30 H                     0.183317
     31 C                     0.175775
     32 C                    -0.526474
     33 O                    -0.353251
     34 H                     0.181782
     35 H                     0.183984
     36 H                     0.206903
  ----------------------------------------
  Sum of atomic charges =    -2.001495

                    Cartesian Multipole Moments
 -----------------------------------------------------------------
    Charge (ESU x 10^10)
                -9.6136
    Dipole Moment (Debye)
         X      -0.0048      Y       0.0528      Z      -0.0076
       Tot       0.0536
    Quadrupole Moments (Debye-Ang)
        XX    -168.0292     XY      13.1713     YY    -196.1165
        XZ      27.1102     YZ      -4.4366     ZZ    -155.5021

 Total job time:  213.01s(wall), 1499.82s(cpu)
        *  Thank you very much for using Q-Chem.  Have a nice day.  *
