 Q-Chem 5.4, Q-Chem, Inc., Pleasanton, CA (2021)
 Q-Chem 5.4.0 for Intel X86 EM64T Linux

User input:
--------------------------------------------------------------
$molecule
-2 1
C                  3.7245590000      2.2157790000     -0.4867190000
O                  2.3778470000      1.8227940000     -0.3932780000
C                  2.0808070000      0.4897450000     -0.2385720000
C                  3.0942880000     -0.4565910000     -0.1690120000
C                  2.7769690000     -1.8308180000     -0.0099790000
C                  1.4666140000     -2.2277640000      0.0554360000
C                  0.3990620000     -1.2941790000     -0.0233770000
C                 -0.9442500000     -1.8352640000      0.0501170000
O                 -1.1779610000     -3.0926280000      0.1621170000
C                 -2.0069200000     -0.8573340000      0.0037230000
C                 -3.3578220000     -1.2857300000      0.0786940000
C                 -4.4100390000     -0.3946460000      0.0403410000
C                 -4.1474650000      0.9970650000     -0.0786220000
C                 -2.8396970000      1.4390530000     -0.1501770000
C                 -1.7391290000      0.5517110000     -0.1106980000
C                 -0.3876560000      1.1131870000     -0.1918330000
O                 -0.2264310000      2.3692330000     -0.2917060000
C                  0.6892860000      0.1288360000     -0.1528430000
H                  4.2478490000      1.7435440000     -1.3324270000
H                  4.2939270000      1.9974020000      0.4298410000
H                  3.7145970000      3.2971900000     -0.6439570000
H                  4.1329630000     -0.1573800000     -0.2212190000
H                  3.5842840000     -2.5584020000      0.0491280000
H                  1.1853020000     -3.2687100000      0.1687730000
H                 -3.5214330000     -2.3550660000      0.1686140000
H                 -5.4362730000     -0.7538280000      0.0996270000
H                 -4.9706270000      1.7084520000     -0.1124910000
H                 -2.6026520000      2.4943500000     -0.2410200000
$end

$rem
BASIS  =  6-311++G(d,p)
GUI  =  2
JOB_TYPE  =  SP
METHOD  =  B3LYP
SCF_CONVERGENCE  = 8
SOLVENT_METHOD = sm12
$end

$smx
solvent dimethylformamide
charges CM5
$end

--------------------------------------------------------------

             Standard Nuclear Orientation (Angstroms)
    I     Atom           X                Y                Z
 ----------------------------------------------------------------
    1      C       3.7245590000     2.2157790000    -0.4867190000
    2      O       2.3778470000     1.8227940000    -0.3932780000
    3      C       2.0808070000     0.4897450000    -0.2385720000
    4      C       3.0942880000    -0.4565910000    -0.1690120000
    5      C       2.7769690000    -1.8308180000    -0.0099790000
    6      C       1.4666140000    -2.2277640000     0.0554360000
    7      C       0.3990620000    -1.2941790000    -0.0233770000
    8      C      -0.9442500000    -1.8352640000     0.0501170000
    9      O      -1.1779610000    -3.0926280000     0.1621170000
   10      C      -2.0069200000    -0.8573340000     0.0037230000
   11      C      -3.3578220000    -1.2857300000     0.0786940000
   12      C      -4.4100390000    -0.3946460000     0.0403410000
   13      C      -4.1474650000     0.9970650000    -0.0786220000
   14      C      -2.8396970000     1.4390530000    -0.1501770000
   15      C      -1.7391290000     0.5517110000    -0.1106980000
   16      C      -0.3876560000     1.1131870000    -0.1918330000
   17      O      -0.2264310000     2.3692330000    -0.2917060000
   18      C       0.6892860000     0.1288360000    -0.1528430000
   19      H       4.2478490000     1.7435440000    -1.3324270000
   20      H       4.2939270000     1.9974020000     0.4298410000
   21      H       3.7145970000     3.2971900000    -0.6439570000
   22      H       4.1329630000    -0.1573800000    -0.2212190000
   23      H       3.5842840000    -2.5584020000     0.0491280000
   24      H       1.1853020000    -3.2687100000     0.1687730000
   25      H      -3.5214330000    -2.3550660000     0.1686140000
   26      H      -5.4362730000    -0.7538280000     0.0996270000
   27      H      -4.9706270000     1.7084520000    -0.1124910000
   28      H      -2.6026520000     2.4943500000    -0.2410200000
 ----------------------------------------------------------------

   18    -803.4505719258      6.31e-09  Convergence criterion met
 Total energy in the final basis set =     -803.7410531598

                    Orbital Energies (a.u.)
 --------------------------------------------------------------

 Alpha MOs
 -- Occupied --
-19.1427 -19.0244 -19.0244 -10.2314 -10.2184 -10.1931 -10.1823 -10.1747
-10.1722 -10.1698 -10.1684 -10.1683 -10.1609 -10.1575 -10.1562 -10.1519
-10.1517 -10.1516  -1.0599  -0.9502  -0.9431  -0.8442  -0.8369  -0.7684
 -0.7484  -0.7421  -0.7260  -0.6903  -0.6494  -0.6236  -0.6081  -0.5739
 -0.5479  -0.5307  -0.5210  -0.4776  -0.4697  -0.4614  -0.4590  -0.4476
 -0.4448  -0.4203  -0.4145  -0.3955  -0.3953  -0.3843  -0.3793  -0.3643
 -0.3625  -0.3489  -0.3378  -0.3372  -0.3231  -0.3222  -0.3175  -0.3046
 -0.2483  -0.2371  -0.2328  -0.2193  -0.2036  -0.1943  -0.1133

          Ground-State Mulliken Net Atomic Charges

     Atom                 Charge (a.u.)
  ----------------------------------------
      1 C                     0.396382
      2 O                    -0.009396
      3 C                     0.203321
      4 C                     3.173019
      5 C                     1.111526
      6 C                    -0.597780
      7 C                    -2.067719
      8 C                    -3.740533
      9 O                    -0.330335
     10 C                    -2.509392
     11 C                    -0.307189
     12 C                     1.835663
     13 C                     1.510454
     14 C                    -0.112780
     15 C                    -0.735108
     16 C                    -1.990356
     17 O                    -0.275836
     18 C                    -0.229941
     19 H                     0.224121
     20 H                     0.228264
     21 H                     0.341744
     22 H                     0.439775
     23 H                     0.373307
     24 H                     0.052845
     25 H                     0.107345
     26 H                     0.406796
     27 H                     0.390855
     28 H                     0.110949
  ----------------------------------------
  Sum of atomic charges =    -2.000000

                    Cartesian Multipole Moments
 -----------------------------------------------------------------
    Charge (ESU x 10^10)
                -9.6064
    Dipole Moment (Debye)
         X       8.6807      Y       5.0359      Z       0.4097
       Tot      10.0440
    Quadrupole Moments (Debye-Ang)
        XX    -145.6019     XY      -1.3333     YY    -167.0205
        XZ      -0.3666     YZ       3.1040     ZZ    -120.0066

 Total job time:  765.04s(wall), 5813.97s(cpu)
        *  Thank you very much for using Q-Chem.  Have a nice day.  *
