 Q-Chem 5.4, Q-Chem, Inc., Pleasanton, CA (2021)
 Q-Chem 5.4.0 for Intel X86 EM64T Linux

User input:
--------------------------------------------------------------
$molecule
-2 1
C                 -1.8103790000      0.3083630000     -1.0848730000
C                 -1.1687970000      0.1327230000      0.3138680000
C                 -1.8749650000     -1.0492840000      1.0067000000
C                 -1.4408580000      1.4023570000      1.1582770000
C                  0.3553020000     -0.0695580000      0.1616190000
C                  0.9755230000     -1.2277550000      0.6261480000
C                  2.3756260000     -1.5403020000      0.5484240000
O                  2.8717960000     -2.6366990000      1.0025690000
C                  3.1089700000     -0.4894870000     -0.0862770000
C                  2.5083240000      0.6917520000     -0.5651830000
Br                 3.5749080000      2.0877770000     -1.4220530000
C                  1.1126860000      0.9895350000     -0.4805550000
O                  0.5797320000      2.0821010000     -0.9259110000
Br                 5.0314150000     -0.8060730000     -0.2498280000
H                 -2.8881020000      0.5198350000     -0.9981190000
H                 -1.6881620000     -0.6089630000     -1.6726490000
H                 -1.3123500000      1.1317640000     -1.6012960000
H                 -1.7500450000     -1.9811250000      0.4464180000
H                 -2.9506320000     -0.8375930000      1.0799560000
H                 -1.4919970000     -1.2137910000      2.0186920000
H                 -1.0542090000      1.2676870000      2.1752460000
H                 -2.5218200000      1.6043910000      1.2255490000
H                 -0.9345540000      2.2512020000      0.6937550000
H                  0.3925890000     -2.0088570000      1.1038360000
$end

$rem
BASIS  =  6-311++G(d,p)
GUI  =  2
JOB_TYPE  =  SP
METHOD  =  B3LYP
SCF_CONVERGENCE  = 8
SOLVENT_METHOD = sm12
$end

$smx
solvent dimethylformamide
charges CM5
$end

--------------------------------------------------------------

             Standard Nuclear Orientation (Angstroms)
    I     Atom           X                Y                Z
 ----------------------------------------------------------------
    1      C      -1.8103790000     0.3083630000    -1.0848730000
    2      C      -1.1687970000     0.1327230000     0.3138680000
    3      C      -1.8749650000    -1.0492840000     1.0067000000
    4      C      -1.4408580000     1.4023570000     1.1582770000
    5      C       0.3553020000    -0.0695580000     0.1616190000
    6      C       0.9755230000    -1.2277550000     0.6261480000
    7      C       2.3756260000    -1.5403020000     0.5484240000
    8      O       2.8717960000    -2.6366990000     1.0025690000
    9      C       3.1089700000    -0.4894870000    -0.0862770000
   10      C       2.5083240000     0.6917520000    -0.5651830000
   11      Br      3.5749080000     2.0877770000    -1.4220530000
   12      C       1.1126860000     0.9895350000    -0.4805550000
   13      O       0.5797320000     2.0821010000    -0.9259110000
   14      Br      5.0314150000    -0.8060730000    -0.2498280000
   15      H      -2.8881020000     0.5198350000    -0.9981190000
   16      H      -1.6881620000    -0.6089630000    -1.6726490000
   17      H      -1.3123500000     1.1317640000    -1.6012960000
   18      H      -1.7500450000    -1.9811250000     0.4464180000
   19      H      -2.9506320000    -0.8375930000     1.0799560000
   20      H      -1.4919970000    -1.2137910000     2.0186920000
   21      H      -1.0542090000     1.2676870000     2.1752460000
   22      H      -2.5218200000     1.6043910000     1.2255490000
   23      H      -0.9345540000     2.2512020000     0.6937550000
   24      H       0.3925890000    -2.0088570000     1.1038360000
 ----------------------------------------------------------------

   17   -5685.9409695989      8.36e-09  Convergence criterion met
 Total energy in the final basis set =    -5686.2047107301

                    Orbital Energies (a.u.)
 --------------------------------------------------------------

 Alpha MOs
 -- Occupied --
********-482.7976 -62.4506 -62.4498 -56.2709 -56.2702 -56.2675 -56.2671
-56.2668 -56.2664 -19.0138 -19.0132 -10.1886 -10.1858 -10.1841 -10.1830
-10.1829 -10.1680 -10.1588 -10.1588 -10.1480 -10.1357  -8.6589  -8.6581
 -6.4895  -6.4888  -6.4781  -6.4774  -6.4770  -6.4762  -2.6005  -2.5998
 -2.5973  -2.5967  -2.5965  -2.5959  -2.5875  -2.5874  -2.5867  -2.5867
 -0.9341  -0.9301  -0.8242  -0.8105  -0.7559  -0.7542  -0.6924  -0.6868
 -0.6782  -0.6519  -0.5796  -0.5420  -0.5136  -0.4629  -0.4586  -0.4413
 -0.4272  -0.4168  -0.4014  -0.3942  -0.3774  -0.3735  -0.3658  -0.3559
 -0.3498  -0.3365  -0.3334  -0.3246  -0.3182  -0.3159  -0.2887  -0.2707
 -0.2650  -0.2422  -0.2255  -0.2086  -0.1932  -0.1907  -0.1219

          Ground-State Mulliken Net Atomic Charges

     Atom                 Charge (a.u.)
  ----------------------------------------
      1 C                    -0.364300
      2 C                     1.937477
      3 C                     0.454073
      4 C                    -0.365040
      5 C                    -0.978051
      6 C                    -1.818266
      7 C                    -2.209975
      8 O                    -0.374247
      9 C                     1.406515
     10 C                     0.246097
     11 Br                    0.208233
     12 C                    -1.456076
     13 O                    -0.252566
     14 Br                    0.246371
     15 H                     0.312448
     16 H                     0.046323
     17 H                     0.062099
     18 H                     0.109578
     19 H                     0.427949
     20 H                     0.109612
     21 H                     0.046648
     22 H                     0.312720
     23 H                     0.062062
     24 H                    -0.169684
  ----------------------------------------
  Sum of atomic charges =    -2.000000

                    Cartesian Multipole Moments
 -----------------------------------------------------------------
    Charge (ESU x 10^10)
                -9.6064
    Dipole Moment (Debye)
         X     -19.7793      Y       1.4558      Z       0.7511
       Tot      19.8471
    Quadrupole Moments (Debye-Ang)
        XX    -198.1560     XY      17.9816     YY    -164.9790
        XZ      -0.0435     YZ      17.9802     ZZ    -131.3301

 Total job time:  532.98s(wall), 4018.25s(cpu)
        *  Thank you very much for using Q-Chem.  Have a nice day.  *
