 Gaussian 16, Revision A.03,
 Gaussian 16:  ES64L-G16RevA.03 25-Dec-2016

 --------------------------------------
 #P UB3LYP/6-311++G(d,p) nosym opt freq
 --------------------------------------

 -------
 Radical
 -------
 Symbolic Z-matrix:
 Charge = -1 Multiplicity = 2

 SCF Done:  E(UB3LYP) =  -990.073595145     A.U. after   17 cycles
 Optimization completed.
    -- Stationary point found.
 Normal termination of Gaussian 16 at Sun Jan  7 06:46:20 2024.

 ----------------------------------------------------------------------
 #P Geom=AllCheck Guess=TCheck SCRF=Check GenChk UB3LYP/6-311++G(d,p) F
 req
 ----------------------------------------------------------------------

 Structure from the checkpoint file:  "205-rad.chk"
 -------
 Radical
 -------
 Charge = -1 Multiplicity = 2

                          Input orientation:
 ---------------------------------------------------------------------
 Center     Atomic      Atomic             Coordinates (Angstroms)
 Number     Number       Type             X           Y           Z
 ---------------------------------------------------------------------
      1          8           0       -2.706803   -2.561488    0.539093
      2          6           0       -2.564929   -1.221386    0.398103
      3          6           0       -3.704506   -0.424537    0.407966
      4          6           0       -3.612189    0.963103    0.266111
      5          6           0       -2.378215    1.585144    0.111235
      6          8           0       -2.341211    2.933025   -0.022499
      7          6           0       -1.189026    0.802805    0.096188
      8          6           0        0.095511    1.435946   -0.063650
      9          8           0        0.181314    2.724767   -0.195600
     10          6           0        1.283691    0.620810   -0.075482
     11          6           0        2.564820    1.221377   -0.231913
     12          8           0        2.706403    2.561600   -0.372858
     13          6           0        3.704470    0.424639   -0.241837
     14          6           0        3.612226   -0.963019   -0.100002
     15          6           0        2.378329   -1.585202    0.054910
     16          8           0        2.341425   -2.933042    0.188611
     17          6           0        1.189042   -0.802863    0.070006
     18          6           0       -0.095445   -1.435997    0.229865
     19          8           0       -0.180994   -2.724934    0.361705
     20          6           0       -1.283709   -0.620907    0.241693
     21          1           0       -1.781655   -2.930773    0.504126
     22          1           0       -4.667852   -0.907030    0.528558
     23          1           0       -4.502206    1.582132    0.274111
     24          1           0       -1.376319    3.163098   -0.118642
     25          1           0        1.781267    2.930798   -0.337804
     26          1           0        4.667735    0.907275   -0.362454
     27          1           0        4.502311   -1.581969   -0.108046
     28          1           0        1.376516   -3.163371    0.284798
 ---------------------------------------------------------------------

 SCF Done:  E(UB3LYP) =  -990.073595145     A.U. after    1 cycles

 Alpha  occ. eigenvalues --  -19.02199 -19.02197 -19.02197 -19.02193 -18.99147
 Alpha  occ. eigenvalues --  -18.99146 -10.13340 -10.13339 -10.12577 -10.12576
 Alpha  occ. eigenvalues --  -10.12575 -10.12575 -10.07418 -10.07416 -10.07377
 Alpha  occ. eigenvalues --  -10.07375 -10.06728 -10.06727 -10.06675 -10.06675
 Alpha  occ. eigenvalues --   -0.95052  -0.94870  -0.94061  -0.93934  -0.89854
 Alpha  occ. eigenvalues --   -0.89715  -0.75729  -0.73782  -0.68822  -0.64482
 Alpha  occ. eigenvalues --   -0.64016  -0.62371  -0.57577  -0.54512  -0.53589
 Alpha  occ. eigenvalues --   -0.49746  -0.48269  -0.44773  -0.42458  -0.42103
 Alpha  occ. eigenvalues --   -0.41315  -0.40737  -0.40397  -0.36792  -0.35038
 Alpha  occ. eigenvalues --   -0.33897  -0.33090  -0.32307  -0.32236  -0.30895
 Alpha  occ. eigenvalues --   -0.30610  -0.30203  -0.30144  -0.30125  -0.29945
 Alpha  occ. eigenvalues --   -0.28012  -0.26899  -0.26174  -0.25673  -0.25547
 Alpha  occ. eigenvalues --   -0.24776  -0.23720  -0.20466  -0.19581  -0.16795
 Alpha  occ. eigenvalues --   -0.16377  -0.14806  -0.14737  -0.11886  -0.09790
 Alpha  occ. eigenvalues --   -0.03852
 Alpha virt. eigenvalues --    0.06215   0.07754   0.08556   0.08625   0.10410
 Alpha virt. eigenvalues --    0.10914   0.10937   0.12548   0.12569   0.13680
 Alpha virt. eigenvalues --    0.14330   0.14623   0.15160   0.15307   0.16682

  Beta  occ. eigenvalues --  -19.02143 -19.02141 -19.02141 -19.02137 -18.98754
  Beta  occ. eigenvalues --  -18.98753 -10.13123 -10.13122 -10.12525 -10.12524
  Beta  occ. eigenvalues --  -10.12523 -10.12523 -10.07421 -10.07418 -10.07379
  Beta  occ. eigenvalues --  -10.07377 -10.06623 -10.06622 -10.06569 -10.06569
  Beta  occ. eigenvalues --   -0.94830  -0.94652  -0.93949  -0.93823  -0.89242
  Beta  occ. eigenvalues --   -0.89090  -0.75489  -0.73602  -0.68423  -0.64331
  Beta  occ. eigenvalues --   -0.63642  -0.62127  -0.56962  -0.54319  -0.53367
  Beta  occ. eigenvalues --   -0.49637  -0.48135  -0.44524  -0.42338  -0.41958
  Beta  occ. eigenvalues --   -0.41192  -0.40703  -0.40182  -0.36629  -0.34870
  Beta  occ. eigenvalues --   -0.33121  -0.32925  -0.32031  -0.31930  -0.30521
  Beta  occ. eigenvalues --   -0.30480  -0.30033  -0.29987  -0.29852  -0.29239
  Beta  occ. eigenvalues --   -0.27617  -0.26016  -0.25709  -0.25626  -0.24672
  Beta  occ. eigenvalues --   -0.24123  -0.23600  -0.19621  -0.19099  -0.16070
  Beta  occ. eigenvalues --   -0.15335  -0.14453  -0.14449  -0.10576  -0.08956
  Beta virt. eigenvalues --    0.01128   0.07664   0.08559   0.08626   0.08733
  Beta virt. eigenvalues --    0.10425   0.10922   0.10962   0.12586   0.12981
  Beta virt. eigenvalues --    0.13691   0.14365   0.14777   0.15312   0.15881

 Mulliken charges and spin densities:
               1          2
     1  O   -0.368747   0.017783
     2  C   -0.367241   0.049655
     3  C   -0.049182   0.070393
     4  C   -0.049237   0.070385
     5  C   -0.367038   0.049651
     6  O   -0.368818   0.017779
     7  C    0.456255  -0.011023
     8  C   -0.376703   0.127056
     9  O   -0.523394   0.137377
    10  C    0.455757  -0.011029
    11  C   -0.366707   0.049636
    12  O   -0.368999   0.017789
    13  C   -0.049259   0.070418
    14  C   -0.049171   0.070360
    15  C   -0.367109   0.049678
    16  O   -0.368779   0.017795
    17  C    0.455973  -0.011057
    18  C   -0.376758   0.127082
    19  O   -0.523354   0.137408
    20  C    0.456046  -0.011047
    21  H    0.371978  -0.002530
    22  H    0.157074  -0.006492
    23  H    0.157071  -0.006493
    24  H    0.372041  -0.002529
    25  H    0.372164  -0.002529
    26  H    0.157072  -0.006495
    27  H    0.157073  -0.006491
    28  H    0.371991  -0.002530
 Sum of Mulliken charges =  -1.00000   1.00000

 Dipole moment (field-independent basis, Debye):
    X=             -0.0012    Y=             -0.0003    Z=             -0.3987  Tot=              0.3987
 Quadrupole moment (field-independent basis, Debye-Ang):
   XX=           -145.7044   YY=           -156.6622   ZZ=           -120.9997
   XY=             -0.5542   XZ=              1.9863   YZ=              3.5603

  Exact polarizability: 354.176  -9.476 240.035 -18.920 -13.348  97.832
 Approx polarizability: 586.330 -11.866 455.052 -32.025 -28.424 158.263

                      1                      2                      3
                      A                      A                      A
 Frequencies --     59.4612                66.6849               122.0449
 Red. masses --      6.8143                 9.7535                14.2230
 Frc consts  --      0.0142                 0.0256                 0.1248
 IR Inten    --      0.4951                 0.0001                 0.0000

                      4                      5                      6
                      A                      A                      A
 Frequencies --    142.3346               149.5134               179.2617
 Red. masses --      6.4394                 8.5732                 8.5325
 Frc consts  --      0.0769                 0.1129                 0.1615
 IR Inten    --      0.0000                 1.0373                 0.2118

                      7                      8                      9
                      A                      A                      A
 Frequencies --    218.7602               252.0875               311.2567
 Red. masses --      6.9843                 7.1524                 7.5023
 Frc consts  --      0.1969                 0.2678                 0.4282
 IR Inten    --      0.3576                 0.0000                 0.0000

                     10                     11                     12
                      A                      A                      A
 Frequencies --    314.2581               371.1200               374.2302
 Red. masses --      7.4199                 6.5444                 6.5200
 Frc consts  --      0.4317                 0.5311                 0.5380
 IR Inten    --      0.0000                 0.0000                 0.0000

                     13                     14                     15
                      A                      A                      A
 Frequencies --    406.0644               413.4257               433.2126
 Red. masses --      7.0798                 5.8102                11.0004
 Frc consts  --      0.6878                 0.5851                 1.2164
 IR Inten    --      0.0000                21.1576                 0.0000

                     16                     17                     18
                      A                      A                      A
 Frequencies --    441.4124               469.5783               472.6776
 Red. masses --      8.0304                10.0473                10.3049
 Frc consts  --      0.9219                 1.3053                 1.3565
 IR Inten    --      0.0000                 4.9005                 0.0001

                     19                     20                     21
                      A                      A                      A
 Frequencies --    487.0226               487.7407               490.7989
 Red. masses --     12.5116                 5.2028                 9.0349
 Frc consts  --      1.7485                 0.7292                 1.2823
 IR Inten    --     40.1996                 0.0062                23.1655

                     22                     23                     24
                      A                      A                      A
 Frequencies --    519.1236               547.3788               566.1198
 Red. masses --      5.2425                 3.8528                 9.3970
 Frc consts  --      0.8324                 0.6802                 1.7744
 IR Inten    --      0.0000                14.8178                 0.0000

                     25                     26                     27
                      A                      A                      A
 Frequencies --    611.9074               620.5814               638.7117
 Red. masses --      4.1709                 3.3260                 5.4431
 Frc consts  --      0.9201                 0.7547                 1.3083
 IR Inten    --     12.5036                 0.0000                 0.0000

                     28                     29                     30
                      A                      A                      A
 Frequencies --    705.6654               719.5678               736.4645
 Red. masses --      8.1877                 7.1141                10.7339
 Frc consts  --      2.4022                 2.1703                 3.4301
 IR Inten    --      0.0000                 0.0000                 0.0000

                     31                     32                     33
                      A                      A                      A
 Frequencies --    740.9405               744.6246               816.3032
 Red. masses --      5.0737                 7.8826                 1.6130
 Frc consts  --      1.6411                 2.5751                 0.6333
 IR Inten    --     10.0282                72.4865                 0.0020

                     34                     35                     36
                      A                      A                      A
 Frequencies --    819.2185               836.3542               843.0918
 Red. masses --      1.7413                 9.2721                 1.0660
 Frc consts  --      0.6885                 3.8213                 0.4464
 IR Inten    --    179.3053                72.8473                 0.2082

                     37                     38                     39
                      A                      A                      A
 Frequencies --    849.3274               858.0332               859.5276
 Red. masses --      1.0769                 9.0519                 1.0468
 Frc consts  --      0.4577                 3.9264                 0.4556
 IR Inten    --    214.6184                 0.0001                 2.2740

                     40                     41                     42
                      A                      A                      A
 Frequencies --    864.2904               903.9992               905.1515
 Red. masses --      1.0564                 1.2957                 1.3268
 Frc consts  --      0.4649                 0.6239                 0.6405
 IR Inten    --      0.0003                 0.0014                 0.0000

                     43                     44                     45
                      A                      A                      A
 Frequencies --    977.8824               980.9065              1010.3304
 Red. masses --      9.5913                 4.8954                 3.9380
 Frc consts  --      5.4038                 2.7752                 2.3684
 IR Inten    --    201.6842                 0.0038                 0.0000

                     46                     47                     48
                      A                      A                      A
 Frequencies --   1099.9111              1156.8561              1200.2622
 Red. masses --      1.4407                 1.4425                 2.4688
 Frc consts  --      1.0269                 1.1374                 2.0955
 IR Inten    --     16.3254                 0.0000                81.1161

                     49                     50                     51
                      A                      A                      A
 Frequencies --   1246.4401              1263.7144              1264.6811
 Red. masses --      3.0033                 6.4456                 1.6920
 Frc consts  --      2.7491                 6.0648                 1.5944
 IR Inten    --     84.4053               103.7944                 0.1145

                     52                     53                     54
                      A                      A                      A
 Frequencies --   1268.0702              1295.9514              1298.0652
 Red. masses --      3.7376                 6.6049                 8.3234
 Frc consts  --      3.5410                 6.5357                 8.2631
 IR Inten    --     30.0368               213.8216                 0.0012

                     55                     56                     57
                      A                      A                      A
 Frequencies --   1329.1789              1349.5083              1357.4991
 Red. masses --      4.3918                 3.6045                 3.4202
 Frc consts  --      4.5715                 3.8676                 3.7135
 IR Inten    --      0.0015                 0.0395               758.0849

                     58                     59                     60
                      A                      A                      A
 Frequencies --   1362.0584              1377.3734              1424.2160
 Red. masses --      7.7524                 6.1660                 4.2451
 Frc consts  --      8.4738                 6.8922                 5.0733
 IR Inten    --      0.1376                13.2077                 0.0000

                     61                     62                     63
                      A                      A                      A
 Frequencies --   1487.1314              1493.4932              1504.0430
 Red. masses --      5.5494                 1.9182                 1.7688
 Frc consts  --      7.2309                 2.5209                 2.3575
 IR Inten    --      0.0003                 0.0020               587.4185

                     64                     65                     66
                      A                      A                      A
 Frequencies --   1520.4719              1541.1409              1588.0862
 Red. masses --      7.9001                 1.6791                 4.2209
 Frc consts  --     10.7606                 2.3497                 6.2719
 IR Inten    --    840.3624                 2.3020               378.2267

                     67                     68                     69
                      A                      A                      A
 Frequencies --   1603.6269              1632.9539              1652.1697
 Red. masses --      1.7544                 3.1608                 4.9652
 Frc consts  --      2.6582                 4.9658                 7.9854
 IR Inten    --      0.0004                 0.0002                 0.0000

                     70                     71                     72
                      A                      A                      A
 Frequencies --   1667.0382              3117.3385              3128.5702
 Red. masses --      2.4914                 1.0682                 1.0689
 Frc consts  --      4.0792                 6.1158                 6.1640
 IR Inten    --      2.9925                 0.7228               987.5188

                     73                     74                     75
                      A                      A                      A
 Frequencies --   3166.7283              3167.6466              3180.4056
 Red. masses --      1.0860                 1.0867                 1.0718
 Frc consts  --      6.4168                 6.4244                 6.3874
 IR Inten    --     41.7455                 0.0055                 3.5441

                     76                     77                     78
                      A                      A                      A
 Frequencies --   3181.6318              3183.6454              3183.9703
 Red. masses --      1.0725                 1.0938                 1.0926
 Frc consts  --      6.3968                 6.5318                 6.5259
 IR Inten    --      0.3584                52.2057                 0.0897

 - Thermochemistry -
 -------------------
 Temperature   298.150 Kelvin.  Pressure   1.00000 Atm.
 Atom     1 has atomic number  8 and mass  15.99491

 Molecular mass:   272.03209 amu.
 Principal axes and moments of inertia in atomic units:
                           1         2         3
     Eigenvalues --  3462.964255452.445478915.40971
           X            0.99492   0.06604   0.07599
           Y           -0.07325   0.99264   0.09639
           Z           -0.06907  -0.10147   0.99244
 This molecule is an asymmetric top.
 Rotational symmetry number  1.
 Warning -- assumption of classical behavior for rotation
           may cause significant error
 Rotational temperatures (Kelvin)      0.02501     0.01589     0.00972
 Rotational constants (GHZ):           0.52116     0.33100     0.20243
 Zero-point vibrational energy     512195.1 (Joules/Mol)
                                  122.41756 (Kcal/Mol)
 Warning -- explicit consideration of  26 degrees of freedom as
           vibrations may cause significant error
 Vibrational temperatures:     85.55    95.94   175.60   204.79   215.12
          (Kelvin)            257.92   314.75   362.70   447.83   452.15
                              533.96   538.43   584.24   594.83   623.30
                              635.09   675.62   680.08   700.72   701.75
                              706.15   746.90   787.56   814.52   880.40
                              892.88   918.96  1015.30  1035.30  1059.61
                             1066.05  1071.35  1174.48  1178.67  1203.33
                             1213.02  1221.99  1234.52  1236.67  1243.52
                             1300.65  1302.31  1406.95  1411.31  1453.64
                             1582.53  1664.46  1726.91  1793.35  1818.20
                             1819.59  1824.47  1864.58  1867.63  1912.39
                             1941.64  1953.14  1959.70  1981.73  2049.13
                             2139.65  2148.80  2163.98  2187.62  2217.36
                             2284.90  2307.26  2349.46  2377.10  2398.50
                             4485.15  4501.31  4556.22  4557.54  4575.89
                             4577.66  4580.56  4581.02

 Zero-point correction=                           0.195085 (Hartree/Particle)
 Thermal correction to Energy=                    0.209474
 Thermal correction to Enthalpy=                  0.210418
 Thermal correction to Gibbs Free Energy=         0.153633
 Sum of electronic and zero-point Energies=           -989.878510
 Sum of electronic and thermal Energies=              -989.864121
 Sum of electronic and thermal Enthalpies=            -989.863177
 Sum of electronic and thermal Free Energies=         -989.919962

                     E (Thermal)             CV                S
                      KCal/Mol        Cal/Mol-Kelvin    Cal/Mol-Kelvin
 Total                  131.447             59.673            119.514
 Electronic               0.000              0.000              1.377
 Translational            0.889              2.981             42.701
 Rotational               0.889              2.981             33.487
 Vibrational            129.670             53.712             41.949
 Vibration     1          0.597              1.974              4.475
 Vibration     2          0.598              1.970              4.249
 Vibration     3          0.610              1.931              3.068
 Vibration     4          0.616              1.911              2.772
 Vibration     5          0.618              1.903              2.678
 Vibration     6          0.629              1.868              2.336
 Vibration     7          0.647              1.812              1.969
 Vibration     8          0.664              1.759              1.716
 Vibration     9          0.700              1.652              1.356
 Vibration    10          0.702              1.646              1.340
 Vibration    11          0.743              1.532              1.075
 Vibration    12          0.745              1.525              1.062
 Vibration    13          0.771              1.457              0.941
 Vibration    14          0.777              1.441              0.915
 Vibration    15          0.794              1.398              0.848
 Vibration    16          0.801              1.380              0.822
 Vibration    17          0.827              1.318              0.739
 Vibration    18          0.830              1.311              0.730
 Vibration    19          0.843              1.279              0.691
 Vibration    20          0.844              1.277              0.689
 Vibration    21          0.847              1.270              0.682
 Vibration    22          0.874              1.208              0.612
 Vibration    23          0.903              1.145              0.550
 Vibration    24          0.922              1.105              0.512
 Vibration    25          0.971              1.007              0.430
 Vibration    26          0.981              0.988              0.416

 Optimization completed.
    -- Stationary point found.
 Normal termination of Gaussian 16 at Sun Jan  7 08:23:04 2024.
