 Q-Chem 5.4, Q-Chem, Inc., Pleasanton, CA (2021)
 Q-Chem 5.4.0 for Intel X86 EM64T Linux

User input:
--------------------------------------------------------------
$molecule
-1 2
O                 -2.7068030000     -2.5614880000      0.5390930000
C                 -2.5649290000     -1.2213860000      0.3981030000
C                 -3.7045060000     -0.4245370000      0.4079660000
C                 -3.6121890000      0.9631030000      0.2661110000
C                 -2.3782150000      1.5851440000      0.1112350000
O                 -2.3412110000      2.9330250000     -0.0224990000
C                 -1.1890260000      0.8028050000      0.0961880000
C                  0.0955110000      1.4359460000     -0.0636500000
O                  0.1813140000      2.7247670000     -0.1956000000
C                  1.2836910000      0.6208100000     -0.0754820000
C                  2.5648200000      1.2213770000     -0.2319130000
O                  2.7064030000      2.5616000000     -0.3728580000
C                  3.7044700000      0.4246390000     -0.2418370000
C                  3.6122260000     -0.9630190000     -0.1000020000
C                  2.3783290000     -1.5852020000      0.0549100000
O                  2.3414250000     -2.9330420000      0.1886110000
C                  1.1890420000     -0.8028630000      0.0700060000
C                 -0.0954450000     -1.4359970000      0.2298650000
O                 -0.1809940000     -2.7249340000      0.3617050000
C                 -1.2837090000     -0.6209070000      0.2416930000
H                 -1.7816550000     -2.9307730000      0.5041260000
H                 -4.6678520000     -0.9070300000      0.5285580000
H                 -4.5022060000      1.5821320000      0.2741110000
H                 -1.3763190000      3.1630980000     -0.1186420000
H                  1.7812670000      2.9307980000     -0.3378040000
H                  4.6677350000      0.9072750000     -0.3624540000
H                  4.5023110000     -1.5819690000     -0.1080460000
H                  1.3765160000     -3.1633710000      0.2847980000
$end

$rem
BASIS  =  6-311++G(d,p)
GUI  =  2
JOB_TYPE  =  SP
METHOD  =  B3LYP
SCF_CONVERGENCE  = 8
SOLVENT_METHOD = sm12
$end

$smx
solvent dimethylformamide
charges CM5
$end

--------------------------------------------------------------

             Standard Nuclear Orientation (Angstroms)
    I     Atom           X                Y                Z
 ----------------------------------------------------------------
    1      O      -2.7068030000    -2.5614880000     0.5390930000
    2      C      -2.5649290000    -1.2213860000     0.3981030000
    3      C      -3.7045060000    -0.4245370000     0.4079660000
    4      C      -3.6121890000     0.9631030000     0.2661110000
    5      C      -2.3782150000     1.5851440000     0.1112350000
    6      O      -2.3412110000     2.9330250000    -0.0224990000
    7      C      -1.1890260000     0.8028050000     0.0961880000
    8      C       0.0955110000     1.4359460000    -0.0636500000
    9      O       0.1813140000     2.7247670000    -0.1956000000
   10      C       1.2836910000     0.6208100000    -0.0754820000
   11      C       2.5648200000     1.2213770000    -0.2319130000
   12      O       2.7064030000     2.5616000000    -0.3728580000
   13      C       3.7044700000     0.4246390000    -0.2418370000
   14      C       3.6122260000    -0.9630190000    -0.1000020000
   15      C       2.3783290000    -1.5852020000     0.0549100000
   16      O       2.3414250000    -2.9330420000     0.1886110000
   17      C       1.1890420000    -0.8028630000     0.0700060000
   18      C      -0.0954450000    -1.4359970000     0.2298650000
   19      O      -0.1809940000    -2.7249340000     0.3617050000
   20      C      -1.2837090000    -0.6209070000     0.2416930000
   21      H      -1.7816550000    -2.9307730000     0.5041260000
   22      H      -4.6678520000    -0.9070300000     0.5285580000
   23      H      -4.5022060000     1.5821320000     0.2741110000
   24      H      -1.3763190000     3.1630980000    -0.1186420000
   25      H       1.7812670000     2.9307980000    -0.3378040000
   26      H       4.6677350000     0.9072750000    -0.3624540000
   27      H       4.5023110000    -1.5819690000    -0.1080460000
   28      H       1.3765160000    -3.1633710000     0.2847980000
 ----------------------------------------------------------------

   15    -990.0726170061      7.10e-09  Convergence criterion met
 Total energy in the final basis set =     -990.1571066389

                    Orbital Energies (a.u.)
 --------------------------------------------------------------

 Alpha MOs
 -- Occupied --
-19.1370 -19.1369 -19.1369 -19.1369 -19.1076 -19.1076 -10.2500 -10.2500
-10.2411 -10.2411 -10.2411 -10.2411 -10.1906 -10.1906 -10.1902 -10.1902
-10.1812 -10.1811 -10.1806 -10.1806  -1.0656  -1.0640  -1.0556  -1.0544
 -1.0147  -1.0133  -0.8728  -0.8531  -0.8035  -0.7599  -0.7557  -0.7388
 -0.6911  -0.6607  -0.6510  -0.6118  -0.5978  -0.5631  -0.5390  -0.5347
 -0.5272  -0.5238  -0.5202  -0.4813  -0.4653  -0.4558  -0.4465  -0.4391
 -0.4380  -0.4244  -0.4188  -0.4180  -0.4146  -0.4140  -0.4138  -0.3951
 -0.3844  -0.3755  -0.3720  -0.3709  -0.3619  -0.3527  -0.3198  -0.3102
 -0.2827  -0.2794  -0.2643  -0.2630  -0.2349  -0.2134  -0.1540

 Beta MOs
 -- Occupied --
-19.1363 -19.1363 -19.1363 -19.1363 -19.1037 -19.1037 -10.2478 -10.2478
-10.2406 -10.2406 -10.2405 -10.2405 -10.1907 -10.1907 -10.1903 -10.1903
-10.1801 -10.1801 -10.1796 -10.1796  -1.0633  -1.0617  -1.0544  -1.0531
 -1.0086  -1.0072  -0.8704  -0.8513  -0.7995  -0.7584  -0.7519  -0.7363
 -0.6850  -0.6587  -0.6488  -0.6106  -0.5965  -0.5607  -0.5378  -0.5332
 -0.5259  -0.5235  -0.5181  -0.4796  -0.4636  -0.4480  -0.4449  -0.4359
 -0.4353  -0.4201  -0.4179  -0.4135  -0.4128  -0.4126  -0.4081  -0.3908
 -0.3739  -0.3726  -0.3715  -0.3608  -0.3569  -0.3515  -0.3110  -0.3055
 -0.2764  -0.2686  -0.2607  -0.2602  -0.2217  -0.2048

          Ground-State Mulliken Net Atomic Charges

     Atom                 Charge (a.u.)    Spin (a.u.)
  --------------------------------------------------------
      1 O                    -0.326884       0.019463
      2 C                    -0.424869       0.054481
      3 C                     0.829397       0.069405
      4 C                     0.827533       0.069366
      5 C                    -0.425388       0.054447
      6 O                    -0.326718       0.019456
      7 C                    -0.320582      -0.014806
      8 C                    -0.898491       0.124123
      9 O                    -0.437256       0.136314
     10 C                    -0.323713      -0.014866
     11 C                    -0.424969       0.054458
     12 O                    -0.327188       0.019467
     13 C                     0.828857       0.069427
     14 C                     0.827358       0.069350
     15 C                    -0.425692       0.054464
     16 O                    -0.326650       0.019469
     17 C                    -0.320937      -0.014828
     18 C                    -0.898515       0.124144
     19 O                    -0.437207       0.136344
     20 C                    -0.323436      -0.014894
     21 H                     0.372554      -0.002535
     22 H                     0.291243      -0.006158
     23 H                     0.291378      -0.006165
     24 H                     0.372449      -0.002533
     25 H                     0.372745      -0.002535
     26 H                     0.291193      -0.006161
     27 H                     0.291381      -0.006163
     28 H                     0.372407      -0.002535
  --------------------------------------------------------
  Sum of atomic charges =    -1.000000

                    Cartesian Multipole Moments
 -----------------------------------------------------------------
    Charge (ESU x 10^10)
                -4.8032
    Dipole Moment (Debye)
         X      -0.0019      Y      -0.0004      Z      -0.3987
       Tot       0.3987
    Quadrupole Moments (Debye-Ang)
        XX    -141.0689     XY      -0.8503     YY    -155.9570
        XZ       1.6514     YZ       3.4894     ZZ    -121.1899

 Total job time:  694.60s(wall), 5370.72s(cpu)
        *  Thank you very much for using Q-Chem.  Have a nice day.  *
