 Gaussian 16, Revision A.03,
 Gaussian 16:  ES64L-G16RevA.03 25-Dec-2016

 ----------------------------------------------------------------
 #P UB3LYP/6-311++G(d,p) SCRF=(PCM,Solvent=n,n-DiMethylFormamide)
 ----------------------------------------------------------------

 ------------------
 Quinone PCM in DMF
 ------------------
 Symbolic Z-matrix:
 Charge =  0 Multiplicity = 1

                         Standard orientation:
 ---------------------------------------------------------------------
 Center     Atomic      Atomic             Coordinates (Angstroms)
 Number     Number       Type             X           Y           Z
 ---------------------------------------------------------------------
      1          6           0       -2.504282   -1.705439    0.048495
      2          6           0       -3.846685   -1.345537    0.098390
      3          6           0       -4.210630    0.003076    0.105802
      4          6           0       -1.517231   -0.716541    0.006566
      5          6           0       -1.883663    0.639193    0.014185
      6          6           0       -3.232604    0.992390    0.063754
      7          6           0       -0.085950   -1.124105   -0.048162
      8          6           0        0.936703   -0.012404   -0.084484
      9          6           0        0.566050    1.290184   -0.078593
     10          6           0       -0.837580    1.708149   -0.030104
     11          8           0        0.263752   -2.286035   -0.065839
     12          8           0       -1.139704    2.893876   -0.025023
     13          1           0       -2.200125   -2.744888    0.041396
     14          1           0       -3.491865    2.043974    0.068437
     15          8           0        2.184620   -0.482730   -0.123576
     16          6           0        3.276808    0.455912   -0.193983
     17          6           0        4.550051   -0.324356   -0.265896
     18          6           0        5.581706   -0.126628    0.548555
     19          1           0       -4.610835   -2.113677    0.131335
     20          1           0       -5.257866    0.280797    0.144520
     21          1           0        1.283313    2.099844   -0.105944
     22          1           0        3.259277    1.108812    0.684743
     23          1           0        3.143461    1.072637   -1.091902
     24          1           0        4.601050   -1.069363   -1.054963
     25          1           0        5.545647    0.605463    1.349527
     26          1           0        6.502446   -0.687841    0.441197
 ---------------------------------------------------------------------

 SCF Done:  E(UB3LYP) =  -727.247607199     A.U. after   16 cycles

 The electronic state is 1-A.
 Alpha  occ. eigenvalues --  -19.19083 -19.14435 -19.12970 -10.29398 -10.28270
 Alpha  occ. eigenvalues --  -10.27822 -10.24738 -10.21170 -10.21006 -10.20126
 Alpha  occ. eigenvalues --  -10.20062 -10.19937 -10.19916 -10.19912 -10.19068
 Alpha  occ. eigenvalues --  -10.18088  -1.11312  -1.07449  -1.06284  -0.89315
 Alpha  occ. eigenvalues --   -0.84218  -0.81094  -0.78134  -0.77385  -0.73225
 Alpha  occ. eigenvalues --   -0.68766  -0.65449  -0.63310  -0.59800  -0.58249
 Alpha  occ. eigenvalues --   -0.55876  -0.55086  -0.52709  -0.51007  -0.49952
 Alpha  occ. eigenvalues --   -0.47738  -0.47229  -0.46479  -0.45492  -0.45386
 Alpha  occ. eigenvalues --   -0.44798  -0.43874  -0.43063  -0.42182  -0.39382
 Alpha  occ. eigenvalues --   -0.38704  -0.38415  -0.37228  -0.36707  -0.35912
 Alpha  occ. eigenvalues --   -0.29449  -0.29132  -0.28724  -0.28121  -0.28004
 Alpha  occ. eigenvalues --   -0.26918
 Alpha virt. eigenvalues --   -0.12457  -0.05803  -0.02866  -0.02027  -0.00641
 Alpha virt. eigenvalues --    0.00082   0.00941   0.01518   0.01762   0.02165
 Alpha virt. eigenvalues --    0.02439   0.03299   0.04078   0.04303   0.05036

  Beta  occ. eigenvalues --  -19.19083 -19.14435 -19.12970 -10.29398 -10.28270
  Beta  occ. eigenvalues --  -10.27822 -10.24738 -10.21170 -10.21006 -10.20126
  Beta  occ. eigenvalues --  -10.20062 -10.19937 -10.19916 -10.19912 -10.19068
  Beta  occ. eigenvalues --  -10.18088  -1.11312  -1.07449  -1.06284  -0.89315
  Beta  occ. eigenvalues --   -0.84218  -0.81094  -0.78134  -0.77385  -0.73225
  Beta  occ. eigenvalues --   -0.68766  -0.65449  -0.63310  -0.59800  -0.58249
  Beta  occ. eigenvalues --   -0.55876  -0.55086  -0.52709  -0.51007  -0.49952
  Beta  occ. eigenvalues --   -0.47738  -0.47229  -0.46479  -0.45492  -0.45386
  Beta  occ. eigenvalues --   -0.44798  -0.43874  -0.43063  -0.42182  -0.39382
  Beta  occ. eigenvalues --   -0.38704  -0.38415  -0.37228  -0.36707  -0.35912
  Beta  occ. eigenvalues --   -0.29449  -0.29132  -0.28724  -0.28121  -0.28004
  Beta  occ. eigenvalues --   -0.26918
  Beta virt. eigenvalues --   -0.12457  -0.05803  -0.02866  -0.02027  -0.00641
  Beta virt. eigenvalues --    0.00082   0.00941   0.01518   0.01762   0.02165
  Beta virt. eigenvalues --    0.02439   0.03299   0.04078   0.04303   0.05036

 Mulliken charges and spin densities:
               1          2
     1  C    0.287313  -0.000000
     2  C   -0.405453   0.000000
     3  C   -0.328253  -0.000000
     4  C    0.032108   0.000000
     5  C    0.503555   0.000000
     6  C    0.285072   0.000000
     7  C   -0.438755  -0.000000
     8  C   -0.637093  -0.000000
     9  C    0.385198   0.000000
    10  C   -0.192392   0.000000
    11  O   -0.277201  -0.000000
    12  O   -0.302458   0.000000
    13  H    0.183901  -0.000000
    14  H    0.180708   0.000000
    15  O   -0.062268   0.000000
    16  C   -0.330596  -0.000000
    17  C   -0.005224   0.000000
    18  C   -0.440769  -0.000000
    19  H    0.208612   0.000000
    20  H    0.209994  -0.000000
    21  H    0.253543   0.000000
    22  H    0.171849   0.000000
    23  H    0.191626  -0.000000
    24  H    0.207623   0.000000
    25  H    0.151830   0.000000
    26  H    0.167530   0.000000
 Sum of Mulliken charges =  -0.00000  -0.00000

 Dipole moment (field-independent basis, Debye):
    X=              0.2692    Y=             -0.0047    Z=             -0.0057  Tot=              0.2693
 Quadrupole moment (field-independent basis, Debye-Ang):
   XX=            -61.9190   YY=           -109.4199   ZZ=            -92.9865
   XY=             12.9219   XZ=             -0.2762   YZ=              0.9792

 Normal termination of Gaussian 16 at Sun Jan 21 08:04:27 2024.
