 Q-Chem 5.4, Q-Chem, Inc., Pleasanton, CA (2021)
 Q-Chem 5.4.0 for Intel X86 EM64T Linux

User input:
--------------------------------------------------------------
$molecule
-2 1
C                 -1.7105020000      2.9272360000     -0.8319000000
C                 -2.8461770000      2.1983630000     -0.5120390000
C                 -2.7171110000      0.8922520000     -0.0420790000
C                 -0.4376520000      2.3674130000     -0.6908970000
C                 -0.2932210000      1.0333230000     -0.2214800000
C                 -1.4517790000      0.3074770000      0.0978890000
C                  0.7320810000      3.1959900000     -1.0471010000
C                  2.1372190000      2.5575490000     -0.8727050000
C                  2.1815290000      1.1897350000     -0.3952200000
C                  1.0712100000      0.4752020000     -0.0934420000
O                  0.6461350000      4.3395900000     -1.4641450000
O                  3.1327940000      3.2172220000     -1.1416160000
H                 -1.7829430000      3.9443770000     -1.2000160000
H                 -3.8401590000      2.6118290000     -0.6293510000
S                 -4.2567660000      0.0074620000      0.4364720000
H                 -1.3737910000     -0.7129130000      0.4483090000
H                  3.1547460000      0.7286680000     -0.2776610000
S                  1.3563290000     -1.2576260000      0.4858990000
O                  2.8327320000     -1.4134140000      0.4870620000
O                  0.6613070000     -2.0797430000     -0.5322920000
O                  0.7437360000     -1.2827450000      1.8347140000
O                 -4.3635740000      0.2520900000      1.8984880000
O                 -4.0333940000     -1.4060870000      0.0608230000
O                 -5.3159810000      0.6926910000     -0.3567920000
$end
$rem
MAX_SCF_CYCLES=200
BASIS  =  6-311++G(d,p)
GUI  =  2
JOB_TYPE  =  SP
METHOD  =  B3LYP
SOLVENT_METHOD = COSMO
$end
$solvent
dielectric 37.219
opticaldielectric 1.43
$end

--------------------------------------------------------------

             Standard Nuclear Orientation (Angstroms)
    I     Atom           X                Y                Z
 ----------------------------------------------------------------
    1      C      -0.5559552140    -2.5187300803     0.0425824054
    2      C      -1.8138362502    -1.9348619154     0.0551474309
    3      C      -1.9289266994    -0.5456141494     0.0413195047
    4      C       0.5983580723    -1.7310701092     0.0184294175
    5      C       0.4944113955    -0.3132620714     0.0135082151
    6      C      -0.7854687411     0.2636539917     0.0269359945
    7      C       1.9082367464    -2.4135102088     0.0046527913
    8      C       3.1774185950    -1.5189669978    -0.0328112354
    9      C       2.9692889579    -0.0845583253    -0.0278863641
   10      C       1.7404777068     0.4845807824    -0.0046648996
   11      O       2.0362463230    -3.6269769255     0.0203195896
   12      O       4.2817742570    -2.0464361431    -0.0615522489
   13      H      -0.4384929137    -3.5964190678     0.0536257732
   14      H      -2.7178268698    -2.5301700281     0.0886983688
   15      S      -3.6245907880     0.1640044880    -0.0184016031
   16      H      -0.8959030587     1.3396819055     0.0332800337
   17      H       3.8460015495     0.5515654524    -0.0444935091
   18      S       1.7048187778     2.3333881735     0.0115025847
   19      O       3.1334013585     2.7353597961    -0.0285935074
   20      O       1.0211124066     2.6533504413     1.2865769353
   21      O       0.9433989434     2.6811270808    -1.2110032600
   22      O      -3.8631980737     0.3844670813    -1.4686444792
   23      O      -3.5648086237     1.3996693552     0.7931933858
   24      O      -4.4756083359    -0.9116739793     0.5642028430
 ----------------------------------------------------------------

   10   -1781.9485067713      9.41e-06  Convergence criterion met
 Total energy in the final basis set =    -1781.9485067713
    5   -1782.2016467757      8.39e-06  Convergence criterion met
 Total energy in the final basis set =    -1782.2016467757

                    Orbital Energies (a.u.)
 --------------------------------------------------------------

 Alpha MOs
 -- Occupied --
-89.0615 -89.0563 -19.1458 -19.1440 -19.1059 -19.1058 -19.1054 -19.1023
-19.1008 -19.0992 -10.2877 -10.2845 -10.2399 -10.2258 -10.2191 -10.2099
-10.2046 -10.2010 -10.1988 -10.1971  -8.1202  -8.1150  -6.0828  -6.0827
 -6.0822  -6.0777  -6.0776  -6.0769  -1.1265  -1.1204  -1.0844  -1.0574
 -0.9907  -0.9898  -0.9865  -0.9820  -0.8988  -0.8444  -0.7908  -0.7697
 -0.7248  -0.6646  -0.6471  -0.6297  -0.5937  -0.5765  -0.5477  -0.5286
 -0.5160  -0.4979  -0.4874  -0.4707  -0.4688  -0.4685  -0.4644  -0.4609
 -0.4582  -0.4543  -0.4511  -0.4249  -0.4139  -0.4065  -0.3942  -0.3780
 -0.3524  -0.3489  -0.3473  -0.3457  -0.3447  -0.3246  -0.3191  -0.3125
 -0.3071  -0.3035  -0.3005  -0.2986  -0.2762  -0.2703  -0.2680  -0.2667
 -0.2607

          Ground-State Mulliken Net Atomic Charges

     Atom                 Charge (a.u.)
  ----------------------------------------
      1 C                     0.195085
      2 C                    -0.429817
      3 C                    -0.378095
      4 C                     0.708664
      5 C                     0.321109
      6 C                    -0.836683
      7 C                    -0.708409
      8 C                     0.353654
      9 C                     0.105157
     10 C                    -0.697660
     11 O                    -0.285121
     12 O                    -0.330323
     13 H                     0.208833
     14 H                     0.257875
     15 S                     0.710971
     16 H                     0.180103
     17 H                     0.288532
     18 S                     0.588369
     19 O                    -0.322872
     20 O                    -0.358260
     21 O                    -0.356910
     22 O                    -0.383327
     23 O                    -0.401613
     24 O                    -0.429262
  ----------------------------------------
  Sum of atomic charges =    -2.000000

                    Cartesian Multipole Moments
 -----------------------------------------------------------------
    Charge (ESU x 10^10)
                -9.6064
    Dipole Moment (Debye)
         X       6.4930      Y     -10.7867      Z       0.3237
       Tot      12.5943
    Quadrupole Moments (Debye-Ang)
        XX    -259.8216     XY       6.0662     YY    -193.3954
        XZ      -0.7980     YZ      -0.4279     ZZ    -148.0627

 Total job time:  61.85s(wall), 477.92s(cpu)
        *  Thank you very much for using Q-Chem.  Have a nice day.  *
