 Q-Chem 5.4, Q-Chem, Inc., Pleasanton, CA (2021)
 Q-Chem 5.4.0 for Intel X86 EM64T Linux

User input:
--------------------------------------------------------------
$molecule
-1 2
C                  0.1450910000      3.7150200000     -0.1566110000
C                 -0.9276120000      3.6428140000     -1.0257770000
C                 -0.9479630000      2.6660880000     -2.0419720000
C                  1.2300780000      2.8189330000     -0.2705590000
C                  1.2114860000      1.8314290000     -1.2970910000
C                  0.1090360000      1.7791860000     -2.1678170000
C                  2.3527240000      2.8951760000      0.6401260000
C                  3.4151980000      1.9358800000      0.4438480000
C                  3.4259840000      0.9639220000     -0.5341730000
C                  2.3210970000      0.8688270000     -1.4636780000
O                  2.4712730000      3.7362030000      1.5909090000
O                  2.2961090000      0.0035090000     -2.3779080000
H                  0.1835160000      4.4572750000      0.6327560000
H                 -1.7555930000      4.3388920000     -0.9264390000
H                 -1.7909700000      2.6100880000     -2.7242690000
H                  0.1203110000      1.0186400000     -2.9403990000
O                  4.4393960000      2.0695670000      1.3361750000
H                  4.1305600000      2.8230130000      1.8867290000
C                  4.5753620000     -0.0010790000     -0.6772090000
C                  5.5964040000      0.4464990000     -1.7431860000
C                  6.7155240000     -0.5707600000     -2.0413340000
C                  7.5147440000     -0.1319210000     -3.2847680000
C                  8.5059020000     -1.1661230000     -3.8367000000
C                  9.1966880000     -0.7001090000     -5.1251950000
C                 10.1256370000     -1.7323360000     -5.7925200000
C                 10.5884730000     -1.2342790000     -7.1694020000
C                  7.6278900000     -0.7935580000     -0.8248090000
C                 11.3363070000     -2.0890210000     -4.9174780000
H                  4.1696110000     -0.9726050000     -0.9793060000
H                  5.0669780000     -0.1178260000      0.2916630000
H                  6.0453900000      1.3997190000     -1.4344410000
H                  5.0437130000      0.6395620000     -2.6677230000
H                  6.2303260000     -1.5280740000     -2.2827740000
H                  8.0528980000      0.7979040000     -3.0519060000
H                  6.8008430000      0.1227050000     -4.0775670000
H                  7.9694880000     -2.1037910000     -4.0366910000
H                  9.2594640000     -1.3989480000     -3.0779780000
H                  9.7723630000      0.2137010000     -4.9201540000
H                  8.4240000000     -0.4120500000     -5.8491670000
H                  9.5417360000     -2.6503210000     -5.9483880000
H                  9.7365720000     -1.0199360000     -7.8217550000
H                 11.2187080000     -1.9755090000     -7.6716440000
H                 11.1729150000     -0.3120040000     -7.0734280000
H                  8.3925070000     -1.5525590000     -1.0165730000
H                  7.0557930000     -1.1197760000      0.0463670000
H                  8.1385260000      0.1378070000     -0.5525980000
H                 11.0361220000     -2.5166740000     -3.9581420000
H                 11.9401940000     -1.1976610000     -4.7108720000
H                 11.9815130000     -2.8183500000     -5.4180630000
$end
$rem
MAX_SCF_CYCLES=200
BASIS  =  6-311++G(d,p)
GUI  =  2
JOB_TYPE  =  SP
SCF_CONVERGENCE  = 6
METHOD  =  B3LYP
SOLVENT_METHOD = COSMO
$end
$solvent
dielectric 37.219
opticaldielectric 1.43
$end

--------------------------------------------------------------

             Standard Nuclear Orientation (Angstroms)
    I     Atom           X                Y                Z
 ----------------------------------------------------------------
    1      C       5.7101032915     0.4473624887    -0.8612164321
    2      C       6.2010104648     1.7245756949    -0.6635006223
    3      C       5.4207536230     2.6834698069     0.0138334630
    4      C       4.4291565107     0.0839942874    -0.3918639596
    5      C       3.6390235767     1.0517570749     0.2925356994
    6      C       4.1613376575     2.3433141128     0.4805716522
    7      C       3.9160920536    -1.2536467599    -0.5991692827
    8      C       2.5951455365    -1.5303397777    -0.0832563614
    9      C       1.8071036780    -0.6200382270     0.5888186971
   10      C       2.2904761930     0.7267829604     0.8038107614
   11      O       4.5365805912    -2.1938644868    -1.1961225421
   12      O       1.5990779049     1.5918520416     1.4028433365
   13      H       6.2913366772    -0.3072837167    -1.3790929447
   14      H       7.1883769550     1.9902852515    -1.0301762313
   15      H       5.8071434780     3.6864883594     0.1686968270
   16      H       3.5392933221     3.0606671102     1.0039317695
   17      O       2.1772056296    -2.8084221320    -0.3176341803
   18      H       2.9483443007    -3.1889837317    -0.7937521021
   19      C       0.4347869865    -0.9844527508     1.0954793009
   20      C      -0.6873391187    -0.5604862041     0.1258169021
   21      C      -2.1198079614    -0.7712987220     0.6547108180
   22      C      -3.1371232211    -0.0855805974    -0.2792702871
   23      C      -4.5774354664    -0.0117922798     0.2467076693
   24      C      -5.5140745450     0.7634454589    -0.6893945667
   25      C      -6.9509792415     0.9679860364    -0.1724520892
   26      C      -7.7248196771     1.9273164888    -1.0883877002
   27      C      -2.4435059841    -2.2598895305     0.8579366470
   28      C      -7.7150999109    -0.3548550764    -0.0147957138
   29      H       0.2752118495    -0.4694253425     2.0489161286
   30      H       0.3936776296    -2.0618149208     1.2733272167
   31      H      -0.5675221614    -1.1008339742    -0.8224491238
   32      H      -0.5483736059     0.5025284932    -0.0937227694
   33      H      -2.1829482226    -0.2725711204     1.6332017756
   34      H      -3.1316402765    -0.6003477386    -1.2505548474
   35      H      -2.7864732775     0.9348440344    -0.4762410463
   36      H      -4.5734612448     0.4737538983     1.2321957576
   37      H      -4.9669168885    -1.0224407912     0.4036026976
   38      H      -5.5572999729     0.2561964961    -1.6637262790
   39      H      -5.0733241086     1.7494491146    -0.8835492300
   40      H      -6.8818242902     1.4362283817     0.8194644245
   41      H      -7.2164057782     2.8924391495    -1.1738056674
   42      H      -8.7359863950     2.1119350314    -0.7111305507
   43      H      -7.8180424998     1.5111386994    -2.0980808163
   44      H      -3.4413364742    -2.4106546541     1.2811378956
   45      H      -1.7278206950    -2.7334433595     1.5333640094
   46      H      -2.3981692523    -2.7962018909    -0.0973655822
   47      H      -7.2247563813    -1.0291395745     0.6910564819
   48      H      -7.7894034932    -0.8755766630    -0.9766773096
   49      H      -8.7334188741    -0.1795068316     0.3472490311
 ----------------------------------------------------------------

   14   -1003.8400386189      4.96e-07  Convergence criterion met
 Total energy in the final basis set =    -1003.8400386189
    6   -1003.9205287326      9.57e-07  Convergence criterion met
 Total energy in the final basis set =    -1003.9205287326

                    Orbital Energies (a.u.)
 --------------------------------------------------------------

 Alpha MOs
 -- Occupied --
-19.1442 -19.0888 -19.0770 -10.2252 -10.2233 -10.2224 -10.1755 -10.1733
-10.1720 -10.1711 -10.1708 -10.1694 -10.1655 -10.1634 -10.1625 -10.1561
-10.1539 -10.1536 -10.1529 -10.1526 -10.1492 -10.1488 -10.1471  -1.0643
 -1.0025  -0.9989  -0.8591  -0.8182  -0.8084  -0.7950  -0.7617  -0.7512
 -0.7379  -0.7071  -0.6769  -0.6727  -0.6677  -0.6374  -0.6165  -0.5983
 -0.5762  -0.5687  -0.5545  -0.5459  -0.5372  -0.5050  -0.4850  -0.4723
 -0.4637  -0.4551  -0.4497  -0.4390  -0.4364  -0.4318  -0.4279  -0.4255
 -0.4198  -0.4136  -0.4091  -0.3969  -0.3908  -0.3843  -0.3825  -0.3778
 -0.3745  -0.3744  -0.3683  -0.3541  -0.3494  -0.3463  -0.3441  -0.3420
 -0.3381  -0.3341  -0.3234  -0.3157  -0.3125  -0.3113  -0.3054  -0.2954
 -0.2687  -0.2629  -0.2586  -0.2422  -0.2281  -0.1533

 Beta MOs
 -- Occupied --
-19.1437 -19.0827 -19.0718 -10.2238 -10.2215 -10.2202 -10.1754 -10.1722
-10.1720 -10.1703 -10.1702 -10.1695 -10.1655 -10.1627 -10.1625 -10.1562
-10.1539 -10.1536 -10.1529 -10.1526 -10.1492 -10.1488 -10.1471  -1.0621
 -0.9934  -0.9885  -0.8567  -0.8173  -0.8067  -0.7937  -0.7600  -0.7491
 -0.7373  -0.7055  -0.6769  -0.6695  -0.6629  -0.6360  -0.6147  -0.5965
 -0.5753  -0.5662  -0.5545  -0.5458  -0.5355  -0.5027  -0.4823  -0.4722
 -0.4623  -0.4541  -0.4493  -0.4365  -0.4328  -0.4309  -0.4253  -0.4211
 -0.4154  -0.4112  -0.4079  -0.3947  -0.3832  -0.3816  -0.3787  -0.3774
 -0.3736  -0.3731  -0.3589  -0.3536  -0.3475  -0.3434  -0.3399  -0.3372
 -0.3334  -0.3297  -0.3229  -0.3154  -0.3124  -0.3111  -0.3053  -0.2948
 -0.2576  -0.2517  -0.2494  -0.2373  -0.2196

          Ground-State Mulliken Net Atomic Charges

     Atom                 Charge (a.u.)    Spin (a.u.)
  --------------------------------------------------------
      1 C                    -0.021341       0.075567
      2 C                    -0.373336      -0.001258
      3 C                    -0.515835       0.073490
      4 C                     0.531360      -0.007768
      5 C                    -0.190003       0.061465
      6 C                     0.115279       0.006040
      7 C                    -0.963029       0.178655
      8 C                    -0.758161       0.053133
      9 C                     2.124688       0.050400
     10 C                    -0.776428       0.083203
     11 O                    -0.554154       0.222251
     12 O                    -0.477378       0.192813
     13 H                     0.179786      -0.004102
     14 H                     0.205192      -0.000639
     15 H                     0.199594      -0.005110
     16 H                     0.179662      -0.000351
     17 O                    -0.289679       0.016300
     18 H                     0.306454      -0.003540
     19 C                    -0.041239       0.009734
     20 C                    -1.112706      -0.003326
     21 C                     1.200967       0.005684
     22 C                    -0.699017      -0.006724
     23 C                    -0.016729       0.000001
     24 C                    -0.831058       0.000127
     25 C                     0.510787       0.000096
     26 C                    -0.679724       0.000013
     27 C                    -0.756197       0.000310
     28 C                    -0.701882      -0.000020
     29 H                     0.209347       0.002745
     30 H                     0.215211      -0.000996
     31 H                     0.177494       0.001893
     32 H                     0.174427      -0.000710
     33 H                     0.129766       0.000716
     34 H                     0.150770      -0.000019
     35 H                     0.111164      -0.000191
     36 H                     0.153001      -0.000009
     37 H                     0.094498       0.000059
     38 H                     0.145408      -0.000003
     39 H                     0.134093      -0.000018
     40 H                     0.144115       0.000001
     41 H                     0.142121      -0.000001
     42 H                     0.163788      -0.000003
     43 H                     0.146285      -0.000001
     44 H                     0.154479       0.000083
     45 H                     0.145811       0.000026
     46 H                     0.160807      -0.000021
     47 H                     0.148264       0.000003
     48 H                     0.152159       0.000000
     49 H                     0.151114       0.000000
  --------------------------------------------------------
  Sum of atomic charges =    -1.000004

                    Cartesian Multipole Moments
 -----------------------------------------------------------------
    Charge (ESU x 10^10)
                -4.8032
    Dipole Moment (Debye)
         X     -13.5845      Y       1.8888      Z      -0.7223
       Tot      13.7342
    Quadrupole Moments (Debye-Ang)
        XX    -195.9112     XY      16.9450     YY    -163.2769
        XZ       3.1973     YZ      -9.0127     ZZ    -155.2935

 Total job time:  336.82s(wall), 2530.07s(cpu)
        *  Thank you very much for using Q-Chem.  Have a nice day.  *
