 Q-Chem 5.4, Q-Chem, Inc., Pleasanton, CA (2021)
 Q-Chem 5.4.0 for Intel X86 EM64T Linux

User input:
--------------------------------------------------------------
$molecule
0 1
C                 -3.1102520000     -3.1753350000     -0.8321460000
C                 -2.0715450000     -2.0937120000     -0.9780740000
C                 -2.4639930000     -0.8035050000     -0.8278200000
C                 -3.8413120000     -0.4062430000     -0.5033620000
C                 -4.8552650000     -1.4842220000     -0.3871110000
C                 -4.5100470000     -2.7659620000     -0.5501720000
O                 -2.8290500000     -4.3578220000     -0.9176320000
O                 -4.1529330000      0.7678660000     -0.3489660000
C                 -0.6746550000     -2.4527160000     -1.2106840000
C                 -0.0801230000     -3.4451720000     -2.0892910000
C                  0.3774980000     -1.7949770000     -0.6031460000
C                  1.3261540000     -3.3126360000     -1.9620760000
N                  1.5679800000     -2.3040560000     -1.0449680000
C                 -0.5787450000     -4.3912660000     -2.9999230000
C                  0.3134540000     -5.1642760000     -3.7269780000
C                  1.7050580000     -5.0205780000     -3.5716550000
C                  2.2304790000     -4.0906720000     -2.6872580000
H                 -1.7655980000      0.0157500000     -0.9571360000
H                 -5.8697200000     -1.1703170000     -0.1669990000
H                 -5.2214960000     -3.5809270000     -0.4740170000
H                  0.3504150000     -1.0170810000      0.1438510000
H                  2.4752690000     -2.0290910000     -0.7063340000
H                 -1.6440300000     -4.5341590000     -3.1168810000
H                 -0.0671420000     -5.9010280000     -4.4249750000
H                  2.3751550000     -5.6444650000     -4.1517420000
H                  3.3014850000     -3.9695170000     -2.5682540000
$end
$rem
MAX_SCF_CYCLES=200
BASIS  =  6-311++G(d,p)
GUI  =  2
JOB_TYPE  =  SP
METHOD  =  B3LYP
SOLVENT_METHOD = COSMO
$end
$solvent
dielectric 37.219
opticaldielectric 1.43
$end

--------------------------------------------------------------

             Standard Nuclear Orientation (Angstroms)
    I     Atom           X                Y                Z
 ----------------------------------------------------------------
    1      C       1.4932822013    -1.2104161406    -0.5356755034
    2      C       1.1093705685     0.1718416933    -0.0751424797
    3      C       2.0875826956     0.9849652246     0.3972524370
    4      C       3.5046651032     0.5998977337     0.4580652300
    5      C       3.8599484548    -0.7740035671     0.0223788046
    6      C       2.9196313637    -1.6111928393    -0.4287749117
    7      O       0.6784811439    -1.9853061671    -1.0050395517
    8      O       4.3640186335     1.3708581269     0.8662432529
    9      C      -0.2738361426     0.6239589709    -0.2040692727
   10      C      -1.5274711892    -0.0545801621     0.0758794480
   11      C      -0.6079890630     1.9044929975    -0.6007093885
   12      C      -2.5624107138     0.8849434109    -0.1640373803
   13      N      -1.9666629547     2.0632740210    -0.5804771661
   14      C      -1.8831305544    -1.3291776812     0.5469165752
   15      C      -3.2226089609    -1.6256047397     0.7471691314
   16      C      -4.2306693492    -0.6777492420     0.4888664962
   17      C      -3.9134509820     0.5920916625     0.0307976863
   18      H       1.8620128876     1.9762047962     0.7743722221
   19      H       4.9072081363    -1.0466525028     0.0931905683
   20      H       3.1394474514    -2.6218720707    -0.7548663001
   21      H       0.0385553172     2.7030920319    -0.9294648301
   22      H      -2.4564765194     2.8891726621    -0.8828447787
   23      H      -1.1262741844    -2.0795329390     0.7287547909
   24      H      -3.5019685437    -2.6105817682     1.1030274089
   25      H      -5.2688589297    -0.9435256945     0.6510120414
   26      H      -4.6844837442     1.3295577311    -0.1629718039
 ----------------------------------------------------------------

    9    -744.2784671188      8.15e-06  Convergence criterion met
 Total energy in the final basis set =     -744.2784671188
    5    -744.3014774735      6.49e-06  Convergence criterion met
 Total energy in the final basis set =     -744.3014774735

                    Orbital Energies (a.u.)
 --------------------------------------------------------------

 Alpha MOs
 -- Occupied --
-19.1444 -19.1372 -14.3695 -10.2901 -10.2818 -10.2248 -10.2220 -10.2164
-10.2089 -10.2080 -10.1987 -10.1905 -10.1867 -10.1813 -10.1778 -10.1765
-10.1724  -1.0766  -1.0667  -0.9967  -0.8666  -0.8538  -0.8196  -0.7773
 -0.7485  -0.7323  -0.7079  -0.6538  -0.6349  -0.6169  -0.6016  -0.5719
 -0.5502  -0.5231  -0.5089  -0.4942  -0.4887  -0.4799  -0.4593  -0.4495
 -0.4483  -0.4410  -0.4371  -0.4363  -0.4280  -0.4201  -0.4076  -0.4018
 -0.3698  -0.3521  -0.3505  -0.3225  -0.3088  -0.2922  -0.2820  -0.2786
 -0.2417  -0.2204

          Ground-State Mulliken Net Atomic Charges

     Atom                 Charge (a.u.)
  ----------------------------------------
      1 C                    -1.177850
      2 C                     1.368897
      3 C                    -0.650922
      4 C                    -0.293419
      5 C                     0.009474
      6 C                     0.117960
      7 O                    -0.262519
      8 O                    -0.345010
      9 C                     0.556198
     10 C                     1.238151
     11 C                    -0.265685
     12 C                     0.079323
     13 N                    -0.111406
     14 C                    -0.993494
     15 C                    -0.556473
     16 C                    -0.302521
     17 C                    -0.578744
     18 H                     0.241895
     19 H                     0.262401
     20 H                     0.262616
     21 H                     0.240975
     22 H                     0.371551
     23 H                     0.166471
     24 H                     0.209132
     25 H                     0.204835
     26 H                     0.208164
  ----------------------------------------
  Sum of atomic charges =     0.000000

                    Cartesian Multipole Moments
 -----------------------------------------------------------------
    Charge (ESU x 10^10)
                -0.0000
    Dipole Moment (Debye)
         X      -3.1889      Y       2.7926      Z      -1.2901
       Tot       4.4309
    Quadrupole Moments (Debye-Ang)
        XX     -98.4131     XY     -23.2917     YY     -86.5711
        XZ      -4.9656     YZ     -11.1788     ZZ    -102.8882

 Total job time:  52.80s(wall), 397.41s(cpu)
        *  Thank you very much for using Q-Chem.  Have a nice day.  *
