 Q-Chem 5.4, Q-Chem, Inc., Pleasanton, CA (2021)
 Q-Chem 5.4.0 for Intel X86 EM64T Linux

User input:
--------------------------------------------------------------
$molecule
-2 1
C                  1.8198350000      0.9016420000     -0.9106720000
C                  0.6110830000      1.3504190000     -0.2987200000
C                 -0.3853440000      0.4897630000      0.2062670000
C                 -0.2672530000     -0.9319410000      0.2484850000
C                  0.9633200000     -1.3875710000     -0.3587070000
C                  1.9344690000     -0.5394090000     -0.8815620000
O                  2.7024300000      1.6515440000     -1.4723220000
O                 -1.1079140000     -1.7410520000      0.7920310000
O                  3.0336290000     -1.1267680000     -1.5114340000
C                  4.2814150000     -0.7704520000     -0.9405950000
Br                 0.3207580000      3.2801900000     -0.4158450000
Br                -1.9619270000      1.1916770000      1.1248460000
H                  4.3975680000      0.3179580000     -0.9337540000
H                  5.0565820000     -1.2298670000     -1.5667710000
H                  4.3706530000     -1.1709370000      0.0826620000
O                  1.2498720000     -2.7538120000     -0.3242850000
C                  0.3173650000     -3.5547340000     -1.0305220000
H                 -0.6947250000     -3.3803310000     -0.6518110000
H                  0.6094100000     -4.5991410000     -0.8633080000
H                  0.3625430000     -3.3440890000     -2.1117210000
$end
$rem
MAX_SCF_CYCLES=200
BASIS  =  6-311++G(d,p)
GUI  =  2
JOB_TYPE  =  SP
METHOD  =  B3LYP
SOLVENT_METHOD = PCM
$end
$pcm
theory = CPCM
$end
$solvent
dielectric 37.219
opticaldielectric 1.43
$end

--------------------------------------------------------------

             Standard Nuclear Orientation (Angstroms)
    I     Atom           X                Y                Z
 ----------------------------------------------------------------
    1      C       1.8198350000     0.9016420000    -0.9106720000
    2      C       0.6110830000     1.3504190000    -0.2987200000
    3      C      -0.3853440000     0.4897630000     0.2062670000
    4      C      -0.2672530000    -0.9319410000     0.2484850000
    5      C       0.9633200000    -1.3875710000    -0.3587070000
    6      C       1.9344690000    -0.5394090000    -0.8815620000
    7      O       2.7024300000     1.6515440000    -1.4723220000
    8      O      -1.1079140000    -1.7410520000     0.7920310000
    9      O       3.0336290000    -1.1267680000    -1.5114340000
   10      C       4.2814150000    -0.7704520000    -0.9405950000
   11      Br      0.3207580000     3.2801900000    -0.4158450000
   12      Br     -1.9619270000     1.1916770000     1.1248460000
   13      H       4.3975680000     0.3179580000    -0.9337540000
   14      H       5.0565820000    -1.2298670000    -1.5667710000
   15      H       4.3706530000    -1.1709370000     0.0826620000
   16      O       1.2498720000    -2.7538120000    -0.3242850000
   17      C       0.3173650000    -3.5547340000    -1.0305220000
   18      H      -0.6947250000    -3.3803310000    -0.6518110000
   19      H       0.6094100000    -4.5991410000    -0.8633080000
   20      H       0.3625430000    -3.3440890000    -2.1117210000
 ----------------------------------------------------------------

    9   -5758.0316148273      5.35e-06  Convergence criterion met
 Total energy in the final basis set =    -5758.0316148273

                    Orbital Energies (a.u.)
 --------------------------------------------------------------

 Alpha MOs
 -- Occupied --
********-482.8094 -62.4622 -62.4622 -56.2825 -56.2825 -56.2791 -56.2790
-56.2788 -56.2787 -19.1219 -19.1219 -19.0310 -19.0310 -10.1948 -10.1948
-10.1935 -10.1929 -10.1925 -10.1925 -10.1924 -10.1920  -8.6708  -8.6708
 -6.5015  -6.5014  -6.4900  -6.4900  -6.4892  -6.4892  -2.6126  -2.6125
 -2.6094  -2.6093  -2.6088  -2.6088  -2.5997  -2.5996  -2.5996  -2.5996
 -1.0424  -1.0241  -0.9493  -0.9462  -0.8235  -0.7702  -0.7669  -0.7053
 -0.6890  -0.6473  -0.6388  -0.5566  -0.5473  -0.4948  -0.4736  -0.4667
 -0.4505  -0.4311  -0.4254  -0.4123  -0.4038  -0.3794  -0.3775  -0.3586
 -0.3544  -0.3348  -0.3343  -0.3328  -0.3038  -0.2890  -0.2843  -0.2708
 -0.2696  -0.2585  -0.2346  -0.2107  -0.2100  -0.2017  -0.1357

          Ground-State Mulliken Net Atomic Charges

     Atom                 Charge (a.u.)
  ----------------------------------------
      1 C                    -0.466414
      2 C                     0.453502
      3 C                     0.454099
      4 C                    -0.464141
      5 C                    -0.080826
      6 C                    -0.077342
      7 O                    -0.639754
      8 O                    -0.639952
      9 O                    -0.216367
     10 C                    -0.271067
     11 Br                   -0.240437
     12 Br                   -0.241577
     13 H                     0.173734
     14 H                     0.152290
     15 H                     0.132765
     16 O                    -0.216004
     17 C                    -0.270924
     18 H                     0.173470
     19 H                     0.152082
     20 H                     0.132863
  ----------------------------------------
  Sum of atomic charges =    -2.000000

                    Cartesian Multipole Moments
 -----------------------------------------------------------------
    Charge (ESU x 10^10)
                -9.6064
    Dipole Moment (Debye)
         X      -5.3731      Y      -2.7923      Z       2.2857
       Tot       6.4724
    Quadrupole Moments (Debye-Ang)
        XX    -147.0972     XY     -13.7764     YY    -149.6276
        XZ      22.9171     YZ      13.7205     ZZ    -129.1743

 Total job time:  56.81s(wall), 229.26s(cpu)
        *  Thank you very much for using Q-Chem.  Have a nice day.  *
