 Q-Chem 5.4, Q-Chem, Inc., Pleasanton, CA (2021)
 Q-Chem 5.4.0 for Intel X86 EM64T Linux

User input:
--------------------------------------------------------------
$molecule
-1 2
C                 -4.3943220000     -0.3390470000      0.2155570000
C                 -2.9145220000     -0.6248850000      0.2442970000
C                 -2.4390300000     -1.9379030000      0.4073310000
C                 -1.0890080000     -2.2157380000      0.4654000000
C                 -0.1402930000     -1.1824390000      0.3439860000
C                  1.2796140000     -1.5461000000      0.3994430000
O                  1.6535350000     -2.7329460000      0.5724950000
C                  2.2373160000     -0.4553740000      0.2378070000
C                  3.6218350000     -0.7311190000      0.2795080000
C                  4.5556210000      0.2731380000      0.1223810000
C                  4.1279080000      1.6038160000     -0.0854120000
C                  2.7793530000      1.8953980000     -0.1303810000
C                  1.8052910000      0.8837500000      0.0297620000
C                  0.3898040000      1.2441180000     -0.0227450000
O                  0.0556970000      2.4537070000     -0.2322850000
C                 -0.5781100000      0.1678970000      0.1618160000
C                 -1.9925520000      0.4277790000      0.1321870000
N                 -2.4530830000      1.7327160000      0.0394460000
H                 -4.7205490000      0.0966590000     -0.7406500000
H                 -4.6871370000      0.3700110000      1.0008970000
H                 -4.9682280000     -1.2575540000      0.3615100000
H                 -3.1614460000     -2.7458510000      0.4975680000
H                 -0.7191820000     -3.2242830000      0.6002990000
H                  3.9180470000     -1.7616750000      0.4384560000
H                  5.6165590000      0.0431160000      0.1575930000
H                  4.8606690000      2.3960320000     -0.2088500000
H                  2.4249470000      2.9071350000     -0.2881470000
H                 -3.3575690000      1.8646690000     -0.3846740000
H                 -1.7111640000      2.3949740000     -0.2031650000
$end
$rem
MAX_SCF_CYCLES=200
BASIS  =  6-311++G(d,p)
GUI  =  2
JOB_TYPE  =  SP
METHOD  =  B3LYP
SOLVENT_METHOD = PCM
$end
$pcm
theory = CPCM
$end
$solvent
dielectric 37.219
opticaldielectric 1.43
$end

--------------------------------------------------------------

             Standard Nuclear Orientation (Angstroms)
    I     Atom           X                Y                Z
 ----------------------------------------------------------------
    1      C      -4.3943220000    -0.3390470000     0.2155570000
    2      C      -2.9145220000    -0.6248850000     0.2442970000
    3      C      -2.4390300000    -1.9379030000     0.4073310000
    4      C      -1.0890080000    -2.2157380000     0.4654000000
    5      C      -0.1402930000    -1.1824390000     0.3439860000
    6      C       1.2796140000    -1.5461000000     0.3994430000
    7      O       1.6535350000    -2.7329460000     0.5724950000
    8      C       2.2373160000    -0.4553740000     0.2378070000
    9      C       3.6218350000    -0.7311190000     0.2795080000
   10      C       4.5556210000     0.2731380000     0.1223810000
   11      C       4.1279080000     1.6038160000    -0.0854120000
   12      C       2.7793530000     1.8953980000    -0.1303810000
   13      C       1.8052910000     0.8837500000     0.0297620000
   14      C       0.3898040000     1.2441180000    -0.0227450000
   15      O       0.0556970000     2.4537070000    -0.2322850000
   16      C      -0.5781100000     0.1678970000     0.1618160000
   17      C      -1.9925520000     0.4277790000     0.1321870000
   18      N      -2.4530830000     1.7327160000     0.0394460000
   19      H      -4.7205490000     0.0966590000    -0.7406500000
   20      H      -4.6871370000     0.3700110000     1.0008970000
   21      H      -4.9682280000    -1.2575540000     0.3615100000
   22      H      -3.1614460000    -2.7458510000     0.4975680000
   23      H      -0.7191820000    -3.2242830000     0.6002990000
   24      H       3.9180470000    -1.7616750000     0.4384560000
   25      H       5.6165590000     0.0431160000     0.1575930000
   26      H       4.8606690000     2.3960320000    -0.2088500000
   27      H       2.4249470000     2.9071350000    -0.2881470000
   28      H      -3.3575690000     1.8646690000    -0.3846740000
   29      H      -1.7111640000     2.3949740000    -0.2031650000
 ----------------------------------------------------------------

    8    -783.8072333796      6.35e-06  Convergence criterion met
 Total energy in the final basis set =     -783.8072333796

                    Orbital Energies (a.u.)
 --------------------------------------------------------------

 Alpha MOs
 -- Occupied --
-19.0783 -19.0733 -14.3013 -10.2272 -10.2219 -10.2110 -10.1713 -10.1709
-10.1707 -10.1702 -10.1696 -10.1695 -10.1682 -10.1680 -10.1680 -10.1658
-10.1607 -10.1554  -1.0045  -1.0004  -0.9111  -0.8566  -0.8353  -0.7881
 -0.7528  -0.7490  -0.7281  -0.6914  -0.6570  -0.6281  -0.6103  -0.5787
 -0.5567  -0.5420  -0.5163  -0.4962  -0.4741  -0.4695  -0.4487  -0.4402
 -0.4353  -0.4268  -0.4220  -0.4152  -0.4118  -0.4083  -0.3945  -0.3816
 -0.3765  -0.3668  -0.3641  -0.3495  -0.3423  -0.3387  -0.3332  -0.3076
 -0.2654  -0.2559  -0.2479  -0.2425  -0.2372  -0.2094  -0.1378

 Beta MOs
 -- Occupied --
-19.0736 -19.0685 -14.3011 -10.2251 -10.2199 -10.2108 -10.1712 -10.1702
-10.1700 -10.1696 -10.1689 -10.1684 -10.1680 -10.1679 -10.1676 -10.1655
-10.1608 -10.1549  -0.9961  -0.9916  -0.9102  -0.8543  -0.8338  -0.7847
 -0.7507  -0.7468  -0.7262  -0.6890  -0.6511  -0.6263  -0.6083  -0.5777
 -0.5544  -0.5402  -0.5146  -0.4952  -0.4720  -0.4670  -0.4479  -0.4389
 -0.4341  -0.4215  -0.4208  -0.4131  -0.4042  -0.4035  -0.3925  -0.3759
 -0.3659  -0.3645  -0.3574  -0.3485  -0.3409  -0.3328  -0.3275  -0.3017
 -0.2490  -0.2477  -0.2436  -0.2378  -0.2327  -0.2012

          Ground-State Mulliken Net Atomic Charges

     Atom                 Charge (a.u.)    Spin (a.u.)
  --------------------------------------------------------
      1 C                    -0.487036      -0.003304
      2 C                     0.610793       0.074376
      3 C                    -0.831882       0.012851
      4 C                    -0.168456       0.064461
      5 C                     0.496886       0.030771
      6 C                    -0.584355       0.115670
      7 O                    -0.486529       0.187158
      8 C                     0.054960       0.031834
      9 C                     0.076493       0.034120
     10 C                    -0.481596       0.036008
     11 C                    -0.543073       0.043752
     12 C                     0.134389       0.026505
     13 C                     0.101957       0.031358
     14 C                    -0.438743       0.119143
     15 O                    -0.476628       0.176621
     16 C                     0.126133       0.000355
     17 C                     0.137778       0.017783
     18 N                    -0.437224       0.011695
     19 H                     0.180221       0.003521
     20 H                     0.176679       0.003617
     21 H                     0.176904       0.000115
     22 H                     0.162919      -0.002195
     23 H                     0.163435      -0.004302
     24 H                     0.166676      -0.001750
     25 H                     0.195615      -0.002922
     26 H                     0.195478      -0.003610
     27 H                     0.173095      -0.000755
     28 H                     0.276349      -0.000784
     29 H                     0.328761      -0.002096
  --------------------------------------------------------
  Sum of atomic charges =    -1.000000

                    Cartesian Multipole Moments
 -----------------------------------------------------------------
    Charge (ESU x 10^10)
                -4.8032
    Dipole Moment (Debye)
         X      -5.5078      Y       2.2889      Z      -2.1093
       Tot       6.3265
    Quadrupole Moments (Debye-Ang)
        XX    -103.4826     XY       9.8870     YY    -137.2963
        XZ       0.8760     YZ       2.0309     ZZ    -114.1565

 Total job time:  223.62s(wall), 408.14s(cpu)
        *  Thank you very much for using Q-Chem.  Have a nice day.  *
