 Gaussian 16, Revision A.03,
 Gaussian 16:  ES64L-G16RevA.03 25-Dec-2016

 ----------------------------------------------------------------------
 #P UB3LYP/6-311++G(d,p) nosym opt freq SCRF=(PCM,Solvent=n,n-DiMethylF
 ormamide)
 ----------------------------------------------------------------------

 -------
 Reduced
 -------
 Symbolic Z-matrix:
 Charge = -2 Multiplicity = 1

 SCF Done:  E(UB3LYP) =  -948.279998886     A.U. after   23 cycles
 SCF Done:  E(UB3LYP) =  -948.277845299     A.U. after   18 cycles
 SCF Done:  E(UB3LYP) =  -948.280330012     A.U. after   17 cycles
 SCF Done:  E(UB3LYP) =  -948.281364891     A.U. after   16 cycles
 SCF Done:  E(UB3LYP) =  -948.279891062     A.U. after   17 cycles
 SCF Done:  E(UB3LYP) =  -948.282160018     A.U. after   16 cycles
 SCF Done:  E(UB3LYP) =  -948.282276454     A.U. after   17 cycles
 SCF Done:  E(UB3LYP) =  -948.282709081     A.U. after   16 cycles
 SCF Done:  E(UB3LYP) =  -948.282777049     A.U. after   16 cycles
 SCF Done:  E(UB3LYP) =  -948.282804562     A.U. after   15 cycles
 SCF Done:  E(UB3LYP) =  -948.282818929     A.U. after   14 cycles
 SCF Done:  E(UB3LYP) =  -948.282828973     A.U. after   13 cycles
 SCF Done:  E(UB3LYP) =  -948.282832031     A.U. after   16 cycles
 SCF Done:  E(UB3LYP) =  -948.282836333     A.U. after   15 cycles
 SCF Done:  E(UB3LYP) =  -948.282838079     A.U. after   14 cycles
 SCF Done:  E(UB3LYP) =  -948.282839250     A.U. after   12 cycles
 SCF Done:  E(UB3LYP) =  -948.282839342     A.U. after   12 cycles
 SCF Done:  E(UB3LYP) =  -948.282839355     A.U. after   10 cycles
 Optimization completed.
    -- Stationary point found.
 Normal termination of Gaussian 16 at Sat Feb 10 12:46:37 2024.

 ----------------------------------------------------------------------
 #P Geom=AllCheck Guess=TCheck SCRF=Check GenChk UB3LYP/6-311++G(d,p) F
 req
 ----------------------------------------------------------------------

 Structure from the checkpoint file:  "035-an.chk"
 -------
 Reduced
 -------
 Charge = -2 Multiplicity = 1

                          Input orientation:
 ---------------------------------------------------------------------
 Center     Atomic      Atomic             Coordinates (Angstroms)
 Number     Number       Type             X           Y           Z
 ---------------------------------------------------------------------
      1          6           0        2.414316   -4.815488    2.067154
      2          6           0        2.425042   -3.921003    0.935373
      3          6           0        2.098155   -2.584509    0.888920
      4          6           0        1.679370   -1.940278    2.127899
      5          6           0        1.633309   -2.828072    3.281575
      6          6           0        1.993783   -4.206844    3.268932
      7          8           0        2.806641   -6.044835    1.948354
      8          8           0        1.321727   -0.722107    2.135546
      9          6           0        2.083808   -5.045067    4.521156
     10          6           0        2.161695   -1.783312   -0.407268
     11          6           0        0.772431   -1.293118   -0.860880
     12          6           0        3.173507   -0.623364   -0.335429
     13          7           0        2.885850   -4.580661   -0.312529
     14          7           0        1.062820   -2.294508    4.471875
     15          1           0        2.312347   -4.447489    5.405292
     16          1           0        2.868096   -5.792023    4.382480
     17          1           0        1.154440   -5.585522    4.734299
     18          1           0        2.521329   -2.451924   -1.194738
     19          1           0        0.850821   -0.780324   -1.825280
     20          1           0        0.351857   -0.602548   -0.129796
     21          1           0        0.082097   -2.132998   -0.982696
     22          1           0        3.243597   -0.124738   -1.307790
     23          1           0        4.170469   -0.989724   -0.073429
     24          1           0        2.866515    0.108170    0.412323
     25          8           0        4.078355   -4.524011   -0.593638
     26          8           0        2.055764   -5.168292   -0.996891
     27          8           0        0.276194   -3.005745    5.148738
     28          8           0        1.325284   -1.126875    4.827491
 ---------------------------------------------------------------------

 SCF Done:  E(UB3LYP) =  -948.282839355     A.U. after    1 cycles

 Alpha  occ. eigenvalues --  -19.16476 -19.16465 -19.12070 -19.11734 -19.04397
 Alpha  occ. eigenvalues --  -19.03082 -14.54785 -14.50486 -10.21349 -10.20267
 Alpha  occ. eigenvalues --  -10.19612 -10.18787 -10.17281 -10.16733 -10.15284
 Alpha  occ. eigenvalues --  -10.14512 -10.14505 -10.14399  -1.23630  -1.18143
 Alpha  occ. eigenvalues --   -1.06156  -1.00496  -0.96943  -0.94942  -0.84092
 Alpha  occ. eigenvalues --   -0.81074  -0.77686  -0.73318  -0.71016  -0.67279
 Alpha  occ. eigenvalues --   -0.65897  -0.61338  -0.58938  -0.56676  -0.54650
 Alpha  occ. eigenvalues --   -0.53292  -0.52727  -0.52424  -0.49572  -0.48923
 Alpha  occ. eigenvalues --   -0.48134  -0.45424  -0.42771  -0.42352  -0.41030
 Alpha  occ. eigenvalues --   -0.39797  -0.39160  -0.38052  -0.38011  -0.36494
 Alpha  occ. eigenvalues --   -0.35962  -0.35684  -0.33832  -0.33186  -0.33003
 Alpha  occ. eigenvalues --   -0.32581  -0.32308  -0.31343  -0.30733  -0.29313
 Alpha  occ. eigenvalues --   -0.28522  -0.26822  -0.24538  -0.23073  -0.21674
 Alpha  occ. eigenvalues --   -0.21109  -0.14194
 Alpha virt. eigenvalues --   -0.08011  -0.06468   0.00026   0.00902   0.01236
 Alpha virt. eigenvalues --    0.02104   0.02484   0.03289   0.04085   0.04321
 Alpha virt. eigenvalues --    0.04983   0.05438   0.05664   0.05863   0.06502

  Beta  occ. eigenvalues --  -19.16476 -19.16465 -19.12070 -19.11734 -19.04397
  Beta  occ. eigenvalues --  -19.03082 -14.54785 -14.50486 -10.21349 -10.20267
  Beta  occ. eigenvalues --  -10.19612 -10.18787 -10.17281 -10.16733 -10.15284
  Beta  occ. eigenvalues --  -10.14512 -10.14505 -10.14399  -1.23630  -1.18143
  Beta  occ. eigenvalues --   -1.06156  -1.00496  -0.96943  -0.94942  -0.84092
  Beta  occ. eigenvalues --   -0.81074  -0.77686  -0.73318  -0.71016  -0.67279
  Beta  occ. eigenvalues --   -0.65897  -0.61338  -0.58938  -0.56676  -0.54650
  Beta  occ. eigenvalues --   -0.53292  -0.52727  -0.52424  -0.49572  -0.48923
  Beta  occ. eigenvalues --   -0.48134  -0.45424  -0.42771  -0.42352  -0.41030
  Beta  occ. eigenvalues --   -0.39797  -0.39160  -0.38052  -0.38011  -0.36494
  Beta  occ. eigenvalues --   -0.35962  -0.35684  -0.33832  -0.33186  -0.33003
  Beta  occ. eigenvalues --   -0.32581  -0.32308  -0.31343  -0.30733  -0.29313
  Beta  occ. eigenvalues --   -0.28522  -0.26822  -0.24538  -0.23073  -0.21674
  Beta  occ. eigenvalues --   -0.21109  -0.14194
  Beta virt. eigenvalues --   -0.08011  -0.06468   0.00026   0.00902   0.01236
  Beta virt. eigenvalues --    0.02104   0.02484   0.03289   0.04085   0.04321
  Beta virt. eigenvalues --    0.04983   0.05438   0.05664   0.05863   0.06502

 Mulliken charges and spin densities:
               1          2
     1  C   -0.842146  -0.000000
     2  C    0.050308   0.000000
     3  C    1.154535   0.000000
     4  C   -1.366459  -0.000000
     5  C   -1.404732   0.000000
     6  C    2.348255  -0.000000
     7  O   -0.633506  -0.000000
     8  O   -0.467683  -0.000000
     9  C   -0.325781  -0.000000
    10  C   -0.042712  -0.000000
    11  C   -0.642639  -0.000000
    12  C   -0.626047  -0.000000
    13  N   -0.260859  -0.000000
    14  N   -0.250880  -0.000000
    15  H    0.162412  -0.000000
    16  H    0.153833   0.000000
    17  H    0.176107  -0.000000
    18  H    0.179940   0.000000
    19  H    0.140954  -0.000000
    20  H    0.183242   0.000000
    21  H    0.136240   0.000000
    22  H    0.143796  -0.000000
    23  H    0.132717  -0.000000
    24  H    0.184990   0.000000
    25  O   -0.011223  -0.000000
    26  O   -0.009147  -0.000000
    27  O   -0.186514   0.000000
    28  O   -0.077002   0.000000
 Sum of Mulliken charges =  -2.00000  -0.00000

 Dipole moment (field-independent basis, Debye):
    X=            -18.1974    Y=             33.3653    Z=            -23.5920  Tot=             44.7322
 Quadrupole moment (field-independent basis, Debye-Ang):
   XX=           -161.8623   YY=           -285.8748   ZZ=           -211.3010
   XY=             80.9323   XZ=            -26.1528   YZ=             57.2386

  Exact polarizability: 201.823 -22.554 291.099 -56.428   8.599 362.684
 Approx polarizability: 244.098 -13.987 343.956 -67.151  12.536 418.401

                      1                      2                      3
                      A                      A                      A
 Frequencies --     46.5076                59.6086                66.8397
 Red. masses --      6.7167                 8.1356                 5.8018
 Frc consts  --      0.0086                 0.0170                 0.0153
 IR Inten    --      0.4417                 7.5325                 2.2775

                      4                      5                      6
                      A                      A                      A
 Frequencies --     74.2039                92.6572               126.7881
 Red. masses --      4.0011                 8.7903                 5.1071
 Frc consts  --      0.0130                 0.0445                 0.0484
 IR Inten    --      2.7672                14.1789                 6.7154

                      7                      8                      9
                      A                      A                      A
 Frequencies --    152.0063               162.7822               164.2932
 Red. masses --      3.5539                 5.0689                 3.1813
 Frc consts  --      0.0484                 0.0791                 0.0506
 IR Inten    --      4.7913                 3.6410                12.2902

                     10                     11                     12
                      A                      A                      A
 Frequencies --    168.4930               204.4650               220.9272
 Red. masses --      1.3633                 1.1947                 4.1059
 Frc consts  --      0.0228                 0.0294                 0.1181
 IR Inten    --      4.5741                 1.4231                 2.1758

                     13                     14                     15
                      A                      A                      A
 Frequencies --    222.0251               252.9709               266.3770
 Red. masses --      1.1756                 6.4370                 7.1714
 Frc consts  --      0.0341                 0.2427                 0.2998
 IR Inten    --      0.4041                 3.4778                 0.1873

                     16                     17                     18
                      A                      A                      A
 Frequencies --    275.6591               285.2969               344.8674
 Red. masses --      3.1339                 7.3939                 4.0209
 Frc consts  --      0.1403                 0.3546                 0.2818
 IR Inten    --      1.4120                 3.9210                 5.1797

                     19                     20                     21
                      A                      A                      A
 Frequencies --    363.0108               387.5112               420.9435
 Red. masses --      5.7946                 7.2890                 3.0333
 Frc consts  --      0.4499                 0.6449                 0.3167
 IR Inten    --      0.4899                25.0825                24.9542

                     22                     23                     24
                      A                      A                      A
 Frequencies --    451.4207               467.9327               476.3238
 Red. masses --      5.5492                 6.7258                 5.8091
 Frc consts  --      0.6663                 0.8677                 0.7765
 IR Inten    --      5.8181                 5.5025                27.8637

                     25                     26                     27
                      A                      A                      A
 Frequencies --    512.6243               532.3901               608.1454
 Red. masses --      8.6939                 5.6206                 7.7303
 Frc consts  --      1.3460                 0.9386                 1.6845
 IR Inten    --     30.7438                 0.8306                33.2561

                     28                     29                     30
                      A                      A                      A
 Frequencies --    614.4032               712.5422               733.1905
 Red. masses --      7.9015                 9.5675                 6.7306
 Frc consts  --      1.7574                 2.8620                 2.1318
 IR Inten    --      8.0324                55.9865                46.1728

                     31                     32                     33
                      A                      A                      A
 Frequencies --    749.6336               779.3612               787.3363
 Red. masses --     11.4922                11.3277                10.2544
 Frc consts  --      3.8050                 4.0539                 3.7452
 IR Inten    --     26.2696                91.7887                 8.3306

                     34                     35                     36
                      A                      A                      A
 Frequencies --    810.4379               850.4398               895.5674
 Red. masses --      5.0091                 4.0117                 4.7895
 Frc consts  --      1.9384                 1.7095                 2.2633
 IR Inten    --      7.1569                25.6178                 9.2889

                     37                     38                     39
                      A                      A                      A
 Frequencies --    919.5265               958.9091               963.8103
 Red. masses --      1.1480                 1.5786                 3.4399
 Frc consts  --      0.5719                 0.8552                 1.8827
 IR Inten    --      2.3054                 0.6102                55.3263

                     40                     41                     42
                      A                      A                      A
 Frequencies --    974.9838              1038.7228              1044.8942
 Red. masses --      4.0653                 2.7887                 1.4932
 Frc consts  --      2.2769                 1.7728                 0.9606
 IR Inten    --    167.7066               609.6163                59.9767

                     43                     44                     45
                      A                      A                      A
 Frequencies --   1062.4734              1116.5509              1135.1401
 Red. masses --      2.4336                 2.3492                 2.8124
 Frc consts  --      1.6186                 1.7256                 2.1351
 IR Inten    --    114.9344                14.5041                10.0358

                     46                     47                     48
                      A                      A                      A
 Frequencies --   1167.5283              1193.1856              1233.3359
 Red. masses --      9.3356                 2.2406                 8.4383
 Frc consts  --      7.4977                 1.8795                 7.5626
 IR Inten    --   1291.2646               234.5395              1507.2227

                     49                     50                     51
                      A                      A                      A
 Frequencies --   1272.6642              1334.6524              1347.8257
 Red. masses --      6.2432                 1.3096                 3.7567
 Frc consts  --      5.9578                 1.3744                 4.0209
 IR Inten    --    220.6736                11.0835               443.3953

                     52                     53                     54
                      A                      A                      A
 Frequencies --   1372.2461              1382.4219              1385.2327
 Red. masses --      1.2242                 2.4043                 2.4404
 Frc consts  --      1.3582                 2.7072                 2.7591
 IR Inten    --     10.5728               166.6691               146.2925

                     55                     56                     57
                      A                      A                      A
 Frequencies --   1398.1999              1403.4601              1405.5902
 Red. masses --      1.6309                 3.1976                 2.0276
 Frc consts  --      1.8786                 3.7108                 2.3602
 IR Inten    --     79.8775               170.8873                63.4734

                     58                     59                     60
                      A                      A                      A
 Frequencies --   1431.2281              1458.6787              1471.7768
 Red. masses --      3.6805                 1.2986                 1.0441
 Frc consts  --      4.4420                 1.6279                 1.3325
 IR Inten    --    560.8964                53.6331                 1.4168

                     61                     62                     63
                      A                      A                      A
 Frequencies --   1477.6734              1481.5383              1492.6026
 Red. masses --      1.4522                 1.4019                 1.0908
 Frc consts  --      1.8683                 1.8130                 1.4318
 IR Inten    --     40.3136               175.9889                 8.6713

                     64                     65                     66
                      A                      A                      A
 Frequencies --   1494.0008              1503.6758              1507.3384
 Red. masses --      1.5283                 1.2938                 2.8530
 Frc consts  --      2.0098                 1.7236                 3.8192
 IR Inten    --    124.5436               120.2358               842.0853

                     67                     68                     69
                      A                      A                      A
 Frequencies --   1528.9326              1604.5626              3010.7549
 Red. masses --     14.2308                 8.5730                 1.0465
 Frc consts  --     19.6001                13.0046                 5.5891
 IR Inten    --    710.0942                86.3209               126.0961

                     70                     71                     72
                      A                      A                      A
 Frequencies --   3014.2588              3018.0437              3039.0956
 Red. masses --      1.0377                 1.0402                 1.0802
 Frc consts  --      5.5551                 5.5824                 5.8783
 IR Inten    --     69.6340                84.3507                60.7803

                     73                     74                     75
                      A                      A                      A
 Frequencies --   3064.9309              3070.3891              3072.3200
 Red. masses --      1.0864                 1.1011                 1.1006
 Frc consts  --      6.0130                 6.1162                 6.1209
 IR Inten    --     52.9395                44.8735               105.7760

                     76                     77                     78
                      A                      A                      A
 Frequencies --   3102.7700              3113.1745              3117.7583
 Red. masses --      1.1022                 1.0997                 1.0988
 Frc consts  --      6.2517                 6.2795                 6.2929
 IR Inten    --     24.3467                10.0166                45.2776

 - Thermochemistry -
 -------------------
 Temperature   298.150 Kelvin.  Pressure   1.00000 Atm.
 Atom     1 has atomic number  6 and mass  12.00000

 Molecular mass:   254.05389 amu.
 Principal axes and moments of inertia in atomic units:
                           1         2         3
     Eigenvalues --  3128.924834803.263037140.43920
           X           -0.28338  -0.18665   0.94067
           Y            0.17542   0.95424   0.24219
           Z            0.94283  -0.23364   0.23767
 This molecule is an asymmetric top.
 Rotational symmetry number  1.
 Warning -- assumption of classical behavior for rotation
           may cause significant error
 Rotational temperatures (Kelvin)      0.02768     0.01803     0.01213
 Rotational constants (GHZ):           0.57679     0.37573     0.25275
 Zero-point vibrational energy     517545.4 (Joules/Mol)
                                  123.69633 (Kcal/Mol)
 Warning -- explicit consideration of  28 degrees of freedom as
           vibrations may cause significant error
 Vibrational temperatures:     66.91    85.76    96.17   106.76   133.31
          (Kelvin)            182.42   218.70   234.21   236.38   242.42
                              294.18   317.86   319.44   363.97   383.26
                              396.61   410.48   496.19   522.29   557.54
                              605.64   649.49   673.25   685.32   737.55
                              765.99   874.99   883.99  1025.19  1054.90
                             1078.56  1121.33  1132.80  1166.04  1223.59
                             1288.52  1322.99  1379.66  1386.71  1402.78
                             1494.49  1503.37  1528.66  1606.47  1633.21
                             1679.81  1716.73  1774.50  1831.08  1920.27
                             1939.22  1974.36  1989.00  1993.04  2011.70
                             2019.27  2022.33  2059.22  2098.71  2117.56
                             2126.04  2131.60  2147.52  2149.53  2163.45
                             2168.72  2199.79  2308.61  4331.80  4336.85
                             4342.29  4372.58  4409.75  4417.61  4420.38
                             4464.19  4479.16  4485.76

 Zero-point correction=                           0.197123 (Hartree/Particle)
 Thermal correction to Energy=                    0.214533
 Thermal correction to Enthalpy=                  0.215477
 Thermal correction to Gibbs Free Energy=         0.151870
 Sum of electronic and zero-point Energies=           -948.085717
 Sum of electronic and thermal Energies=              -948.068306
 Sum of electronic and thermal Enthalpies=            -948.067362
 Sum of electronic and thermal Free Energies=         -948.130970

                     E (Thermal)             CV                S
                      KCal/Mol        Cal/Mol-Kelvin    Cal/Mol-Kelvin
 Total                  134.622             63.243            133.874
 Electronic               0.000              0.000              0.000
 Translational            0.889              2.981             42.497
 Rotational               0.889              2.981             33.039
 Vibrational            132.844             57.282             58.337
 Vibration     1          0.595              1.979              4.961
 Vibration     2          0.597              1.974              4.470
 Vibration     3          0.598              1.970              4.244
 Vibration     4          0.599              1.966              4.039
 Vibration     5          0.602              1.954              3.603
 Vibration     6          0.611              1.926              2.994
 Vibration     7          0.619              1.900              2.647
 Vibration     8          0.623              1.888              2.517
 Vibration     9          0.623              1.886              2.500
 Vibration    10          0.625              1.881              2.452
 Vibration    11          0.640              1.834              2.093
 Vibration    12          0.648              1.809              1.951
 Vibration    13          0.648              1.808              1.943
 Vibration    14          0.664              1.758              1.710
 Vibration    15          0.672              1.735              1.620
 Vibration    16          0.677              1.718              1.560
 Vibration    17          0.683              1.701              1.502
 Vibration    18          0.723              1.586              1.190
 Vibration    19          0.737              1.548              1.109
 Vibration    20          0.756              1.497              1.010
 Vibration    21          0.783              1.425              0.889
 Vibration    22          0.810              1.358              0.791
 Vibration    23          0.825              1.321              0.743
 Vibration    24          0.833              1.303              0.720
 Vibration    25          0.868              1.222              0.627
 Vibration    26          0.887              1.178              0.582
 Vibration    27          0.967              1.015              0.436
 Vibration    28          0.974              1.001              0.426

 Optimization completed.
    -- Stationary point found.
 Normal termination of Gaussian 16 at Sat Feb 10 13:49:43 2024.
