 Gaussian 16, Revision A.03,
 Gaussian 16:  ES64L-G16RevA.03 25-Dec-2016

 ----------------------------------------------------------------------
 #P UB3LYP/6-311++G(d,p) nosym opt freq SCRF=(PCM,Solvent=n,n-DiMethylF
 ormamide)
 ----------------------------------------------------------------------

 --------
 Oxidized
 --------
 Symbolic Z-matrix:
 Charge =  0 Multiplicity = 1

 SCF Done:  E(UB3LYP) =  -574.596840408     A.U. after   14 cycles
 SCF Done:  E(UB3LYP) =  -574.596938669     A.U. after   12 cycles
 SCF Done:  E(UB3LYP) =  -574.596952076     A.U. after   10 cycles
 Optimization completed.
    -- Stationary point found.
 Normal termination of Gaussian 16 at Sat Feb 10 23:39:35 2024.

 ----------------------------------------------------------------------
 #P Geom=AllCheck Guess=TCheck SCRF=Check GenChk UB3LYP/6-311++G(d,p) F
 req
 ----------------------------------------------------------------------

 Structure from the checkpoint file:  "238.chk"
 --------
 Oxidized
 --------
 Charge =  0 Multiplicity = 1

                          Input orientation:
 ---------------------------------------------------------------------
 Center     Atomic      Atomic             Coordinates (Angstroms)
 Number     Number       Type             X           Y           Z
 ---------------------------------------------------------------------
      1          6           0        5.745083   -5.289175    1.374098
      2          6           0        6.700464   -5.184856    0.371732
      3          6           0        6.589963   -4.217929   -0.640632
      4          6           0        4.645631   -4.426161    1.393953
      5          6           0        4.520906   -3.452068    0.386589
      6          6           0        5.489327   -3.358198   -0.614975
      7          6           0        3.623655   -4.541432    2.465523
      8          6           0        2.481577   -3.596634    2.424522
      9          6           0        2.359883   -2.667883    1.466839
     10          6           0        3.358880   -2.519847    0.382073
     11          8           0        3.699321   -5.376604    3.359594
     12          8           0        3.213243   -1.658066   -0.476177
     13          1           0        5.839627   -6.038710    2.150036
     14          1           0        7.547571   -5.862426    0.369931
     15          1           0        1.749389   -3.702139    3.217371
     16          1           0        1.523619   -1.978169    1.439597
     17          6           0        7.635233   -4.118538   -1.720950
     18          1           0        5.371819   -2.600126   -1.380232
     19          1           0        7.710548   -5.058277   -2.275714
     20          1           0        8.620819   -3.919213   -1.290325
     21          1           0        7.403762   -3.321454   -2.428403
 ---------------------------------------------------------------------

 SCF Done:  E(UB3LYP) =  -574.596952076     A.U. after    2 cycles

 Alpha  occ. eigenvalues --  -19.13949 -19.13809 -10.28773 -10.28664 -10.21426
 Alpha  occ. eigenvalues --  -10.21341 -10.21019 -10.20989 -10.20773 -10.19962
 Alpha  occ. eigenvalues --  -10.19683 -10.19624 -10.17509  -1.06955  -1.06715
 Alpha  occ. eigenvalues --   -0.89387  -0.84570  -0.79609  -0.77938  -0.71977
 Alpha  occ. eigenvalues --   -0.69600  -0.65051  -0.62655  -0.59376  -0.54190
 Alpha  occ. eigenvalues --   -0.52584  -0.51212  -0.48031  -0.46492  -0.46269
 Alpha  occ. eigenvalues --   -0.45564  -0.45139  -0.43226  -0.43068  -0.42514
 Alpha  occ. eigenvalues --   -0.42098  -0.39770  -0.37789  -0.37103  -0.36597
 Alpha  occ. eigenvalues --   -0.31184  -0.29148  -0.28108  -0.28105  -0.27198
 Alpha virt. eigenvalues --   -0.13083  -0.05724  -0.03706  -0.00595   0.00440
 Alpha virt. eigenvalues --    0.01085   0.02071   0.02198   0.02709   0.03138
 Alpha virt. eigenvalues --    0.03944   0.04698   0.05107   0.05842   0.06048

  Beta  occ. eigenvalues --  -19.13949 -19.13809 -10.28773 -10.28664 -10.21426
  Beta  occ. eigenvalues --  -10.21341 -10.21019 -10.20989 -10.20773 -10.19962
  Beta  occ. eigenvalues --  -10.19683 -10.19624 -10.17509  -1.06955  -1.06715
  Beta  occ. eigenvalues --   -0.89387  -0.84570  -0.79609  -0.77938  -0.71977
  Beta  occ. eigenvalues --   -0.69600  -0.65051  -0.62655  -0.59376  -0.54190
  Beta  occ. eigenvalues --   -0.52584  -0.51212  -0.48031  -0.46492  -0.46269
  Beta  occ. eigenvalues --   -0.45564  -0.45139  -0.43226  -0.43068  -0.42514
  Beta  occ. eigenvalues --   -0.42098  -0.39770  -0.37789  -0.37103  -0.36597
  Beta  occ. eigenvalues --   -0.31184  -0.29148  -0.28108  -0.28105  -0.27198
  Beta virt. eigenvalues --   -0.13083  -0.05724  -0.03706  -0.00595   0.00440
  Beta virt. eigenvalues --    0.01085   0.02071   0.02198   0.02709   0.03138
  Beta virt. eigenvalues --    0.03944   0.04698   0.05107   0.05842   0.06048

 Mulliken charges and spin densities:
               1          2
     1  C    0.240300   0.000000
     2  C   -0.369504  -0.000000
     3  C    0.481412  -0.000000
     4  C    0.132728  -0.000000
     5  C    0.092922  -0.000000
     6  C   -0.152703   0.000000
     7  C   -0.834438   0.000000
     8  C    0.268007   0.000000
     9  C    0.036326   0.000000
    10  C   -0.472603   0.000000
    11  O   -0.295614  -0.000000
    12  O   -0.287353  -0.000000
    13  H    0.184879  -0.000000
    14  H    0.206895   0.000000
    15  H    0.236367   0.000000
    16  H    0.238381  -0.000000
    17  C   -0.382981   0.000000
    18  H    0.149936  -0.000000
    19  H    0.175998  -0.000000
    20  H    0.176195  -0.000000
    21  H    0.174851  -0.000000
 Sum of Mulliken charges =  -0.00000  -0.00000

 Dipole moment (field-independent basis, Debye):
    X=              2.3714    Y=             -0.6490    Z=             -1.4535  Tot=              2.8561
 Quadrupole moment (field-independent basis, Debye-Ang):
   XX=            -40.4481   YY=            -77.8070   ZZ=            -83.4660
   XY=            -16.0114   XZ=            -13.3523   YZ=             16.0988

  Exact polarizability: 193.200 -41.858 174.280 -44.747 -55.853 197.824
 Approx polarizability: 211.807 -47.556 221.629 -40.329 -86.411 245.319

                      1                      2                      3
                      A                      A                      A
 Frequencies --     26.0874                72.6877                94.0337
 Red. masses --      1.0373                 5.8956                 4.6457
 Frc consts  --      0.0004                 0.0184                 0.0242
 IR Inten    --      0.5292                18.9073                 1.7050

                      4                      5                      6
                      A                      A                      A
 Frequencies --    151.4185               210.6855               250.0430
 Red. masses --      4.8006                 4.6687                 4.4623
 Frc consts  --      0.0648                 0.1221                 0.1644
 IR Inten    --      0.0042                 0.7900                 0.2564

                      7                      8                      9
                      A                      A                      A
 Frequencies --    281.7272               342.6512               372.8268
 Red. masses --      3.9570                 5.8849                 4.6750
 Frc consts  --      0.1850                 0.4071                 0.3829
 IR Inten    --      0.8381                11.4071                 8.4804

                     10                     11                     12
                      A                      A                      A
 Frequencies --    421.4196               446.5082               451.7502
 Red. masses --      3.0963                 5.9493                10.3120
 Frc consts  --      0.3240                 0.6988                 1.2399
 IR Inten    --      2.7927                16.9614                 9.4685

                     13                     14                     15
                      A                      A                      A
 Frequencies --    519.1564               530.2886               602.7241
 Red. masses --      3.6101                 7.2774                 4.6013
 Frc consts  --      0.5733                 1.2057                 0.9848
 IR Inten    --     10.5802                23.0054                 0.0916

                     16                     17                     18
                      A                      A                      A
 Frequencies --    615.2652               676.6173               692.5850
 Red. masses --      2.1453                 4.8694                 3.8694
 Frc consts  --      0.4785                 1.3135                 1.0935
 IR Inten    --      0.0191                 3.2303                 4.1759

                     19                     20                     21
                      A                      A                      A
 Frequencies --    717.5230               774.4349               796.9752
 Red. masses --      6.6189                 6.9900                 5.3394
 Frc consts  --      2.0077                 2.4700                 1.9982
 IR Inten    --      3.9195                 4.6206                 2.2645

                     22                     23                     24
                      A                      A                      A
 Frequencies --    840.6720               880.6176               902.6676
 Red. masses --      1.4647                 1.8704                 4.4280
 Frc consts  --      0.6099                 0.8546                 2.1258
 IR Inten    --    118.2145                 9.1405                 9.8836

                     25                     26                     27
                      A                      A                      A
 Frequencies --    930.2261              1006.3881              1015.6331
 Red. masses --      1.3812                 1.3560                 1.4428
 Frc consts  --      0.7042                 0.8092                 0.8769
 IR Inten    --      0.8081                 0.6948                16.7776

                     28                     29                     30
                      A                      A                      A
 Frequencies --   1016.8389              1058.4644              1062.2871
 Red. masses --      1.2595                 3.4258                 1.5768
 Frc consts  --      0.7673                 2.2613                 1.0484
 IR Inten    --      0.0038                78.3898                 9.8422

                     31                     32                     33
                      A                      A                      A
 Frequencies --   1075.0901              1153.6860              1165.6463
 Red. masses --      2.5498                 1.3839                 1.4328
 Frc consts  --      1.7364                 1.0852                 1.1470
 IR Inten    --     28.4850                31.7414                47.8429

                     34                     35                     36
                      A                      A                      A
 Frequencies --   1214.4862              1252.3682              1302.9638
 Red. masses --      2.7372                 1.8809                 1.8461
 Frc consts  --      2.3787                 1.7381                 1.8466
 IR Inten    --      0.0574                12.9038                14.6706

                     37                     38                     39
                      A                      A                      A
 Frequencies --   1314.9684              1353.5462              1389.9590
 Red. masses --      3.9506                 6.5600                 1.7433
 Frc consts  --      4.0248                 7.0810                 1.9844
 IR Inten    --    606.3524                 6.8739                 9.1420

                     40                     41                     42
                      A                      A                      A
 Frequencies --   1409.5942              1439.8131              1474.4976
 Red. masses --      1.2536                 2.7029                 1.0422
 Frc consts  --      1.4675                 3.3014                 1.3350
 IR Inten    --      6.7735                23.6551                12.3542

                     43                     44                     45
                      A                      A                      A
 Frequencies --   1487.5251              1517.0380              1597.4913
 Red. masses --      1.2336                 2.9913                 6.5511
 Frc consts  --      1.6082                 4.0561                 9.8501
 IR Inten    --      1.9959                 2.3627                37.1646

                     46                     47                     48
                      A                      A                      A
 Frequencies --   1625.2289              1657.3803              1695.1393
 Red. masses --      6.0009                 9.2261                10.7119
 Frc consts  --      9.3389                14.9317                18.1354
 IR Inten    --    421.1180                95.1122               856.2712

                     49                     50                     51
                      A                      A                      A
 Frequencies --   1702.0172              3030.7744              3081.1780
 Red. masses --      9.3220                 1.0373                 1.1002
 Frc consts  --     15.9105                 5.6138                 6.1541
 IR Inten    --     71.8508                25.3082                16.3620

                     52                     53                     54
                      A                      A                      A
 Frequencies --   3115.6277              3172.0853              3178.3323
 Red. masses --      1.1013                 1.0897                 1.0875
 Frc consts  --      6.2988                 6.4603                 6.4724
 IR Inten    --     25.3150                12.9553                 3.9101

                     55                     56                     57
                      A                      A                      A
 Frequencies --   3188.4620              3194.7377              3199.4086
 Red. masses --      1.0906                 1.0989                 1.0930
 Frc consts  --      6.5325                 6.6083                 6.5920
 IR Inten    --      5.5340                 7.9167                 6.0657

 - Thermochemistry -
 -------------------
 Temperature   298.150 Kelvin.  Pressure   1.00000 Atm.
 Atom     1 has atomic number  6 and mass  12.00000

 Molecular mass:   172.05243 amu.
 Principal axes and moments of inertia in atomic units:
                           1         2         3
     Eigenvalues --  1394.959272527.380483911.19072
           X            0.79633  -0.31410   0.51692
           Y           -0.12265   0.75299   0.64650
           Z           -0.59230  -0.57822   0.56110
 This molecule is an asymmetric top.
 Rotational symmetry number  1.
 Warning -- assumption of classical behavior for rotation
           may cause significant error
 Rotational temperatures (Kelvin)      0.06209     0.03427     0.02215
 Rotational constants (GHZ):           1.29376     0.71408     0.46143
 Zero-point vibrational energy     417199.1 (Joules/Mol)
                                   99.71299 (Kcal/Mol)
 Warning -- explicit consideration of  16 degrees of freedom as
           vibrations may cause significant error
 Vibrational temperatures:     37.53   104.58   135.29   217.86   303.13
          (Kelvin)            359.76   405.34   493.00   536.41   606.33
                              642.43   649.97   746.95   762.97   867.19
                              885.23   973.50   996.48  1032.36  1114.24
                             1146.67  1209.54  1267.01  1298.74  1338.39
                             1447.97  1461.27  1463.00  1522.89  1528.39
                             1546.81  1659.90  1677.11  1747.37  1801.88
                             1874.67  1891.95  1947.45  1999.84  2028.09
                             2071.57  2121.47  2140.22  2182.68  2298.43
                             2338.34  2384.60  2438.93  2448.82  4360.61
                             4433.13  4482.69  4563.92  4572.91  4587.49
                             4596.51  4603.24

 Zero-point correction=                           0.158903 (Hartree/Particle)
 Thermal correction to Energy=                    0.169594
 Thermal correction to Enthalpy=                  0.170539
 Thermal correction to Gibbs Free Energy=         0.121281
 Sum of electronic and zero-point Energies=           -574.438049
 Sum of electronic and thermal Energies=              -574.427358
 Sum of electronic and thermal Enthalpies=            -574.426414
 Sum of electronic and thermal Free Energies=         -574.475671

                     E (Thermal)             CV                S
                      KCal/Mol        Cal/Mol-Kelvin    Cal/Mol-Kelvin
 Total                  106.422             40.701            103.671
 Electronic               0.000              0.000              0.000
 Translational            0.889              2.981             41.335
 Rotational               0.889              2.981             31.001
 Vibrational            104.645             34.740             31.334
 Vibration     1          0.593              1.985              6.107
 Vibration     2          0.599              1.967              4.079
 Vibration     3          0.603              1.953              3.574
 Vibration     4          0.619              1.901              2.654
 Vibration     5          0.643              1.825              2.038
 Vibration     6          0.663              1.763              1.730
 Vibration     7          0.681              1.707              1.523
 Vibration     8          0.722              1.590              1.200
 Vibration     9          0.744              1.528              1.068
 Vibration    10          0.784              1.424              0.887
 Vibration    11          0.806              1.369              0.806
 Vibration    12          0.810              1.357              0.790
 Vibration    13          0.874              1.208              0.612
 Vibration    14          0.885              1.183              0.587
 Vibration    15          0.961              1.026              0.445
 Vibration    16          0.975              1.000              0.424

                           ! Non-Optimized Parameters !
 Normal termination of Gaussian 16 at Sat Feb 10 23:51:11 2024.
