 Gaussian 16, Revision A.03,
 Gaussian 16:  ES64L-G16RevA.03 25-Dec-2016

 ----------------------------------------------------------------
 #P UB3LYP/6-311++G(d,p) SCRF=(PCM,Solvent=n,n-DiMethylFormamide)
 ----------------------------------------------------------------

 ------------------
 Radical PCM in DMF
 ------------------
 Symbolic Z-matrix:
 Charge = -1 Multiplicity = 2

                         Standard orientation:
 ---------------------------------------------------------------------
 Center     Atomic      Atomic             Coordinates (Angstroms)
 Number     Number       Type             X           Y           Z
 ---------------------------------------------------------------------
      1          6           0       -1.400325    3.754217   -0.077827
      2          6           0       -0.716280    4.952574   -0.038829
      3          6           0        0.693813    4.955736    0.040174
      4          6           0       -0.712303    2.520717   -0.040548
      5          6           0        0.700839    2.523889    0.039940
      6          6           0        1.383274    3.760451    0.078232
      7          6           0       -1.468676    1.274592   -0.094067
      8          6           0        1.462811    1.281134    0.092518
      9          6           0       -0.722188    0.024224   -0.061484
     10          6           0        0.721984    0.027457    0.058637
     11          6           0       -1.425380   -1.231574   -0.141220
     12          6           0       -0.689665   -2.415424   -0.068638
     13          6           0        0.700373   -2.412420    0.063316
     14          6           0        1.430765   -1.225321    0.137456
     15          8           0       -2.739668    1.332683   -0.164782
     16          8           0        2.733523    1.344979    0.163684
     17          1           0       -2.481337    3.720083   -0.140110
     18          1           0       -1.260369    5.892120   -0.069152
     19          1           0        1.233654    5.897704    0.071258
     20          1           0        2.464428    3.731159    0.140547
     21          1           0        1.212445   -3.365212    0.119756
     22          1           0       -1.197453   -3.370406   -0.126705
     23          7           0       -2.798617   -1.248924   -0.331259
     24          7           0        2.803797   -1.236675    0.327958
     25          1           0       -3.202567   -0.308724   -0.257642
     26          1           0        3.204111   -0.294818    0.255786
     27          6           0        3.656035   -2.381093    0.081422
     28          6           0        5.035856   -2.100746    0.687476
     29          6           0        3.773226   -2.740051   -1.414392
     30          6           0       -3.645824   -2.395964   -0.078697
     31          6           0       -3.757351   -2.750699    1.418510
     32          6           0       -5.028365   -2.122738   -0.681768
     33          1           0        3.239475   -3.252017    0.605980
     34          1           0        5.710080   -2.948705    0.532239
     35          1           0        4.953555   -1.908234    1.759949
     36          1           0        5.486986   -1.218939    0.220458
     37          1           0        2.784923   -2.889102   -1.854711
     38          1           0        4.357470   -3.656929   -1.557656
     39          1           0        4.265322   -1.927453   -1.958286
     40          1           0       -3.227481   -3.266907   -0.601738
     41          1           0       -2.767181   -2.894701    1.856339
     42          1           0       -4.337721   -3.669314    1.566319
     43          1           0       -4.250934   -1.938269    1.961312
     44          1           0       -5.481581   -1.241248   -0.216182
     45          1           0       -5.698909   -2.972796   -0.522092
     46          1           0       -4.949743   -1.933160   -1.755044
 ---------------------------------------------------------------------

 SCF Done:  E(UB3LYP) =  -1035.78147077     A.U. after   17 cycles

 The electronic state is 2-A.
 Alpha  occ. eigenvalues --  -19.06952 -19.06951 -14.29727 -14.29717 -10.21942
 Alpha  occ. eigenvalues --  -10.21940 -10.20278 -10.20271 -10.20200 -10.20195
 Alpha  occ. eigenvalues --  -10.16980 -10.16933 -10.16783 -10.16746 -10.16677
 Alpha  occ. eigenvalues --  -10.16639 -10.16596 -10.16588 -10.15861 -10.15808
 Alpha  occ. eigenvalues --  -10.15660 -10.15658 -10.15313 -10.15311  -0.99816
 Alpha  occ. eigenvalues --   -0.99546  -0.92332  -0.91815  -0.85439  -0.83126
 Alpha  occ. eigenvalues --   -0.78001  -0.77938  -0.75744  -0.74662  -0.73224
 Alpha  occ. eigenvalues --   -0.70215  -0.68449  -0.68400  -0.65907  -0.63365
 Alpha  occ. eigenvalues --   -0.62654  -0.59693  -0.58432  -0.57236  -0.56042
 Alpha  occ. eigenvalues --   -0.52280  -0.52165  -0.50008  -0.48424  -0.47629
 Alpha  occ. eigenvalues --   -0.46525  -0.45768  -0.45259  -0.44201  -0.43803
 Alpha  occ. eigenvalues --   -0.43437  -0.42442  -0.41897  -0.41098  -0.41083
 Alpha  occ. eigenvalues --   -0.40641  -0.39961  -0.39615  -0.38916  -0.38452
 Alpha  occ. eigenvalues --   -0.38193  -0.38009  -0.37503  -0.36982  -0.36246
 Alpha  occ. eigenvalues --   -0.35695  -0.35003  -0.34703  -0.34248  -0.33793
 Alpha  occ. eigenvalues --   -0.33772  -0.33222  -0.33175  -0.30525  -0.26452
 Alpha  occ. eigenvalues --   -0.25280  -0.24726  -0.24014  -0.23925  -0.22875
 Alpha  occ. eigenvalues --   -0.17930  -0.12902
 Alpha virt. eigenvalues --   -0.04127  -0.01756  -0.00607   0.00087   0.00215
 Alpha virt. eigenvalues --    0.00957   0.01398   0.01732   0.02007   0.02293
 Alpha virt. eigenvalues --    0.02328   0.02981   0.03775   0.03936   0.04241

  Beta  occ. eigenvalues --  -19.06519 -19.06518 -14.29634 -14.29624 -10.21770
  Beta  occ. eigenvalues --  -10.21769 -10.20226 -10.20219 -10.20204 -10.20198
  Beta  occ. eigenvalues --  -10.16937 -10.16890 -10.16800 -10.16763 -10.16624
  Beta  occ. eigenvalues --  -10.16614 -10.16576 -10.16539 -10.15723 -10.15669
  Beta  occ. eigenvalues --  -10.15660 -10.15658 -10.15307 -10.15306  -0.99077
  Beta  occ. eigenvalues --   -0.98787  -0.92131  -0.91631  -0.85243  -0.82963
  Beta  occ. eigenvalues --   -0.77934  -0.77591  -0.75621  -0.74478  -0.73085
  Beta  occ. eigenvalues --   -0.69961  -0.68438  -0.68353  -0.65288  -0.63210
  Beta  occ. eigenvalues --   -0.62437  -0.59658  -0.58343  -0.57129  -0.55868
  Beta  occ. eigenvalues --   -0.52074  -0.52060  -0.49891  -0.48367  -0.47374
  Beta  occ. eigenvalues --   -0.46423  -0.45662  -0.45156  -0.44122  -0.43687
  Beta  occ. eigenvalues --   -0.43370  -0.42171  -0.41661  -0.40977  -0.40514
  Beta  occ. eigenvalues --   -0.40459  -0.39560  -0.39530  -0.38795  -0.38419
  Beta  occ. eigenvalues --   -0.38080  -0.37934  -0.36708  -0.36098  -0.36077
  Beta  occ. eigenvalues --   -0.35639  -0.34621  -0.34559  -0.34109  -0.33767
  Beta  occ. eigenvalues --   -0.33403  -0.33100  -0.32461  -0.29935  -0.24965
  Beta  occ. eigenvalues --   -0.24685  -0.23889  -0.23635  -0.23505  -0.22472
  Beta  occ. eigenvalues --   -0.16647
  Beta virt. eigenvalues --   -0.07825  -0.03235  -0.00786  -0.00587   0.00093
  Beta virt. eigenvalues --    0.00221   0.01141   0.01410   0.01740   0.02021
  Beta virt. eigenvalues --    0.02356   0.02670   0.03074   0.03784   0.03947

 Mulliken charges and spin densities:
               1          2
     1  C   -0.146712   0.023280
     2  C   -0.386609   0.034477
     3  C   -0.386365   0.034568
     4  C    0.343809   0.035630
     5  C    0.343865   0.035695
     6  C   -0.146250   0.023205
     7  C   -0.322348   0.096280
     8  C   -0.321081   0.096213
     9  C    0.067281  -0.014563
    10  C    0.067709  -0.014664
    11  C   -0.426124   0.040287
    12  C   -0.022803   0.088442
    13  C   -0.021934   0.088762
    14  C   -0.425745   0.040129
    15  O   -0.469902   0.159486
    16  O   -0.470182   0.159415
    17  H    0.155650  -0.000793
    18  H    0.179696  -0.002845
    19  H    0.179695  -0.002850
    20  H    0.155675  -0.000789
    21  H    0.198875  -0.007207
    22  H    0.198785  -0.007218
    23  N   -0.085786   0.042852
    24  N   -0.086366   0.042884
    25  H    0.409110  -0.001741
    26  H    0.409168  -0.001739
    27  C    0.083917   0.002651
    28  C   -0.542868  -0.000911
    29  C   -0.545936   0.001603
    30  C    0.083571   0.002867
    31  C   -0.546718   0.001543
    32  C   -0.542927  -0.000928
    33  H    0.121273   0.002259
    34  H    0.155431  -0.000086
    35  H    0.154574  -0.000051
    36  H    0.142692  -0.000056
    37  H    0.137531   0.001464
    38  H    0.140910  -0.000265
    39  H    0.157634  -0.000272
    40  H    0.121170   0.002225
    41  H    0.137511   0.001485
    42  H    0.140908  -0.000264
    43  H    0.157624  -0.000269
    44  H    0.142665  -0.000054
    45  H    0.155300  -0.000087
    46  H    0.154626  -0.000051
 Sum of Mulliken charges =  -1.00000   1.00000

 Dipole moment (field-independent basis, Debye):
    X=              0.0256    Y=             -7.3980    Z=              0.0127  Tot=              7.3981
 Quadrupole moment (field-independent basis, Debye-Ang):
   XX=           -168.9067   YY=           -151.1793   ZZ=           -155.5796
   XY=             -0.0560   XZ=             -3.5206   YZ=             -0.0164

 Normal termination of Gaussian 16 at Sun Jan 14 01:25:00 2024.
