 Q-Chem 5.4, Q-Chem, Inc., Pleasanton, CA (2021)
 Q-Chem 5.4.0 for Intel X86 EM64T Linux

User input:
--------------------------------------------------------------
$molecule
-2 1
O                  4.5735790000     -1.4211710000     -0.9022830000
C                  3.3964360000     -0.6844980000     -0.6142140000
C                  3.5007080000      0.6733540000     -0.2546130000
C                  2.3608970000      1.4040410000      0.1038930000
O                  2.4298060000      2.6581320000      0.4435500000
C                  1.0640590000      0.6986930000      0.0545380000
C                 -0.1122090000      1.4101300000      0.3961580000
O                 -0.0159380000      2.7158190000      0.7494680000
C                 -1.3864000000      0.7829350000      0.3729690000
C                 -2.6118350000      1.4397600000      0.7349750000
O                 -2.6024840000      2.7719080000      1.1750610000
C                 -3.8079860000      0.7681540000      0.6647810000
C                 -3.9014960000     -0.5756560000      0.2365260000
C                 -2.7625040000     -1.3021630000     -0.1245250000
O                 -2.8299840000     -2.5468520000     -0.5124240000
C                 -1.4661320000     -0.6023670000     -0.0478270000
C                 -0.2876450000     -1.3082540000     -0.4070610000
O                 -0.3900150000     -2.5941550000     -0.8233990000
C                  0.9863830000     -0.6927850000     -0.3461600000
C                  2.2154820000     -1.3780400000     -0.6528290000
O                  2.2602030000     -2.7444730000     -0.9227630000
H                  5.2508760000     -1.0945550000     -0.2981560000
H                  4.4547600000      1.1900010000     -0.3138530000
H                  0.9847080000      2.9174120000      0.6885060000
H                 -3.5287830000      3.0279870000      1.2195830000
H                 -4.7187590000      1.2960920000      0.9581740000
H                 -4.8634730000     -1.0774220000      0.1885640000
H                 -1.3955330000     -2.7947040000     -0.7662010000
H                  3.2032760000     -2.9373230000     -1.0004370000
$end

$rem
BASIS  =  6-311++G(d,p)
GUI  =  2
JOB_TYPE  =  SP
METHOD  =  B3LYP
SCF_CONVERGENCE  = 8
SOLVENT_METHOD = sm12
$end

$smx
solvent dimethylformamide
charges CM5
$end

--------------------------------------------------------------

             Standard Nuclear Orientation (Angstroms)
    I     Atom           X                Y                Z
 ----------------------------------------------------------------
    1      O       4.5735790000    -1.4211710000    -0.9022830000
    2      C       3.3964360000    -0.6844980000    -0.6142140000
    3      C       3.5007080000     0.6733540000    -0.2546130000
    4      C       2.3608970000     1.4040410000     0.1038930000
    5      O       2.4298060000     2.6581320000     0.4435500000
    6      C       1.0640590000     0.6986930000     0.0545380000
    7      C      -0.1122090000     1.4101300000     0.3961580000
    8      O      -0.0159380000     2.7158190000     0.7494680000
    9      C      -1.3864000000     0.7829350000     0.3729690000
   10      C      -2.6118350000     1.4397600000     0.7349750000
   11      O      -2.6024840000     2.7719080000     1.1750610000
   12      C      -3.8079860000     0.7681540000     0.6647810000
   13      C      -3.9014960000    -0.5756560000     0.2365260000
   14      C      -2.7625040000    -1.3021630000    -0.1245250000
   15      O      -2.8299840000    -2.5468520000    -0.5124240000
   16      C      -1.4661320000    -0.6023670000    -0.0478270000
   17      C      -0.2876450000    -1.3082540000    -0.4070610000
   18      O      -0.3900150000    -2.5941550000    -0.8233990000
   19      C       0.9863830000    -0.6927850000    -0.3461600000
   20      C       2.2154820000    -1.3780400000    -0.6528290000
   21      O       2.2602030000    -2.7444730000    -0.9227630000
   22      H       5.2508760000    -1.0945550000    -0.2981560000
   23      H       4.4547600000     1.1900010000    -0.3138530000
   24      H       0.9847080000     2.9174120000     0.6885060000
   25      H      -3.5287830000     3.0279870000     1.2195830000
   26      H      -4.7187590000     1.2960920000     0.9581740000
   27      H      -4.8634730000    -1.0774220000     0.1885640000
   28      H      -1.3955330000    -2.7947040000    -0.7662010000
   29      H       3.2032760000    -2.9373230000    -1.0004370000
 ----------------------------------------------------------------

   16   -1065.1945482418      8.18e-09  Convergence criterion met
 Total energy in the final basis set =    -1065.4697890147

                    Orbital Energies (a.u.)
 --------------------------------------------------------------

 Alpha MOs
 -- Occupied --
-19.1526 -19.1334 -19.1272 -19.0969 -19.0929 -19.0538 -19.0506 -10.2141
-10.2122 -10.2122 -10.2107 -10.2105 -10.2054 -10.2048 -10.1707 -10.1695
-10.1639 -10.1633 -10.1613 -10.1423 -10.1418  -1.0579  -1.0386  -1.0264
 -1.0214  -1.0169  -0.9635  -0.9589  -0.8415  -0.8150  -0.7730  -0.7321
 -0.7200  -0.7020  -0.6653  -0.6306  -0.6225  -0.5809  -0.5612  -0.5486
 -0.5363  -0.5260  -0.5127  -0.4881  -0.4719  -0.4600  -0.4466  -0.4395
 -0.4277  -0.4203  -0.4152  -0.4092  -0.4019  -0.3929  -0.3845  -0.3796
 -0.3776  -0.3671  -0.3647  -0.3584  -0.3494  -0.3432  -0.3356  -0.3318
 -0.3231  -0.3192  -0.2870  -0.2701  -0.2501  -0.2293  -0.2284  -0.2193
 -0.2036  -0.1729  -0.1288

          Ground-State Mulliken Net Atomic Charges

     Atom                 Charge (a.u.)
  ----------------------------------------
      1 O                    -0.158737
      2 C                     2.517231
      3 C                     1.500702
      4 C                    -0.749560
      5 O                    -0.490002
      6 C                    -1.257324
      7 C                    -1.401003
      8 O                    -0.333178
      9 C                    -1.387408
     10 C                     0.459688
     11 O                    -0.128592
     12 C                     2.050187
     13 C                     0.383177
     14 C                    -1.020050
     15 O                    -0.481301
     16 C                    -1.248969
     17 C                    -1.497462
     18 O                    -0.371739
     19 C                    -1.228889
     20 C                     0.191167
     21 O                    -0.228051
     22 H                     0.358120
     23 H                     0.265381
     24 H                     0.478690
     25 H                     0.385201
     26 H                     0.346092
     27 H                     0.165126
     28 H                     0.468891
     29 H                     0.412610
  ----------------------------------------
  Sum of atomic charges =    -2.000000

                    Cartesian Multipole Moments
 -----------------------------------------------------------------
    Charge (ESU x 10^10)
                -9.6064
    Dipole Moment (Debye)
         X       2.8258      Y       1.1392      Z       1.1653
       Tot       3.2620
    Quadrupole Moments (Debye-Ang)
        XX    -173.4927     XY     -29.1410     YY    -185.3772
        XZ       1.8437     YZ     -14.6881     ZZ    -137.3810

 Total job time:  855.79s(wall), 6558.09s(cpu)
        *  Thank you very much for using Q-Chem.  Have a nice day.  *
