 Q-Chem 5.4, Q-Chem, Inc., Pleasanton, CA (2021)
 Q-Chem 5.4.0 for Intel X86 EM64T Linux

User input:
--------------------------------------------------------------
$molecule
-2 1
C                 -3.4184800000      3.5951710000      0.0760600000
C                 -4.5958930000      2.8636620000      0.1078860000
C                 -4.5930180000      1.4418530000      0.1242770000
C                 -2.1403700000      2.9262670000      0.0583820000
C                 -2.1511310000      1.4673270000      0.0753890000
C                 -3.3924310000      0.7768380000      0.1080920000
C                 -0.8911530000      3.6703010000      0.0250470000
C                  0.3279010000      2.8772590000      0.0089510000
C                  0.2814140000      1.4190260000      0.0268410000
C                 -0.9500070000      0.6706580000      0.0606000000
C                  1.6312350000      3.4948560000     -0.0252220000
C                  2.7790240000      2.7171740000     -0.0396400000
C                  2.7203790000      1.2965950000     -0.0216540000
C                  1.4946520000      0.6797820000      0.0106910000
O                 -0.8658160000      4.9619040000      0.0105780000
O                 -0.9753550000     -0.6219560000      0.0763470000
C                 -3.5555510000      5.1062350000      0.0613330000
H                 -5.5449990000      3.3984300000      0.1204940000
H                 -5.5349830000      0.8951120000      0.1493030000
H                 -3.3318140000     -0.3067750000      0.1193880000
C                  1.8275190000      4.9992930000     -0.0474930000
H                  1.3915680000     -0.4005770000      0.0254450000
H                  3.7483410000      3.2138570000     -0.0656300000
H                  3.6401520000      0.7128790000     -0.0336320000
H                 -4.6226690000      5.3754680000      0.0784390000
H                 -3.0799460000      5.5460140000     -0.8175610000
H                 -3.0473270000      5.5658040000      0.9114010000
H                  1.3351700000      5.4577190000     -0.9074490000
H                  2.9043240000      5.2258680000     -0.0732960000
H                  1.3721780000      5.4786470000      0.8214020000
$end
$rem
MAX_SCF_CYCLES=200
BASIS  =  6-311++G(d,p)
GUI  =  2
JOB_TYPE  =  SP
METHOD  =  B3LYP
SOLVENT_METHOD = PCM
$end
$pcm
theory = CPCM
$end
$solvent
dielectric 37.219
opticaldielectric 1.43
$end

--------------------------------------------------------------

             Standard Nuclear Orientation (Angstroms)
    I     Atom           X                Y                Z
 ----------------------------------------------------------------
    1      C      -3.4184800000     3.5951710000     0.0760600000
    2      C      -4.5958930000     2.8636620000     0.1078860000
    3      C      -4.5930180000     1.4418530000     0.1242770000
    4      C      -2.1403700000     2.9262670000     0.0583820000
    5      C      -2.1511310000     1.4673270000     0.0753890000
    6      C      -3.3924310000     0.7768380000     0.1080920000
    7      C      -0.8911530000     3.6703010000     0.0250470000
    8      C       0.3279010000     2.8772590000     0.0089510000
    9      C       0.2814140000     1.4190260000     0.0268410000
   10      C      -0.9500070000     0.6706580000     0.0606000000
   11      C       1.6312350000     3.4948560000    -0.0252220000
   12      C       2.7790240000     2.7171740000    -0.0396400000
   13      C       2.7203790000     1.2965950000    -0.0216540000
   14      C       1.4946520000     0.6797820000     0.0106910000
   15      O      -0.8658160000     4.9619040000     0.0105780000
   16      O      -0.9753550000    -0.6219560000     0.0763470000
   17      C      -3.5555510000     5.1062350000     0.0613330000
   18      H      -5.5449990000     3.3984300000     0.1204940000
   19      H      -5.5349830000     0.8951120000     0.1493030000
   20      H      -3.3318140000    -0.3067750000     0.1193880000
   21      C       1.8275190000     4.9992930000    -0.0474930000
   22      H       1.3915680000    -0.4005770000     0.0254450000
   23      H       3.7483410000     3.2138570000    -0.0656300000
   24      H       3.6401520000     0.7128790000    -0.0336320000
   25      H      -4.6226690000     5.3754680000     0.0784390000
   26      H      -3.0799460000     5.5460140000    -0.8175610000
   27      H      -3.0473270000     5.5658040000     0.9114010000
   28      H       1.3351700000     5.4577190000    -0.9074490000
   29      H       2.9043240000     5.2258680000    -0.0732960000
   30      H       1.3721780000     5.4786470000     0.8214020000
 ----------------------------------------------------------------

    9    -767.8283732472      2.63e-06  Convergence criterion met
 Total energy in the final basis set =     -767.8283732472

                    Orbital Energies (a.u.)
 --------------------------------------------------------------

 Alpha MOs
 -- Occupied --
-19.0175 -19.0113 -10.1777 -10.1677 -10.1590 -10.1590 -10.1454 -10.1454
-10.1392 -10.1392 -10.1389 -10.1389 -10.1388 -10.1388 -10.1382 -10.1382
-10.1334 -10.1334  -0.9355  -0.9320  -0.8249  -0.8201  -0.7521  -0.7443
 -0.7393  -0.7012  -0.6664  -0.6540  -0.6272  -0.5923  -0.5865  -0.5345
 -0.5143  -0.4951  -0.4842  -0.4370  -0.4344  -0.4319  -0.4277  -0.4004
 -0.3913  -0.3903  -0.3810  -0.3728  -0.3725  -0.3652  -0.3623  -0.3550
 -0.3465  -0.3328  -0.3255  -0.3171  -0.3151  -0.3093  -0.2981  -0.2968
 -0.2235  -0.2224  -0.2166  -0.2130  -0.1990  -0.1853  -0.1032

          Ground-State Mulliken Net Atomic Charges

     Atom                 Charge (a.u.)
  ----------------------------------------
      1 C                     0.494338
      2 C                    -0.587745
      3 C                    -0.474282
      4 C                     0.118517
      5 C                     0.431917
      6 C                    -0.055354
      7 C                    -0.758998
      8 C                     0.117824
      9 C                     0.430126
     10 C                    -0.560386
     11 C                     0.497134
     12 C                    -0.586702
     13 C                    -0.475302
     14 C                    -0.051814
     15 O                    -0.599557
     16 O                    -0.695748
     17 C                    -0.484780
     18 H                     0.111971
     19 H                     0.181605
     20 H                     0.136599
     21 C                    -0.484879
     22 H                     0.136432
     23 H                     0.112013
     24 H                     0.181700
     25 H                     0.135446
     26 H                     0.148566
     27 H                     0.148404
     28 H                     0.148756
     29 H                     0.135504
     30 H                     0.148695
  ----------------------------------------
  Sum of atomic charges =    -2.000000

                    Cartesian Multipole Moments
 -----------------------------------------------------------------
    Charge (ESU x 10^10)
                -9.6064
    Dipole Moment (Debye)
         X       8.8800      Y     -18.8349      Z      -0.4376
       Tot      20.8279
    Quadrupole Moments (Debye-Ang)
        XX    -142.6004     XY      16.7589     YY    -204.6524
        XZ       0.7212     YZ      -0.2979     ZZ    -119.0346

 Total job time:  62.63s(wall), 404.79s(cpu)
        *  Thank you very much for using Q-Chem.  Have a nice day.  *
