 Gaussian 16, Revision A.03,
 Gaussian 16:  ES64L-G16RevA.03 25-Dec-2016

 ----------------------------------------------------------------
 #P UB3LYP/6-311++G(d,p) SCRF=(PCM,Solvent=n,n-DiMethylFormamide)
 ----------------------------------------------------------------

 ------------------
 Quinone PCM in DMF
 ------------------
 Symbolic Z-matrix:
 Charge =  0 Multiplicity = 1

                         Standard orientation:
 ---------------------------------------------------------------------
 Center     Atomic      Atomic             Coordinates (Angstroms)
 Number     Number       Type             X           Y           Z
 ---------------------------------------------------------------------
      1          6           0        0.033766    1.766734    0.005129
      2          6           0       -1.048648    0.747537    0.005712
      3          6           0       -0.883957   -0.584853   -0.006189
      4          6           0        0.534875   -1.079866   -0.022085
      5          6           0        1.619900   -0.058595   -0.004001
      6          6           0        1.446355    1.269657   -0.003026
      7          8           0       -0.216823    2.953101    0.011078
      8          8           0        0.807956   -2.260616   -0.059542
      9          6           0        2.526125    2.302858    0.004322
     10          6           0       -2.024365   -1.582120   -0.009802
     11          6           0       -2.046716   -2.420132   -1.305485
     12          6           0       -2.014352   -2.466221    1.254765
     13          7           0       -2.408678    1.342746    0.018591
     14          7           0        2.984002   -0.639077    0.015211
     15          1           0        3.520052    1.860650   -0.028910
     16          1           0        2.436908    2.924954    0.898857
     17          1           0        2.404394    2.970297   -0.852452
     18          1           0       -2.950069   -1.001917    0.012359
     19          1           0       -2.947531   -3.038733   -1.312442
     20          1           0       -1.179376   -3.076899   -1.371352
     21          1           0       -2.074375   -1.780774   -2.191189
     22          1           0       -2.915195   -3.084737    1.262682
     23          1           0       -2.018790   -1.859342    2.163485
     24          1           0       -1.146294   -3.125114    1.275228
     25          8           0       -2.899925    1.557241    1.112354
     26          8           0       -2.916243    1.568772   -1.065316
     27          8           0        3.573071   -0.701250   -1.049920
     28          8           0        3.400104   -1.002757    1.100231
 ---------------------------------------------------------------------

 SCF Done:  E(UB3LYP) =  -947.978991403     A.U. after   16 cycles

 The electronic state is 1-A.
 Alpha  occ. eigenvalues --  -19.20377 -19.20375 -19.20351 -19.20316 -19.17459
 Alpha  occ. eigenvalues --  -19.17365 -14.59272 -14.59250 -10.32780 -10.32653
 Alpha  occ. eigenvalues --  -10.28341 -10.28273 -10.26266 -10.25991 -10.21506
 Alpha  occ. eigenvalues --  -10.20036 -10.17280 -10.17279  -1.28125  -1.28082
 Alpha  occ. eigenvalues --   -1.11109  -1.10969  -1.10963  -1.10840  -0.92502
 Alpha  occ. eigenvalues --   -0.88920  -0.82343  -0.80066  -0.77506  -0.72686
 Alpha  occ. eigenvalues --   -0.70067  -0.68319  -0.65745  -0.62438  -0.61729
 Alpha  occ. eigenvalues --   -0.60120  -0.59596  -0.57097  -0.56221  -0.56043
 Alpha  occ. eigenvalues --   -0.55923  -0.53418  -0.49965  -0.49549  -0.49384
 Alpha  occ. eigenvalues --   -0.47571  -0.46137  -0.45454  -0.44754  -0.43873
 Alpha  occ. eigenvalues --   -0.42721  -0.42366  -0.39719  -0.37980  -0.37115
 Alpha  occ. eigenvalues --   -0.36660  -0.36479  -0.36021  -0.35895  -0.35883
 Alpha  occ. eigenvalues --   -0.35834  -0.35428  -0.32488  -0.32363  -0.30781
 Alpha  occ. eigenvalues --   -0.30720
 Alpha virt. eigenvalues --   -0.16442  -0.11731  -0.11488  -0.05771  -0.03466
 Alpha virt. eigenvalues --   -0.01095   0.00120   0.01579   0.01616   0.02236
 Alpha virt. eigenvalues --    0.03222   0.03611   0.04266   0.04443   0.04987

  Beta  occ. eigenvalues --  -19.20377 -19.20375 -19.20351 -19.20316 -19.17459
  Beta  occ. eigenvalues --  -19.17365 -14.59272 -14.59250 -10.32780 -10.32653
  Beta  occ. eigenvalues --  -10.28341 -10.28273 -10.26266 -10.25991 -10.21506
  Beta  occ. eigenvalues --  -10.20036 -10.17280 -10.17279  -1.28125  -1.28082
  Beta  occ. eigenvalues --   -1.11109  -1.10969  -1.10963  -1.10840  -0.92502
  Beta  occ. eigenvalues --   -0.88920  -0.82343  -0.80066  -0.77506  -0.72686
  Beta  occ. eigenvalues --   -0.70067  -0.68319  -0.65745  -0.62438  -0.61729
  Beta  occ. eigenvalues --   -0.60120  -0.59596  -0.57097  -0.56221  -0.56043
  Beta  occ. eigenvalues --   -0.55923  -0.53418  -0.49965  -0.49549  -0.49384
  Beta  occ. eigenvalues --   -0.47571  -0.46137  -0.45454  -0.44754  -0.43873
  Beta  occ. eigenvalues --   -0.42721  -0.42366  -0.39719  -0.37980  -0.37115
  Beta  occ. eigenvalues --   -0.36660  -0.36479  -0.36021  -0.35895  -0.35883
  Beta  occ. eigenvalues --   -0.35834  -0.35428  -0.32488  -0.32363  -0.30781
  Beta  occ. eigenvalues --   -0.30720
  Beta virt. eigenvalues --   -0.16442  -0.11731  -0.11488  -0.05771  -0.03466
  Beta virt. eigenvalues --   -0.01095   0.00120   0.01579   0.01616   0.02236
  Beta virt. eigenvalues --    0.03222   0.03611   0.04266   0.04443   0.04987

 Mulliken charges and spin densities:
               1          2
     1  C   -0.454509   0.000000
     2  C   -0.227337  -0.000000
     3  C    1.336436  -0.000000
     4  C   -0.432368   0.000000
     5  C   -0.311680   0.000000
     6  C    0.798631  -0.000000
     7  O   -0.200096  -0.000000
     8  O   -0.178435   0.000000
     9  C   -0.475495  -0.000000
    10  C   -0.181859  -0.000000
    11  C   -0.644400   0.000000
    12  C   -0.652945   0.000000
    13  N   -0.230999   0.000000
    14  N   -0.236991  -0.000000
    15  H    0.184676  -0.000000
    16  H    0.224196  -0.000000
    17  H    0.222016  -0.000000
    18  H    0.224982   0.000000
    19  H    0.175965  -0.000000
    20  H    0.195607  -0.000000
    21  H    0.156150   0.000000
    22  H    0.176598  -0.000000
    23  H    0.156267  -0.000000
    24  H    0.194480  -0.000000
    25  O    0.045750  -0.000000
    26  O    0.047712  -0.000000
    27  O    0.041531  -0.000000
    28  O    0.046118  -0.000000
 Sum of Mulliken charges =  -0.00000  -0.00000

 Dipole moment (field-independent basis, Debye):
    X=             -0.2670    Y=             -0.3799    Z=             -0.0126  Tot=              0.4645
 Quadrupole moment (field-independent basis, Debye-Ang):
   XX=           -121.1242   YY=           -112.8373   ZZ=           -107.5319
   XY=             26.4196   XZ=              0.4477   YZ=              0.4294

 Normal termination of Gaussian 16 at Sun Jan 21 06:58:44 2024.
