 Q-Chem 5.4, Q-Chem, Inc., Pleasanton, CA (2021)
 Q-Chem 5.4.0 for Intel X86 EM64T Linux

User input:
--------------------------------------------------------------
$molecule
-2 1
C                 -3.0878040000      3.7659780000      0.6413130000
C                 -4.3458220000      3.2229730000      0.8012070000
C                 -4.5171150000      1.8227690000      0.6489790000
C                 -1.9561540000      2.9747490000      0.3264030000
C                 -2.1401000000      1.5480430000      0.1907020000
C                 -3.4432880000      1.0150390000      0.3571090000
C                 -0.6647660000      3.6183630000      0.1660140000
C                  0.4314880000      2.7154890000     -0.1379520000
C                  0.2475430000      1.2887830000     -0.2736530000
C                 -1.0438470000      0.6451700000     -0.1132680000
C                  1.7346730000      3.2484950000     -0.3043620000
C                  2.8085040000      2.4407620000     -0.5962210000
C                  2.6372140000      1.0405610000     -0.7484410000
C                  1.3791940000      0.4975540000     -0.5885540000
O                 -0.5021120000      4.8788690000      0.2911860000
O                 -1.2064970000     -0.6153360000     -0.2384390000
H                 -3.5632820000     -0.0582410000      0.2545920000
H                  1.2097980000     -0.5683400000     -0.7026300000
H                 -2.9184060000      4.8318710000      0.7553970000
H                  1.8546540000      4.3217780000     -0.2018540000
O                  4.0838210000      2.9932820000     -0.7950240000
O                 -5.7924160000      1.2702210000      0.8477940000
C                 -6.5942180000      1.2320370000     -0.3237070000
C                  4.8853480000      3.0321020000      0.3766440000
H                 -5.2034960000      3.8410930000      1.0527060000
H                  3.4948980000      0.4224470000     -0.9999210000
H                 -7.5646070000      0.8071790000     -0.0432110000
H                 -6.1373950000      0.6032920000     -1.0997080000
H                 -6.7544160000      2.2378220000     -0.7383330000
H                  5.8557750000      3.4568830000      0.0961620000
H                  5.0455100000      2.0265280000      0.7918000000
H                  4.4283090000      3.6611970000      1.1522300000
$end
$rem
MAX_SCF_CYCLES=200
BASIS  =  6-311++G(d,p)
GUI  =  2
JOB_TYPE  =  SP
METHOD  =  B3LYP
SOLVENT_METHOD = COSMO
$end
$solvent
dielectric 37.219
opticaldielectric 1.43
$end

--------------------------------------------------------------

             Standard Nuclear Orientation (Angstroms)
    I     Atom           X                Y                Z
 ----------------------------------------------------------------
    1      C       2.1116302214    -1.8882010662     0.1131247066
    2      C       3.4236315522    -1.4831772128     0.2459328233
    3      C       3.7130053356    -0.0962358474     0.3217111831
    4      C       1.0380120932    -0.9669473546     0.0461988170
    5      C       1.3437184766     0.4420202766     0.1415650796
    6      C       2.7001235018     0.8325224241     0.2748204639
    7      C      -0.3165788548    -1.4679207072    -0.1012991234
    8      C      -1.3437464767    -0.4419314650    -0.1415778167
    9      C      -1.0380410859     0.9670362447    -0.0462114607
   10      C       0.3165514413     1.4680091782     0.1012821982
   11      C      -2.7001489459    -0.8324352703    -0.2748367674
   12      C      -3.7130336101     0.0963242811    -0.3217158096
   13      C      -3.4236624610     1.4832615031    -0.2459298410
   14      C      -2.1116595041     1.8882884181    -0.1131284313
   15      O      -0.5863960320    -2.7136922708    -0.1803663834
   16      O       0.5863647264     2.7137808760     0.1803508123
   17      H       2.9118187496     1.8939786261     0.3478554356
   18      H      -1.8525256807     2.9407012073    -0.0573131960
   19      H       1.8524951312    -2.9406141548     0.0573176753
   20      H      -2.9118322746    -1.8938938177    -0.3478822951
   21      O      -5.0461336910    -0.3096834584    -0.4927021349
   22      O       5.0460930971     0.3097984490     0.4927155904
   23      C       5.7540446348     0.4947462366    -0.7243949199
   24      C      -5.7538588595    -0.4953064861     0.7244369713
   25      H       4.2365954775    -2.2017891149     0.3060607036
   26      H      -4.2366353909     2.2018648936    -0.3060391884
   27      H       6.7789043637     0.7848247275    -0.4668019412
   28      H       5.2989940350     1.2865315935    -1.3344686701
   29      H       5.7864095451    -0.4296225690    -1.3191019143
   30      H      -6.7787479946    -0.7853090033     0.4668745259
   31      H      -5.7861664463     0.4287573876     1.3196240152
   32      H      -5.2986590714    -1.2873774608     1.3340233343
 ----------------------------------------------------------------

   13    -918.0407190840      3.12e-06  Convergence criterion met
 Total energy in the final basis set =     -918.0407190840
    6    -918.3111112379      3.93e-06  Convergence criterion met
 Total energy in the final basis set =     -918.3111112379

                    Orbital Energies (a.u.)
 --------------------------------------------------------------

 Alpha MOs
 -- Occupied --
-19.1301 -19.1301 -19.0276 -19.0276 -10.2056 -10.2056 -10.2047 -10.2047
-10.1790 -10.1790 -10.1529 -10.1529 -10.1521 -10.1521 -10.1481 -10.1480
-10.1415 -10.1414 -10.1400 -10.1399  -1.0392  -1.0392  -0.9512  -0.9482
 -0.8326  -0.8255  -0.7571  -0.7323  -0.7312  -0.7193  -0.6808  -0.6719
 -0.6311  -0.6145  -0.5808  -0.5708  -0.5333  -0.5209  -0.5083  -0.4871
 -0.4633  -0.4542  -0.4496  -0.4494  -0.4441  -0.4322  -0.4224  -0.4079
 -0.4077  -0.3998  -0.3864  -0.3852  -0.3790  -0.3700  -0.3565  -0.3462
 -0.3374  -0.3346  -0.3317  -0.3236  -0.3112  -0.3005  -0.2688  -0.2683
 -0.2391  -0.2311  -0.2290  -0.2157  -0.2113  -0.2031  -0.1090

          Ground-State Mulliken Net Atomic Charges

     Atom                 Charge (a.u.)
  ----------------------------------------
      1 C                    -0.046342
      2 C                     0.029241
      3 C                    -0.704671
      4 C                     0.186343
      5 C                     0.364399
      6 C                    -0.085200
      7 C                    -0.517908
      8 C                     0.364311
      9 C                     0.186840
     10 C                    -0.517217
     11 C                    -0.085889
     12 C                    -0.704468
     13 C                     0.030123
     14 C                    -0.046214
     15 O                    -0.687514
     16 O                    -0.687407
     17 H                     0.173984
     18 H                     0.163967
     19 H                     0.163930
     20 H                     0.173997
     21 O                    -0.240565
     22 O                    -0.240734
     23 C                    -0.311817
     24 C                    -0.311755
     25 H                     0.210043
     26 H                     0.209851
     27 H                     0.175085
     28 H                     0.147252
     29 H                     0.143064
     30 H                     0.175070
     31 H                     0.142926
     32 H                     0.147275
  ----------------------------------------
  Sum of atomic charges =    -2.000000

                    Cartesian Multipole Moments
 -----------------------------------------------------------------
    Charge (ESU x 10^10)
                -9.6064
    Dipole Moment (Debye)
         X      -0.0013      Y       0.0017      Z      -0.0000
       Tot       0.0022
    Quadrupole Moments (Debye-Ang)
        XX    -147.0594     XY     -10.3459     YY    -175.0749
        XZ     -22.1859     YZ      -4.9436     ZZ    -129.6468

 Total job time:  94.90s(wall), 731.25s(cpu)
        *  Thank you very much for using Q-Chem.  Have a nice day.  *
