 Gaussian 16, Revision A.03,
 Gaussian 16:  ES64L-G16RevA.03 25-Dec-2016

 ----------------------------------------------------------------
 #P UB3LYP/6-311++G(d,p) SCRF=(PCM,Solvent=n,n-DiMethylFormamide)
 ----------------------------------------------------------------

 ------------------
 Quinone PCM in DMF
 ------------------
 Symbolic Z-matrix:
 Charge =  0 Multiplicity = 1

                         Standard orientation:
 ---------------------------------------------------------------------
 Center     Atomic      Atomic             Coordinates (Angstroms)
 Number     Number       Type             X           Y           Z
 ---------------------------------------------------------------------
      1          6           0        4.150853   -1.821322    0.000372
      2          8           0        2.753746   -1.548769    0.000031
      3          6           0        2.322246   -0.273112   -0.000143
      4          6           0        3.205686    0.815812   -0.000362
      5          6           0        2.725021    2.120178   -0.000408
      6          6           0        1.360092    2.366924   -0.000197
      7          6           0        0.465160    1.297010   -0.000011
      8          6           0       -0.994285    1.639522    0.000272
      9          8           0       -1.363596    2.803153    0.000646
     10          6           0       -1.968896    0.520849    0.000075
     11          6           0       -3.339875    0.803028   -0.000065
     12          6           0       -4.262988   -0.234017   -0.000218
     13          6           0       -3.821978   -1.561134   -0.000186
     14          6           0       -2.462169   -1.846698   -0.000056
     15          6           0       -1.524359   -0.808814    0.000052
     16          6           0       -0.065096   -1.164351    0.000032
     17          8           0        0.260654   -2.338884    0.000029
     18          6           0        0.918335   -0.041712   -0.000011
     19          1           0        4.637012   -1.420535    0.895765
     20          1           0        4.637316   -1.421502   -0.895292
     21          1           0        4.230309   -2.906576    0.000964
     22          1           0        4.273090    0.646372   -0.000449
     23          1           0        3.428156    2.945514   -0.000576
     24          1           0        0.963334    3.373239   -0.000202
     25          1           0       -3.653920    1.839420   -0.000083
     26          1           0       -5.324698   -0.014784   -0.000341
     27          1           0       -4.542976   -2.370942   -0.000284
     28          1           0       -2.100533   -2.867184   -0.000028
 ---------------------------------------------------------------------

 SCF Done:  E(UB3LYP) =  -803.513405343     A.U. after   14 cycles

 The electronic state is 1-A.
 Alpha  occ. eigenvalues --  -19.17272 -19.13071 -19.12432 -10.28278 -10.28159
 Alpha  occ. eigenvalues --  -10.26776 -10.22909 -10.21131 -10.21078 -10.20748
 Alpha  occ. eigenvalues --  -10.20644 -10.20105 -10.19834 -10.19770 -10.19715
 Alpha  occ. eigenvalues --  -10.19667 -10.19570 -10.19094  -1.09387  -1.06612
 Alpha  occ. eigenvalues --   -1.06022  -0.89289  -0.88084  -0.81252  -0.78485
 Alpha  occ. eigenvalues --   -0.77735  -0.77190  -0.71916  -0.68972  -0.66300
 Alpha  occ. eigenvalues --   -0.64673  -0.61042  -0.58532  -0.56421  -0.56210
 Alpha  occ. eigenvalues --   -0.52027  -0.50768  -0.49818  -0.48864  -0.48617
 Alpha  occ. eigenvalues --   -0.48039  -0.45692  -0.45517  -0.45259  -0.45081
 Alpha  occ. eigenvalues --   -0.44312  -0.42667  -0.41838  -0.40386  -0.39843
 Alpha  occ. eigenvalues --   -0.39202  -0.37808  -0.37350  -0.36813  -0.35406
 Alpha  occ. eigenvalues --   -0.34393  -0.29039  -0.28518  -0.27807  -0.27757
 Alpha  occ. eigenvalues --   -0.26703  -0.24967
 Alpha virt. eigenvalues --   -0.11688  -0.06930  -0.03787  -0.02073  -0.00741
 Alpha virt. eigenvalues --   -0.00026   0.00720   0.01535   0.01817   0.03053
 Alpha virt. eigenvalues --    0.03054   0.03500   0.03578   0.03954   0.03967

  Beta  occ. eigenvalues --  -19.17272 -19.13071 -19.12432 -10.28278 -10.28159
  Beta  occ. eigenvalues --  -10.26776 -10.22909 -10.21131 -10.21078 -10.20748
  Beta  occ. eigenvalues --  -10.20644 -10.20105 -10.19834 -10.19770 -10.19715
  Beta  occ. eigenvalues --  -10.19667 -10.19570 -10.19094  -1.09387  -1.06612
  Beta  occ. eigenvalues --   -1.06022  -0.89289  -0.88084  -0.81252  -0.78485
  Beta  occ. eigenvalues --   -0.77735  -0.77190  -0.71916  -0.68972  -0.66300
  Beta  occ. eigenvalues --   -0.64673  -0.61042  -0.58532  -0.56421  -0.56210
  Beta  occ. eigenvalues --   -0.52027  -0.50768  -0.49818  -0.48864  -0.48617
  Beta  occ. eigenvalues --   -0.48039  -0.45692  -0.45517  -0.45259  -0.45081
  Beta  occ. eigenvalues --   -0.44312  -0.42667  -0.41838  -0.40386  -0.39843
  Beta  occ. eigenvalues --   -0.39202  -0.37808  -0.37350  -0.36813  -0.35406
  Beta  occ. eigenvalues --   -0.34393  -0.29039  -0.28518  -0.27807  -0.27757
  Beta  occ. eigenvalues --   -0.26703  -0.24967
  Beta virt. eigenvalues --   -0.11688  -0.06930  -0.03787  -0.02073  -0.00741
  Beta virt. eigenvalues --   -0.00026   0.00720   0.01535   0.01817   0.03053
  Beta virt. eigenvalues --    0.03054   0.03500   0.03578   0.03954   0.03967

 Mulliken charges and spin densities:
               1          2
     1  C   -0.287755   0.000000
     2  O   -0.128618   0.000000
     3  C   -0.040937  -0.000000
     4  C    0.009044   0.000000
     5  C   -0.379497  -0.000000
     6  C    0.058393  -0.000000
     7  C    0.523173  -0.000000
     8  C   -0.557403   0.000000
     9  O   -0.272116  -0.000000
    10  C   -0.120045  -0.000000
    11  C    0.170860  -0.000000
    12  C   -0.476285  -0.000000
    13  C   -0.430417  -0.000000
    14  C    0.174927   0.000000
    15  C    0.340915  -0.000000
    16  C   -0.453917   0.000000
    17  O   -0.286548  -0.000000
    18  C    0.231723   0.000000
    19  H    0.168628  -0.000000
    20  H    0.168678  -0.000000
    21  H    0.201815  -0.000000
    22  H    0.212530  -0.000000
    23  H    0.220679   0.000000
    24  H    0.174152  -0.000000
    25  H    0.185436  -0.000000
    26  H    0.204848  -0.000000
    27  H    0.208057  -0.000000
    28  H    0.179681  -0.000000
 Sum of Mulliken charges =  -0.00000   0.00000

 Dipole moment (field-independent basis, Debye):
    X=              2.7974    Y=             -0.1658    Z=             -0.0011  Tot=              2.8023
 Quadrupole moment (field-independent basis, Debye-Ang):
   XX=            -62.9992   YY=           -113.0576   ZZ=           -106.0494
   XY=              8.9222   XZ=              0.0036   YZ=             -0.0054

 Normal termination of Gaussian 16 at Sun Jan 14 01:02:12 2024.
