 Q-Chem 5.4, Q-Chem, Inc., Pleasanton, CA (2021)
 Q-Chem 5.4.0 for Intel X86 EM64T Linux

User input:
--------------------------------------------------------------
$molecule
0 1
C                 -2.5490400000      4.1040210000      4.5039600000
C                 -2.9291840000      3.1892200000      5.4800860000
C                 -2.2433370000      1.9792510000      5.6065270000
C                 -1.4790450000      3.8055180000      3.6556210000
C                 -0.7874550000      2.5901690000      3.7795440000
C                 -1.1787470000      1.6788280000      4.7591350000
C                 -1.0596330000      4.7602580000      2.6189400000
C                  0.1025930000      4.3965850000      1.7529910000
C                  0.8062890000      3.2411810000      1.8676140000
C                  0.3604650000      2.2444350000      2.8675180000
O                 -1.5930600000      5.8469080000      2.4236400000
O                  0.8942940000      1.1510480000      2.9630460000
O                  0.4019280000      5.3385200000      0.8432160000
H                 -3.0656230000      5.0485270000      4.3846530000
H                 -3.7572930000      3.4158150000      6.1415310000
H                 -2.5406970000      1.2676000000      6.3684230000
H                 -0.6385890000      0.7440190000      4.8423020000
H                 -0.2347370000      6.0652420000      0.9891630000
C                  3.2298270000      2.4276020000      1.6246630000
C                  3.6277200000      2.9659410000      2.8532620000
C                  4.0515040000      1.4775910000      1.0165440000
C                  5.2294740000      1.0567690000      1.6336380000
C                  5.6111480000      1.5886450000      2.8627160000
C                  4.8054520000      2.5516700000      3.4690480000
H                  3.0133820000      3.7186030000      3.3376870000
H                  3.7686130000      1.0810590000      0.0500750000
H                  5.8517050000      0.3127720000      1.1478130000
H                  5.0943360000      2.9815600000      4.4220180000
H                  6.5271610000      1.2612040000      3.3416560000
C                  1.9811490000      2.9657710000      0.9214390000
H                  2.2693780000      3.9485130000      0.5384960000
N                  1.6161490000      2.2066650000     -0.2828070000
C                  0.8844010000      0.9433430000     -0.1470970000
C                  0.7754480000      0.2442800000     -1.5029610000
C                  0.0044590000     -1.0785240000     -1.4347740000
C                 -0.1042890000     -1.7913580000     -2.7875290000
C                 -0.8717330000     -3.1166190000     -2.7227880000
C                 -0.9798020000     -3.8310860000     -4.0747120000
C                 -1.7452220000     -5.1575930000     -4.0099020000
C                 -1.8531330000     -5.8722660000     -5.3617510000
C                 -2.6173690000     -7.1994940000     -5.2968290000
C                 -2.7255030000     -7.9141580000     -6.6484480000
C                 -3.4888810000     -9.2419580000     -6.5845940000
C                 -3.5915420000     -9.9481480000     -7.9397130000
H                  1.1307940000      2.8220460000     -0.9257020000
H                 -0.1274730000      1.0812290000      0.2678470000
H                  1.4216640000      0.3101310000      0.5615380000
H                  1.7841350000      0.0702290000     -1.8937490000
H                  0.2808020000      0.9154180000     -2.2185720000
H                 -1.0036800000     -0.8940540000     -1.0418650000
H                  0.4937090000     -1.7449830000     -0.7131570000
H                  0.9037100000     -1.9761230000     -3.1806560000
H                 -0.5936540000     -1.1247840000     -3.5096580000
H                 -1.8800100000     -2.9318600000     -2.3297450000
H                 -0.3823710000     -3.7824170000     -2.0001290000
H                  0.0285150000     -4.0146410000     -4.4680360000
H                 -1.4701110000     -3.1656700000     -4.7972430000
H                 -2.7535640000     -4.9742720000     -3.6163710000
H                 -1.2546610000     -5.8228990000     -3.2875130000
H                 -0.8448150000     -6.0548700000     -5.7555470000
H                 -2.3443440000     -5.2072680000     -6.0840230000
H                 -3.6256990000     -7.0170690000     -4.9028110000
H                 -2.1259020000     -7.8645720000     -4.5747890000
H                 -1.7174740000     -8.0969520000     -7.0433870000
H                 -3.2176640000     -7.2500720000     -7.3711600000
H                 -4.4963230000     -9.0598360000     -6.1907710000
H                 -2.9969950000     -9.9060880000     -5.8633670000
H                 -4.1102170000     -9.3227620000     -8.6733630000
H                 -4.1410160000    -10.8903510000     -7.8596790000
H                 -2.5997440000    -10.1756610000     -8.3433740000
$end

$rem
BASIS  =  6-311++G(d,p)
GUI  =  2
JOB_TYPE  =  SP
METHOD  =  B3LYP
SCF_CONVERGENCE  = 8
SOLVENT_METHOD = sm12
$end

$smx
solvent dimethylformamide
charges CM5
$end

--------------------------------------------------------------

             Standard Nuclear Orientation (Angstroms)
    I     Atom           X                Y                Z
 ----------------------------------------------------------------
    1      C      -2.5490400000     4.1040210000     4.5039600000
    2      C      -2.9291840000     3.1892200000     5.4800860000
    3      C      -2.2433370000     1.9792510000     5.6065270000
    4      C      -1.4790450000     3.8055180000     3.6556210000
    5      C      -0.7874550000     2.5901690000     3.7795440000
    6      C      -1.1787470000     1.6788280000     4.7591350000
    7      C      -1.0596330000     4.7602580000     2.6189400000
    8      C       0.1025930000     4.3965850000     1.7529910000
    9      C       0.8062890000     3.2411810000     1.8676140000
   10      C       0.3604650000     2.2444350000     2.8675180000
   11      O      -1.5930600000     5.8469080000     2.4236400000
   12      O       0.8942940000     1.1510480000     2.9630460000
   13      O       0.4019280000     5.3385200000     0.8432160000
   14      H      -3.0656230000     5.0485270000     4.3846530000
   15      H      -3.7572930000     3.4158150000     6.1415310000
   16      H      -2.5406970000     1.2676000000     6.3684230000
   17      H      -0.6385890000     0.7440190000     4.8423020000
   18      H      -0.2347370000     6.0652420000     0.9891630000
   19      C       3.2298270000     2.4276020000     1.6246630000
   20      C       3.6277200000     2.9659410000     2.8532620000
   21      C       4.0515040000     1.4775910000     1.0165440000
   22      C       5.2294740000     1.0567690000     1.6336380000
   23      C       5.6111480000     1.5886450000     2.8627160000
   24      C       4.8054520000     2.5516700000     3.4690480000
   25      H       3.0133820000     3.7186030000     3.3376870000
   26      H       3.7686130000     1.0810590000     0.0500750000
   27      H       5.8517050000     0.3127720000     1.1478130000
   28      H       5.0943360000     2.9815600000     4.4220180000
   29      H       6.5271610000     1.2612040000     3.3416560000
   30      C       1.9811490000     2.9657710000     0.9214390000
   31      H       2.2693780000     3.9485130000     0.5384960000
   32      N       1.6161490000     2.2066650000    -0.2828070000
   33      C       0.8844010000     0.9433430000    -0.1470970000
   34      C       0.7754480000     0.2442800000    -1.5029610000
   35      C       0.0044590000    -1.0785240000    -1.4347740000
   36      C      -0.1042890000    -1.7913580000    -2.7875290000
   37      C      -0.8717330000    -3.1166190000    -2.7227880000
   38      C      -0.9798020000    -3.8310860000    -4.0747120000
   39      C      -1.7452220000    -5.1575930000    -4.0099020000
   40      C      -1.8531330000    -5.8722660000    -5.3617510000
   41      C      -2.6173690000    -7.1994940000    -5.2968290000
   42      C      -2.7255030000    -7.9141580000    -6.6484480000
   43      C      -3.4888810000    -9.2419580000    -6.5845940000
   44      C      -3.5915420000    -9.9481480000    -7.9397130000
   45      H       1.1307940000     2.8220460000    -0.9257020000
   46      H      -0.1274730000     1.0812290000     0.2678470000
   47      H       1.4216640000     0.3101310000     0.5615380000
   48      H       1.7841350000     0.0702290000    -1.8937490000
   49      H       0.2808020000     0.9154180000    -2.2185720000
   50      H      -1.0036800000    -0.8940540000    -1.0418650000
   51      H       0.4937090000    -1.7449830000    -0.7131570000
   52      H       0.9037100000    -1.9761230000    -3.1806560000
   53      H      -0.5936540000    -1.1247840000    -3.5096580000
   54      H      -1.8800100000    -2.9318600000    -2.3297450000
   55      H      -0.3823710000    -3.7824170000    -2.0001290000
   56      H       0.0285150000    -4.0146410000    -4.4680360000
   57      H      -1.4701110000    -3.1656700000    -4.7972430000
   58      H      -2.7535640000    -4.9742720000    -3.6163710000
   59      H      -1.2546610000    -5.8228990000    -3.2875130000
   60      H      -0.8448150000    -6.0548700000    -5.7555470000
   61      H      -2.3443440000    -5.2072680000    -6.0840230000
   62      H      -3.6256990000    -7.0170690000    -4.9028110000
   63      H      -2.1259020000    -7.8645720000    -4.5747890000
   64      H      -1.7174740000    -8.0969520000    -7.0433870000
   65      H      -3.2176640000    -7.2500720000    -7.3711600000
   66      H      -4.4963230000    -9.0598360000    -6.1907710000
   67      H      -2.9969950000    -9.9060880000    -5.8633670000
   68      H      -4.1102170000    -9.3227620000    -8.6733630000
   69      H      -4.1410160000   -10.8903510000    -7.8596790000
   70      H      -2.5997440000   -10.1756610000    -8.3433740000
 ----------------------------------------------------------------

   15   -1408.1924730457      7.76e-09  Convergence criterion met
 Total energy in the final basis set =    -1408.2253699661

                    Orbital Energies (a.u.)
 --------------------------------------------------------------

 Alpha MOs
 -- Occupied --
-19.1815 -19.1500 -19.1246 -14.3042 -10.2936 -10.2791 -10.2718 -10.2237
-10.2107 -10.2096 -10.2063 -10.2009 -10.1989 -10.1969 -10.1965 -10.1897
-10.1886 -10.1810 -10.1802 -10.1789 -10.1784 -10.1750 -10.1654 -10.1635
-10.1632 -10.1629 -10.1629 -10.1625 -10.1621 -10.1621 -10.1619 -10.1617
-10.1576  -1.1118  -1.0680  -1.0600  -0.9176  -0.8920  -0.8618  -0.8381
 -0.8164  -0.8055  -0.7919  -0.7811  -0.7788  -0.7651  -0.7552  -0.7520
 -0.7270  -0.7072  -0.6916  -0.6729  -0.6550  -0.6457  -0.6295  -0.6133
 -0.6121  -0.6058  -0.5878  -0.5837  -0.5806  -0.5753  -0.5742  -0.5731
 -0.5442  -0.5230  -0.5179  -0.5004  -0.4932  -0.4886  -0.4834  -0.4797
 -0.4745  -0.4658  -0.4639  -0.4623  -0.4562  -0.4519  -0.4458  -0.4442
 -0.4388  -0.4352  -0.4318  -0.4274  -0.4256  -0.4218  -0.4159  -0.4111
 -0.4082  -0.4058  -0.4023  -0.3948  -0.3883  -0.3809  -0.3775  -0.3749
 -0.3715  -0.3699  -0.3671  -0.3618  -0.3529  -0.3500  -0.3469  -0.3436
 -0.3377  -0.3320  -0.3309  -0.3290  -0.3255  -0.3251  -0.3233  -0.3228
 -0.3046  -0.2987  -0.2905  -0.2815  -0.2791  -0.2695  -0.2619  -0.2484
 -0.2303

          Ground-State Mulliken Net Atomic Charges

     Atom                 Charge (a.u.)
  ----------------------------------------
      1 C                     0.455944
      2 C                     0.254369
      3 C                     0.160255
      4 C                     0.570399
      5 C                    -0.240183
      6 C                    -0.179882
      7 C                    -0.325709
      8 C                     0.024476
      9 C                     0.214906
     10 C                    -0.449737
     11 O                    -0.292460
     12 O                    -0.284698
     13 O                    -0.180193
     14 H                     0.236832
     15 H                     0.322735
     16 H                     0.311232
     17 H                     0.194424
     18 H                     0.306798
     19 C                     0.107385
     20 C                    -0.513517
     21 C                    -0.658621
     22 C                    -0.563490
     23 C                    -0.398891
     24 C                    -0.610768
     25 H                     0.197602
     26 H                     0.041795
     27 H                     0.254496
     28 H                     0.258136
     29 H                     0.236747
     30 C                     0.100097
     31 H                     0.259361
     32 N                     0.047405
     33 C                    -0.632197
     34 C                    -0.315786
     35 C                     0.189984
     36 C                    -0.161559
     37 C                    -0.338128
     38 C                    -0.306563
     39 C                    -0.126100
     40 C                    -0.041310
     41 C                    -0.088744
     42 C                    -0.348775
     43 C                    -0.276988
     44 C                    -0.645516
     45 H                     0.405896
     46 H                     0.124303
     47 H                     0.040297
     48 H                     0.094573
     49 H                     0.116801
     50 H                     0.094705
     51 H                     0.099375
     52 H                     0.106092
     53 H                     0.110285
     54 H                     0.115555
     55 H                     0.108449
     56 H                     0.112837
     57 H                     0.115330
     58 H                     0.113325
     59 H                     0.110738
     60 H                     0.111822
     61 H                     0.113752
     62 H                     0.114826
     63 H                     0.112753
     64 H                     0.105679
     65 H                     0.105751
     66 H                     0.129427
     67 H                     0.128422
     68 H                     0.141665
     69 H                     0.160426
     70 H                     0.141352
  ----------------------------------------
  Sum of atomic charges =     0.000000

                    Cartesian Multipole Moments
 -----------------------------------------------------------------
    Charge (ESU x 10^10)
                -0.0000
    Dipole Moment (Debye)
         X      -3.9995      Y       0.5816      Z       2.2286
       Tot       4.6153
    Quadrupole Moments (Debye-Ang)
        XX    -202.3523     XY      -9.4720     YY    -203.4435
        XZ     -14.3121     YZ       7.1757     ZZ    -181.1887

 Total job time:  6408.13s(wall), 32498.31s(cpu)
        *  Thank you very much for using Q-Chem.  Have a nice day.  *
