 Q-Chem 5.4, Q-Chem, Inc., Pleasanton, CA (2021)
 Q-Chem 5.4.0 for Intel X86 EM64T Linux

User input:
--------------------------------------------------------------
$molecule
-1 2
C                  5.9103840000     -5.2109520000      1.0722550000
C                  6.7834000000     -5.0768970000      0.0077330000
C                  6.5531070000     -4.0900490000     -0.9692070000
C                  4.7867560000     -4.3711220000      1.1966590000
C                  4.5553060000     -3.3791100000      0.2146640000
C                  5.4543400000     -3.2566070000     -0.8623890000
C                  3.8845690000     -4.5525330000      2.3491450000
C                  2.7590930000     -3.6426270000      2.3897720000
C                  2.5323850000     -2.6707460000      1.4277830000
C                  3.3981670000     -2.4674650000      0.2852530000
O                  4.0913150000     -5.4296720000      3.2160240000
O                  3.1958960000     -1.5911260000     -0.5834920000
H                  6.0612130000     -5.9610780000      1.8398150000
H                  7.6454430000     -5.7320560000     -0.0744310000
H                  5.2506220000     -2.4876820000     -1.5984820000
Cl                 1.6687130000     -3.8378100000      3.7533860000
H                  7.2373520000     -3.9833310000     -1.8055810000
Cl                 1.1460900000     -1.5969380000      1.5353940000
$end
$rem
MAX_SCF_CYCLES=200
BASIS  =  6-311++G(d,p)
GUI  =  2
JOB_TYPE  =  SP
METHOD  =  B3LYP
SOLVENT_METHOD = COSMO
$end
$solvent
dielectric 37.219
opticaldielectric 1.43
$end

--------------------------------------------------------------

             Standard Nuclear Orientation (Angstroms)
    I     Atom           X                Y                Z
 ----------------------------------------------------------------
    1      C       2.5146126416    -1.3937691714     0.0000795148
    2      C       3.7134686708    -0.7037843974     0.0000540429
    3      C       3.7134681873     0.7038077280    -0.0000599112
    4      C       1.2848400526    -0.7074820367    -0.0000416820
    5      C       1.2848511874     0.7074282386    -0.0000998026
    6      C       2.5145945051     1.3937544405    -0.0000899444
    7      C       0.0328374758    -1.4869464912    -0.0002019682
    8      C      -1.1779700244    -0.6930819678    -0.0000448489
    9      C      -1.1779602153     0.6930536790    -0.0000357805
   10      C       0.0328614228     1.4868970919    -0.0002200145
   11      O       0.0352378320    -2.7373824024     0.0002504530
   12      O       0.0352860286     2.7373351621     0.0002588637
   13      H       2.4824980678    -2.4770767928     0.0001697334
   14      H       4.6536222124    -1.2471201010     0.0001137609
   15      H       2.4823598896     2.4770551890    -0.0001291506
   16      Cl     -2.6838551372    -1.5979455573    -0.0000619109
   17      H       4.6536088155     1.2471649016    -0.0000813717
   18      Cl     -2.6837862329     1.5980097952     0.0000510204
 ----------------------------------------------------------------

    9   -1454.5832440340      6.71e-06  Convergence criterion met
 Total energy in the final basis set =    -1454.5832440340
    5   -1454.6626622992      3.86e-06  Convergence criterion met
 Total energy in the final basis set =    -1454.6626622992

                    Orbital Energies (a.u.)
 --------------------------------------------------------------

 Alpha MOs
 -- Occupied --
********-101.5567 -19.0934 -19.0934 -10.2451 -10.2451 -10.2386 -10.2380
-10.1858 -10.1854 -10.1783 -10.1778 -10.1765 -10.1765  -9.4712  -9.4712
 -7.2357  -7.2357  -7.2266  -7.2266  -7.2254  -7.2254  -1.0247  -1.0219
 -0.8982  -0.8655  -0.8503  -0.7957  -0.7587  -0.7334  -0.6847  -0.6225
 -0.6135  -0.5720  -0.5324  -0.5070  -0.4812  -0.4658  -0.4440  -0.4353
 -0.4345  -0.4302  -0.4226  -0.4113  -0.4013  -0.3795  -0.3656  -0.3500
 -0.3482  -0.3377  -0.3305  -0.3072  -0.2804  -0.2649  -0.2639  -0.2574
 -0.2525  -0.1688

 Beta MOs
 -- Occupied --
********-101.5567 -19.0874 -19.0874 -10.2436 -10.2436 -10.2366 -10.2360
-10.1855 -10.1851 -10.1780 -10.1776 -10.1764 -10.1763  -9.4712  -9.4712
 -7.2357  -7.2357  -7.2263  -7.2263  -7.2254  -7.2254  -1.0145  -1.0114
 -0.8948  -0.8643  -0.8487  -0.7921  -0.7569  -0.7313  -0.6758  -0.6208
 -0.6102  -0.5692  -0.5303  -0.5046  -0.4781  -0.4648  -0.4330  -0.4324
 -0.4292  -0.4277  -0.4194  -0.4083  -0.3781  -0.3760  -0.3645  -0.3475
 -0.3365  -0.3320  -0.3297  -0.3068  -0.2599  -0.2593  -0.2576  -0.2518
 -0.2452

          Ground-State Mulliken Net Atomic Charges

     Atom                 Charge (a.u.)    Spin (a.u.)
  --------------------------------------------------------
      1 C                    -0.053567       0.033278
      2 C                    -0.471029       0.019131
      3 C                    -0.471835       0.019134
      4 C                     0.529977       0.024136
      5 C                     0.530305       0.024142
      6 C                    -0.053453       0.033276
      7 C                    -1.764231       0.095791
      8 C                     0.926625       0.104863
      9 C                     0.925459       0.104840
     10 C                    -1.764682       0.095775
     11 O                    -0.430184       0.217820
     12 O                    -0.430103       0.217853
     13 H                     0.191343      -0.002269
     14 H                     0.211105      -0.001626
     15 H                     0.191363      -0.002269
     16 Cl                    0.360930       0.008879
     17 H                     0.211122      -0.001626
     18 Cl                    0.360855       0.008872
  --------------------------------------------------------
  Sum of atomic charges =    -1.000000

                    Cartesian Multipole Moments
 -----------------------------------------------------------------
    Charge (ESU x 10^10)
                -4.8032
    Dipole Moment (Debye)
         X       4.3598      Y       0.0004      Z      -0.0019
       Tot       4.3598
    Quadrupole Moments (Debye-Ang)
        XX     -96.1982     XY       0.0005     YY    -133.6832
        XZ      -0.0003     YZ      -0.0022     ZZ     -98.4203

 Total job time:  40.90s(wall), 307.79s(cpu)
        *  Thank you very much for using Q-Chem.  Have a nice day.  *
