 Q-Chem 5.4, Q-Chem, Inc., Pleasanton, CA (2021)
 Q-Chem 5.4.0 for Intel X86 EM64T Linux

User input:
--------------------------------------------------------------
$molecule
-2 1
C                 -2.1784800000     -3.9145440000      1.1110960000
C                 -0.7649990000     -3.8387700000      1.3860580000
C                 -0.0712750000     -2.6745710000      1.6689390000
C                 -0.6869860000     -1.3781810000      1.7158260000
C                 -2.1087360000     -1.4155680000      1.4580030000
C                 -2.7794830000     -2.6202910000      1.1655950000
O                 -2.7857930000     -5.0222360000      0.8666290000
O                 -0.0320230000     -0.2894970000      1.9254480000
Cl                -4.5650130000     -2.5645240000      0.9129400000
C                 -2.8030690000     -0.1079590000      1.4601070000
O                 -3.2392040000      0.5118670000      0.5094410000
O                 -2.9142810000      0.4050780000      2.7293050000
C                 -3.3774950000      1.7498140000      2.8131470000
H                 -0.2393440000     -4.7936220000      1.3662270000
H                  1.0005100000     -2.7077130000      1.8635500000
H                 -3.3810010000      2.0055210000      3.8759890000
H                 -4.3864980000      1.8534950000      2.4014020000
H                 -2.7082000000      2.4266620000      2.2721980000
$end

$rem
BASIS  =  6-311++G(d,p)
GUI  =  2
JOB_TYPE  =  SP
METHOD  =  B3LYP
SCF_CONVERGENCE  = 8
SOLVENT_METHOD = sm12
$end

$smx
solvent dimethylformamide
charges CM5
$end

--------------------------------------------------------------

             Standard Nuclear Orientation (Angstroms)
    I     Atom           X                Y                Z
 ----------------------------------------------------------------
    1      C      -2.1784800000    -3.9145440000     1.1110960000
    2      C      -0.7649990000    -3.8387700000     1.3860580000
    3      C      -0.0712750000    -2.6745710000     1.6689390000
    4      C      -0.6869860000    -1.3781810000     1.7158260000
    5      C      -2.1087360000    -1.4155680000     1.4580030000
    6      C      -2.7794830000    -2.6202910000     1.1655950000
    7      O      -2.7857930000    -5.0222360000     0.8666290000
    8      O      -0.0320230000    -0.2894970000     1.9254480000
    9      Cl     -4.5650130000    -2.5645240000     0.9129400000
   10      C      -2.8030690000    -0.1079590000     1.4601070000
   11      O      -3.2392040000     0.5118670000     0.5094410000
   12      O      -2.9142810000     0.4050780000     2.7293050000
   13      C      -3.3774950000     1.7498140000     2.8131470000
   14      H      -0.2393440000    -4.7936220000     1.3662270000
   15      H       1.0005100000    -2.7077130000     1.8635500000
   16      H      -3.3810010000     2.0055210000     3.8759890000
   17      H      -4.3864980000     1.8534950000     2.4014020000
   18      H      -2.7082000000     2.4266620000     2.2721980000
 ----------------------------------------------------------------

   18   -1069.1164556634      8.84e-09  Convergence criterion met
 Total energy in the final basis set =    -1069.4020486187

                    Orbital Energies (a.u.)
 --------------------------------------------------------------

 Alpha MOs
 -- Occupied --
******** -19.1524 -19.1042 -19.0211 -19.0182 -10.2926 -10.2180 -10.1949
-10.1896 -10.1872 -10.1539 -10.1484 -10.1452  -9.4404  -7.2044  -7.1959
 -7.1954  -1.0928  -1.0066  -0.9395  -0.9351  -0.8385  -0.7858  -0.7436
 -0.6993  -0.6613  -0.6054  -0.5527  -0.5460  -0.4908  -0.4740  -0.4692
 -0.4470  -0.4396  -0.4209  -0.4012  -0.3808  -0.3752  -0.3624  -0.3565
 -0.3440  -0.3382  -0.3272  -0.3053  -0.2970  -0.2864  -0.2737  -0.2346
 -0.2236  -0.1997  -0.1973  -0.1267

          Ground-State Mulliken Net Atomic Charges

     Atom                 Charge (a.u.)
  ----------------------------------------
      1 C                    -1.719971
      2 C                    -0.764876
      3 C                    -0.720526
      4 C                    -1.549014
      5 C                     0.097311
      6 C                     0.562419
      7 O                    -0.414227
      8 O                    -0.391105
      9 Cl                    0.860123
     10 C                     1.161993
     11 O                    -0.124525
     12 O                    -0.001236
     13 C                     0.257471
     14 H                     0.030341
     15 H                     0.018129
     16 H                     0.295120
     17 H                     0.216953
     18 H                     0.185619
  ----------------------------------------
  Sum of atomic charges =    -2.000000

                    Cartesian Multipole Moments
 -----------------------------------------------------------------
    Charge (ESU x 10^10)
                -9.6064
    Dipole Moment (Debye)
         X      17.4684      Y      24.1240      Z     -11.5691
       Tot      31.9524
    Quadrupole Moments (Debye-Ang)
        XX    -150.5587     XY     -61.0071     YY    -194.1746
        XZ      11.1900     YZ      27.5375     ZZ    -109.8870

 Total job time:  235.65s(wall), 1661.22s(cpu)
        *  Thank you very much for using Q-Chem.  Have a nice day.  *
