 Gaussian 16, Revision A.03,
 Gaussian 16:  ES64L-G16RevA.03 25-Dec-2016

 --------------------------------------
 #P UB3LYP/6-311++G(d,p) nosym opt freq
 --------------------------------------

 -------
 Radical
 -------
 Symbolic Z-matrix:
 Charge = -1 Multiplicity = 2

 SCF Done:  E(UB3LYP) =  -610.728936956     A.U. after   20 cycles
 SCF Done:  E(UB3LYP) =  -610.743907730     A.U. after   18 cycles
 SCF Done:  E(UB3LYP) =  -610.746394975     A.U. after   17 cycles
 SCF Done:  E(UB3LYP) =  -610.747232083     A.U. after   16 cycles
 SCF Done:  E(UB3LYP) =  -610.747350786     A.U. after   14 cycles
 SCF Done:  E(UB3LYP) =  -610.747424799     A.U. after   16 cycles
 SCF Done:  E(UB3LYP) =  -610.747535735     A.U. after   17 cycles
 SCF Done:  E(UB3LYP) =  -610.747587127     A.U. after   17 cycles
 SCF Done:  E(UB3LYP) =  -610.747959730     A.U. after   16 cycles
 SCF Done:  E(UB3LYP) =  -610.749427925     A.U. after   17 cycles
 SCF Done:  E(UB3LYP) =  -610.746574530     A.U. after   20 cycles
 SCF Done:  E(UB3LYP) =  -610.749941622     A.U. after   18 cycles
 SCF Done:  E(UB3LYP) =  -610.750127764     A.U. after   15 cycles
 SCF Done:  E(UB3LYP) =  -610.750183110     A.U. after   16 cycles
 SCF Done:  E(UB3LYP) =  -610.750205448     A.U. after   15 cycles
 SCF Done:  E(UB3LYP) =  -610.750217660     A.U. after   14 cycles
 SCF Done:  E(UB3LYP) =  -610.750220929     A.U. after   14 cycles
 SCF Done:  E(UB3LYP) =  -610.750222865     A.U. after   13 cycles
 SCF Done:  E(UB3LYP) =  -610.750223232     A.U. after   13 cycles
 Optimization completed.
    -- Stationary point found.
 Normal termination of Gaussian 16 at Wed Dec 20 02:28:28 2023.

 ----------------------------------------------------------------------
 #P Geom=AllCheck Guess=TCheck SCRF=Check GenChk UB3LYP/6-311++G(d,p) F
 req
 ----------------------------------------------------------------------

 Structure from the checkpoint file:  "086-rad.chk"
 -------
 Radical
 -------
 Charge = -1 Multiplicity = 2

                          Input orientation:
 ---------------------------------------------------------------------
 Center     Atomic      Atomic             Coordinates (Angstroms)
 Number     Number       Type             X           Y           Z
 ---------------------------------------------------------------------
      1          6           0        2.659281    1.447051   -0.224009
      2          8           0        2.479704    0.217531    0.474863
      3          6           0        1.253555   -0.404334    0.306645
      4          6           0        1.255061   -1.713696   -0.095214
      5          6           0        0.036826   -2.483974   -0.224985
      6          8           0        0.038715   -3.691180   -0.596853
      7          6           0       -1.185808   -1.769939    0.074882
      8          6           0       -1.188447   -0.460744    0.476868
      9          8           0       -2.406478    0.105168    0.815612
     10          6           0       -2.737716    1.321925    0.150605
     11          6           0        0.034483    0.311844    0.664683
     12          8           0        0.039161    1.492564    1.125583
     13          1           0        3.671546    1.784843    0.011014
     14          1           0        2.579573    1.287320   -1.308631
     15          1           0        1.927772    2.190239    0.097191
     16          1           0        2.195562   -2.204728   -0.320866
     17          1           0       -2.124991   -2.304299   -0.019725
     18          1           0       -2.803347    1.160647   -0.934727
     19          1           0       -3.721452    1.614809    0.525461
     20          1           0       -2.003000    2.098954    0.367505
 ---------------------------------------------------------------------

 SCF Done:  E(UB3LYP) =  -610.750223232     A.U. after    1 cycles

 Alpha  occ. eigenvalues --  -19.01091 -19.01088 -18.94100 -18.93261 -10.09304
 Alpha  occ. eigenvalues --  -10.09303 -10.08694 -10.08608 -10.08600 -10.08161
 Alpha  occ. eigenvalues --  -10.02222 -10.02221  -0.92601  -0.92136  -0.85676
 Alpha  occ. eigenvalues --   -0.85280  -0.68642  -0.62462  -0.58023  -0.55030
 Alpha  occ. eigenvalues --   -0.53888  -0.45877  -0.43889  -0.37392  -0.37333
 Alpha  occ. eigenvalues --   -0.34633  -0.33918  -0.33259  -0.32879  -0.32223
 Alpha  occ. eigenvalues --   -0.29741  -0.26866  -0.26510  -0.24701  -0.24194
 Alpha  occ. eigenvalues --   -0.23231  -0.22729  -0.22589  -0.17424  -0.16425
 Alpha  occ. eigenvalues --   -0.13061  -0.10672  -0.09905  -0.09226  -0.02329
 Alpha virt. eigenvalues --    0.08759   0.09241   0.11662   0.11690   0.12446
 Alpha virt. eigenvalues --    0.12781   0.13434   0.13492   0.15105   0.15423
 Alpha virt. eigenvalues --    0.16542   0.17285   0.17416   0.18412   0.19184

  Beta  occ. eigenvalues --  -19.01079 -19.01077 -18.93380 -18.92545 -10.09302
  Beta  occ. eigenvalues --  -10.09302 -10.08542 -10.08532 -10.08477 -10.08095
  Beta  occ. eigenvalues --  -10.02089 -10.02088  -0.92485  -0.92090  -0.84448
  Beta  occ. eigenvalues --   -0.84038  -0.68083  -0.62309  -0.57813  -0.54872
  Beta  occ. eigenvalues --   -0.52906  -0.45559  -0.43605  -0.37177  -0.37173
  Beta  occ. eigenvalues --   -0.34549  -0.33672  -0.33179  -0.32428  -0.32113
  Beta  occ. eigenvalues --   -0.29659  -0.25944  -0.25431  -0.24542  -0.23498
  Beta  occ. eigenvalues --   -0.22434  -0.22176  -0.20510  -0.17234  -0.15666
  Beta  occ. eigenvalues --   -0.10096  -0.09979  -0.09236  -0.08618
  Beta virt. eigenvalues --    0.04959   0.08779   0.09260   0.11676   0.11704
  Beta virt. eigenvalues --    0.12464   0.12825   0.13453   0.14662   0.15159
  Beta virt. eigenvalues --    0.15452   0.17212   0.17420   0.17980   0.19161

 Mulliken charges and spin densities:
               1          2
     1  C   -0.297590   0.005239
     2  O   -0.173501  -0.001174
     3  C   -0.675610   0.133437
     4  C    0.903536   0.061385
     5  C   -0.949597   0.109956
     6  O   -0.414071   0.253618
     7  C    0.904731   0.061339
     8  C   -0.677088   0.133329
     9  O   -0.173348  -0.001192
    10  C   -0.297661   0.005261
    11  C    0.157383  -0.011357
    12  O   -0.439844   0.270229
    13  H    0.108564   0.000833
    14  H    0.097224   0.000260
    15  H    0.183316  -0.001693
    16  H    0.177262  -0.009435
    17  H    0.177255  -0.009426
    18  H    0.097251   0.000246
    19  H    0.108587   0.000841
    20  H    0.183202  -0.001697
 Sum of Mulliken charges =  -1.00000   1.00000

 Dipole moment (field-independent basis, Debye):
    X=             -0.3037    Y=              6.5946    Z=             -2.5090  Tot=              7.0623
 Quadrupole moment (field-independent basis, Debye-Ang):
   XX=            -81.4283   YY=           -109.3576   ZZ=            -80.2750
   XY=             -0.0584   XZ=              0.3221   YZ=             -9.6761

  Exact polarizability: 137.577   0.750 171.869  -4.180  21.922  85.059
 Approx polarizability: 181.288   1.068 288.140  -4.534  50.463 133.209

                      1                      2                      3
                      A                      A                      A
 Frequencies --     80.2235                84.3457                92.8982
 Red. masses --      3.0913                 2.2476                 4.0882
 Frc consts  --      0.0117                 0.0094                 0.0208
 IR Inten    --      4.3603                 0.1392                 6.5136

                      4                      5                      6
                      A                      A                      A
 Frequencies --    145.2029               150.1098               185.9179
 Red. masses --      1.4553                 1.2859                 2.8803
 Frc consts  --      0.0181                 0.0171                 0.0587
 IR Inten    --      1.6511                 0.0482                 7.7791

                      7                      8                      9
                      A                      A                      A
 Frequencies --    217.2365               256.2517               302.3952
 Red. masses --      3.0545                 6.1298                 4.8120
 Frc consts  --      0.0849                 0.2372                 0.2593
 IR Inten    --      3.1533                 4.0280                 5.9390

                     10                     11                     12
                      A                      A                      A
 Frequencies --    336.9957               347.8795               374.3913
 Red. masses --      6.1310                 6.0290                11.2700
 Frc consts  --      0.4102                 0.4299                 0.9307
 IR Inten    --      4.1945                 1.5408                 4.9053

                     13                     14                     15
                      A                      A                      A
 Frequencies --    412.6915               465.1282               481.6925
 Red. masses --      6.0242                 7.5996                 6.3425
 Frc consts  --      0.6045                 0.9687                 0.8671
 IR Inten    --      1.9586                 2.0042                10.1252

                     16                     17                     18
                      A                      A                      A
 Frequencies --    568.9330               595.3843               675.9970
 Red. masses --      7.1158                 4.1669                 3.0883
 Frc consts  --      1.3571                 0.8703                 0.8315
 IR Inten    --      1.4030                 1.4280                 4.0427

                     19                     20                     21
                      A                      A                      A
 Frequencies --    684.0062               765.4303               820.2049
 Red. masses --      4.4045                 8.9394                 5.9927
 Frc consts  --      1.2141                 3.0858                 2.3753
 IR Inten    --      7.0214                10.1167                31.8065

                     22                     23                     24
                      A                      A                      A
 Frequencies --    849.0598               860.5244               930.8890
 Red. masses --      1.4383                 1.6746                 5.9774
 Frc consts  --      0.6109                 0.7306                 3.0518
 IR Inten    --      0.0015                40.7094                51.8062

                     25                     26                     27
                      A                      A                      A
 Frequencies --    943.6333              1042.7404              1075.2084
 Red. masses --      3.3855                 3.5450                 6.1589
 Frc consts  --      1.7761                 2.2710                 4.1950
 IR Inten    --     17.2102                43.0756               105.9476

                     28                     29                     30
                      A                      A                      A
 Frequencies --   1164.8189              1165.2621              1182.8978
 Red. masses --      1.2758                 1.2761                 2.1975
 Frc consts  --      1.0199                 1.0209                 1.8116
 IR Inten    --     12.3812                22.8368               102.8730

                     31                     32                     33
                      A                      A                      A
 Frequencies --   1183.5584              1211.0104              1222.7431
 Red. masses --      2.3202                 1.5574                 1.8715
 Frc consts  --      1.9150                 1.3457                 1.6486
 IR Inten    --    163.6970                 4.5678               101.8487

                     34                     35                     36
                      A                      A                      A
 Frequencies --   1238.2273              1313.6278              1404.5972
 Red. masses --      2.7241                 2.5873                 5.1316
 Frc consts  --      2.4608                 2.6305                 5.9650
 IR Inten    --     77.4078                 6.7632                80.2365

                     37                     38                     39
                      A                      A                      A
 Frequencies --   1447.2448              1447.8904              1474.6412
 Red. masses --      1.3029                 1.2146                 1.0888
 Frc consts  --      1.6079                 1.5002                 1.3950
 IR Inten    --      7.1191                70.3349                 4.9063

                     40                     41                     42
                      A                      A                      A
 Frequencies --   1474.7290              1508.2754              1517.6052
 Red. masses --      1.1318                 7.1477                 1.0498
 Frc consts  --      1.4502                 9.5803                 1.4246
 IR Inten    --     24.6928                14.8916                12.7454

                     43                     44                     45
                      A                      A                      A
 Frequencies --   1519.0457              1525.5663              1526.2515
 Red. masses --      1.0501                 4.7026                 6.6938
 Frc consts  --      1.4277                 6.4483                 9.1870
 IR Inten    --     13.0577                24.0016               520.3566

                     46                     47                     48
                      A                      A                      A
 Frequencies --   1641.2448              2973.4851              2975.0282
 Red. masses --      7.6705                 1.0467                 1.0472
 Frc consts  --     12.1736                 5.4527                 5.4607
 IR Inten    --     49.5140                74.5002               179.4717

                     49                     50                     51
                      A                      A                      A
 Frequencies --   3061.9260              3062.5246              3104.5675
 Red. masses --      1.0842                 1.0839                 1.1051
 Frc consts  --      5.9888                 5.9897                 6.2758
 IR Inten    --     82.4592                90.4742                16.9827

                     52                     53                     54
                      A                      A                      A
 Frequencies --   3105.1196              3170.2427              3171.8585
 Red. masses --      1.1050                 1.0903                 1.0898
 Frc consts  --      6.2772                 6.4564                 6.4601
 IR Inten    --      8.2846                22.3041                 8.0953

 - Thermochemistry -
 -------------------
 Temperature   298.150 Kelvin.  Pressure   1.00000 Atm.
 Atom     1 has atomic number  6 and mass  12.00000

 Molecular mass:   168.04226 amu.
 Principal axes and moments of inertia in atomic units:
                           1         2         3
     Eigenvalues --  1766.013851869.688513461.92947
           X            0.99731  -0.01000   0.07257
           Y            0.02417   0.98010  -0.19704
           Z           -0.06916   0.19827   0.97770
 This molecule is an asymmetric top.
 Rotational symmetry number  1.
 Warning -- assumption of classical behavior for rotation
           may cause significant error
 Rotational temperatures (Kelvin)      0.04904     0.04633     0.02502
 Rotational constants (GHZ):           1.02193     0.96526     0.52131
 Zero-point vibrational energy     386031.1 (Joules/Mol)
                                   92.26365 (Kcal/Mol)
 Warning -- explicit consideration of  17 degrees of freedom as
           vibrations may cause significant error
 Vibrational temperatures:    115.42   121.35   133.66   208.91   215.97
          (Kelvin)            267.49   312.55   368.69   435.08   484.86
                              500.52   538.67   593.77   669.22   693.05
                              818.57   856.63   972.61   984.13  1101.28
                             1180.09  1221.61  1238.10  1339.34  1357.68
                             1500.27  1546.99  1675.91  1676.55  1701.93
                             1702.88  1742.37  1759.25  1781.53  1890.02
                             2020.90  2082.26  2083.19  2121.68  2121.81
                             2170.07  2183.50  2185.57  2194.95  2195.94
                             2361.39  4278.18  4280.40  4405.43  4406.29
                             4466.78  4467.57  4561.27  4563.60

 Zero-point correction=                           0.147031 (Hartree/Particle)
 Thermal correction to Energy=                    0.158530
 Thermal correction to Enthalpy=                  0.159474
 Thermal correction to Gibbs Free Energy=         0.108851
 Sum of electronic and zero-point Energies=           -610.603192
 Sum of electronic and thermal Energies=              -610.591693
 Sum of electronic and thermal Enthalpies=            -610.590749
 Sum of electronic and thermal Free Energies=         -610.641372

                     E (Thermal)             CV                S
                      KCal/Mol        Cal/Mol-Kelvin    Cal/Mol-Kelvin
 Total                   99.479             41.826            106.545
 Electronic               0.000              0.000              1.377
 Translational            0.889              2.981             41.265
 Rotational               0.889              2.981             30.814
 Vibrational             97.702             35.864             33.088
 Vibration     1          0.600              1.963              3.885
 Vibration     2          0.601              1.960              3.787
 Vibration     3          0.602              1.954              3.598
 Vibration     4          0.617              1.908              2.734
 Vibration     5          0.618              1.903              2.671
 Vibration     6          0.632              1.859              2.268
 Vibration     7          0.646              1.815              1.982
 Vibration     8          0.666              1.752              1.687
 Vibration     9          0.694              1.669              1.404
 Vibration    10          0.718              1.602              1.226
 Vibration    11          0.726              1.580              1.176
 Vibration    12          0.746              1.525              1.062
 Vibration    13          0.776              1.443              0.917
 Vibration    14          0.823              1.327              0.751
 Vibration    15          0.838              1.291              0.706
 Vibration    16          0.925              1.098              0.506
 Vibration    17          0.953              1.042              0.458

                           ! Non-Optimized Parameters !
 Normal termination of Gaussian 16 at Wed Dec 20 02:43:52 2023.
