 Gaussian 16, Revision A.03,
 Gaussian 16:  ES64L-G16RevA.03 25-Dec-2016

 ----------------------------------------------------------------
 #P UB3LYP/6-311++G(d,p) SCRF=(PCM,Solvent=n,n-DiMethylFormamide)
 ----------------------------------------------------------------

 ------------------
 Radical PCM in DMF
 ------------------
 Symbolic Z-matrix:
 Charge = -1 Multiplicity = 2

                         Standard orientation:
 ---------------------------------------------------------------------
 Center     Atomic      Atomic             Coordinates (Angstroms)
 Number     Number       Type             X           Y           Z
 ---------------------------------------------------------------------
      1          8           0       -5.015705    0.667492    0.000041
      2          6           0       -3.722188    0.176165    0.000040
      3          6           0       -3.571774   -1.224650    0.000161
      4          6           0       -2.300460   -1.764164    0.000128
      5          6           0       -1.150478   -0.951066   -0.000043
      6          6           0        0.178470   -1.590251   -0.000051
      7          8           0        0.272687   -2.832307   -0.000026
      8          6           0        1.339783   -0.684751   -0.000075
      9          6           0        2.671506   -1.175462   -0.000056
     10          8           0        2.910916   -2.531641   -0.000182
     11          6           0        3.748209   -0.298241    0.000065
     12          6           0        3.562595    1.089737    0.000170
     13          6           0        2.282482    1.617942    0.000090
     14          8           0        2.126784    2.960775    0.000098
     15          6           0        1.148367    0.744243   -0.000039
     16          6           0       -0.170741    1.339120   -0.000120
     17          8           0       -0.338143    2.615603   -0.000124
     18          6           0       -1.315734    0.455387   -0.000108
     19          6           0       -2.619906    1.002383   -0.000073
     20          1           0       -4.968366    1.629060   -0.000280
     21          1           0       -4.456412   -1.851426    0.000315
     22          1           0       -2.150296   -2.837398    0.000249
     23          1           0        3.867064   -2.646713    0.000596
     24          1           0        4.758412   -0.703344    0.000015
     25          1           0        4.408537    1.767556    0.000248
     26          1           0        1.123040    3.100396   -0.000038
     27          1           0       -2.715097    2.084126   -0.000090
 ---------------------------------------------------------------------

 SCF Done:  E(UB3LYP) =  -914.849269121     A.U. after   19 cycles

 The electronic state is 2-A.
 Alpha  occ. eigenvalues --  -19.15864 -19.14950 -19.12549 -19.08767 -19.07564
 Alpha  occ. eigenvalues --  -10.23981 -10.23466 -10.23286 -10.22957 -10.22866
 Alpha  occ. eigenvalues --  -10.18032 -10.17970 -10.17933 -10.17661 -10.17515
 Alpha  occ. eigenvalues --  -10.17401 -10.17139 -10.17130 -10.16900  -1.06527
 Alpha  occ. eigenvalues --   -1.06093  -1.05050  -1.00757  -1.00085  -0.86382
 Alpha  occ. eigenvalues --   -0.84759  -0.78860  -0.75701  -0.74401  -0.73655
 Alpha  occ. eigenvalues --   -0.67356  -0.65201  -0.63587  -0.60480  -0.57469
 Alpha  occ. eigenvalues --   -0.56009  -0.55420  -0.52894  -0.50612  -0.48612
 Alpha  occ. eigenvalues --   -0.47612  -0.46315  -0.45616  -0.43884  -0.43349
 Alpha  occ. eigenvalues --   -0.42680  -0.42157  -0.41666  -0.41166  -0.40313
 Alpha  occ. eigenvalues --   -0.40207  -0.38994  -0.38868  -0.37436  -0.37080
 Alpha  occ. eigenvalues --   -0.36092  -0.35834  -0.34553  -0.32958  -0.30950
 Alpha  occ. eigenvalues --   -0.27010  -0.25916  -0.25621  -0.23628  -0.23579
 Alpha  occ. eigenvalues --   -0.21652  -0.14212
 Alpha virt. eigenvalues --   -0.04881  -0.02176  -0.00403   0.00052   0.00674
 Alpha virt. eigenvalues --    0.01051   0.01473   0.02140   0.03835   0.04275
 Alpha virt. eigenvalues --    0.04353   0.04499   0.05395   0.05893   0.06082

  Beta  occ. eigenvalues --  -19.15860 -19.14931 -19.12492 -19.08251 -19.07106
  Beta  occ. eigenvalues --  -10.23980 -10.23470 -10.23191 -10.22894 -10.22566
  Beta  occ. eigenvalues --  -10.18008 -10.17928 -10.17895 -10.17690 -10.17453
  Beta  occ. eigenvalues --  -10.17266 -10.17062 -10.17058 -10.16827  -1.06515
  Beta  occ. eigenvalues --   -1.06046  -1.04841  -0.99976  -0.99218  -0.86148
  Beta  occ. eigenvalues --   -0.84601  -0.78466  -0.75469  -0.74243  -0.73401
  Beta  occ. eigenvalues --   -0.66659  -0.65064  -0.63343  -0.60369  -0.57242
  Beta  occ. eigenvalues --   -0.55882  -0.55324  -0.52763  -0.50461  -0.48303
  Beta  occ. eigenvalues --   -0.47541  -0.46189  -0.45468  -0.43288  -0.43087
  Beta  occ. eigenvalues --   -0.42564  -0.41861  -0.41471  -0.40808  -0.40140
  Beta  occ. eigenvalues --   -0.39471  -0.38804  -0.38077  -0.37356  -0.35987
  Beta  occ. eigenvalues --   -0.35703  -0.35278  -0.34395  -0.32273  -0.30230
  Beta  occ. eigenvalues --   -0.25522  -0.25207  -0.25126  -0.23158  -0.23031
  Beta  occ. eigenvalues --   -0.20660
  Beta virt. eigenvalues --   -0.08636  -0.03894  -0.01168  -0.00389   0.00057
  Beta virt. eigenvalues --    0.01061   0.01142   0.01484   0.02152   0.03849
  Beta virt. eigenvalues --    0.04295   0.04369   0.04702   0.05802   0.06092

 Mulliken charges and spin densities:
               1          2
     1  O   -0.289601   0.001715
     2  C   -0.714034  -0.000524
     3  C   -0.210848   0.053387
     4  C    0.127110   0.000210
     5  C   -0.235828   0.038613
     6  C   -0.364631   0.043652
     7  O   -0.433913   0.171103
     8  C    0.337706   0.055937
     9  C   -0.314442   0.012981
    10  O   -0.251189   0.005265
    11  C   -0.239745   0.096151
    12  C   -0.122775   0.047996
    13  C   -0.322718   0.064903
    14  O   -0.411356   0.017730
    15  C    0.819543  -0.032006
    16  C   -0.320932   0.179211
    17  O   -0.497572   0.187348
    18  C    0.419940  -0.000602
    19  C    0.173430   0.083119
    20  H    0.302281  -0.000133
    21  H    0.209213  -0.004076
    22  H    0.167630   0.000337
    23  H    0.289795  -0.000638
    24  H    0.168233  -0.008486
    25  H    0.193290  -0.004547
    26  H    0.365353  -0.004219
    27  H    0.156060  -0.004425
 Sum of Mulliken charges =  -1.00000   1.00000

 Dipole moment (field-independent basis, Debye):
    X=              0.1851    Y=              0.5221    Z=              0.0011  Tot=              0.5539
 Quadrupole moment (field-independent basis, Debye-Ang):
   XX=           -109.3734   YY=           -147.3954   ZZ=           -115.5850
   XY=            -13.2411   XZ=              0.0076   YZ=             -0.0061

 Normal termination of Gaussian 16 at Tue Jan 16 05:52:01 2024.
