 Q-Chem 5.4, Q-Chem, Inc., Pleasanton, CA (2021)
 Q-Chem 5.4.0 for Intel X86 EM64T Linux

User input:
--------------------------------------------------------------
$molecule
-1 2
O                  4.9764350000      0.6038950000     -0.6554550000
C                  3.6895870000      0.1276030000     -0.4772540000
C                  3.5292690000     -1.2708900000     -0.4187460000
C                  2.2640640000     -1.7956020000     -0.2419740000
C                  1.1299520000     -0.9696700000     -0.1186400000
C                 -0.1932110000     -1.5933500000      0.0682410000
O                 -0.2965180000     -2.8337930000      0.1152260000
C                 -1.3378470000     -0.6749290000      0.1902620000
C                 -2.6625870000     -1.1501680000      0.3732800000
O                 -2.9107880000     -2.5030180000      0.4420810000
C                 -3.7235480000     -0.2609880000      0.4852060000
C                 -3.5284490000      1.1242640000      0.4223630000
C                 -2.2545920000      1.6375740000      0.2449050000
O                 -2.0895100000      2.9780450000      0.1872330000
C                 -1.1366590000      0.7512560000      0.1255940000
C                  0.1764030000      1.3307630000     -0.0586990000
O                  0.3525680000      2.6047790000     -0.1159740000
C                  1.3050270000      0.4342870000     -0.1792490000
C                  2.6028810000      0.9661010000     -0.3604080000
H                  4.9371550000      1.5656010000     -0.6762500000
H                  4.4016870000     -1.9075390000     -0.5136080000
H                  2.1065950000     -2.8666570000     -0.1927390000
H                 -3.8601360000     -2.6071040000      0.5660330000
H                 -4.7287060000     -0.6543390000      0.6250280000
H                 -4.3621100000      1.8114840000      0.5106390000
H                 -1.0928410000      3.1061070000      0.0559050000
H                  2.7058810000      2.0462890000     -0.4030020000
$end
$rem
MAX_SCF_CYCLES=200
BASIS  =  6-311++G(d,p)
GUI  =  2
JOB_TYPE  =  SP
METHOD  =  B3LYP
SOLVENT_METHOD = PCM
$end
$pcm
theory = CPCM
$end
$solvent
dielectric 37.219
opticaldielectric 1.43
$end

--------------------------------------------------------------

             Standard Nuclear Orientation (Angstroms)
    I     Atom           X                Y                Z
 ----------------------------------------------------------------
    1      O       4.9764350000     0.6038950000    -0.6554550000
    2      C       3.6895870000     0.1276030000    -0.4772540000
    3      C       3.5292690000    -1.2708900000    -0.4187460000
    4      C       2.2640640000    -1.7956020000    -0.2419740000
    5      C       1.1299520000    -0.9696700000    -0.1186400000
    6      C      -0.1932110000    -1.5933500000     0.0682410000
    7      O      -0.2965180000    -2.8337930000     0.1152260000
    8      C      -1.3378470000    -0.6749290000     0.1902620000
    9      C      -2.6625870000    -1.1501680000     0.3732800000
   10      O      -2.9107880000    -2.5030180000     0.4420810000
   11      C      -3.7235480000    -0.2609880000     0.4852060000
   12      C      -3.5284490000     1.1242640000     0.4223630000
   13      C      -2.2545920000     1.6375740000     0.2449050000
   14      O      -2.0895100000     2.9780450000     0.1872330000
   15      C      -1.1366590000     0.7512560000     0.1255940000
   16      C       0.1764030000     1.3307630000    -0.0586990000
   17      O       0.3525680000     2.6047790000    -0.1159740000
   18      C       1.3050270000     0.4342870000    -0.1792490000
   19      C       2.6028810000     0.9661010000    -0.3604080000
   20      H       4.9371550000     1.5656010000    -0.6762500000
   21      H       4.4016870000    -1.9075390000    -0.5136080000
   22      H       2.1065950000    -2.8666570000    -0.1927390000
   23      H      -3.8601360000    -2.6071040000     0.5660330000
   24      H      -4.7287060000    -0.6543390000     0.6250280000
   25      H      -4.3621100000     1.8114840000     0.5106390000
   26      H      -1.0928410000     3.1061070000     0.0559050000
   27      H       2.7058810000     2.0462890000    -0.4030020000
 ----------------------------------------------------------------

    8    -914.8573843404      8.62e-06  Convergence criterion met
 Total energy in the final basis set =     -914.8573843404

                    Orbital Energies (a.u.)
 --------------------------------------------------------------

 Alpha MOs
 -- Occupied --
-19.1557 -19.1477 -19.1267 -19.0892 -19.0765 -10.2388 -10.2343 -10.2342
-10.2299 -10.2298 -10.1803 -10.1799 -10.1792 -10.1759 -10.1738 -10.1723
-10.1713 -10.1701 -10.1681  -1.0623  -1.0592  -1.0517  -1.0090  -1.0023
 -0.8636  -0.8472  -0.7882  -0.7565  -0.7434  -0.7364  -0.6734  -0.6510
 -0.6353  -0.6035  -0.5742  -0.5593  -0.5527  -0.5285  -0.5051  -0.4863
 -0.4755  -0.4626  -0.4553  -0.4393  -0.4325  -0.4261  -0.4221  -0.4157
 -0.4130  -0.4027  -0.4023  -0.3902  -0.3872  -0.3737  -0.3718  -0.3614
 -0.3578  -0.3451  -0.3293  -0.3098  -0.2702  -0.2589  -0.2577  -0.2373
 -0.2356  -0.2169  -0.1426

 Beta MOs
 -- Occupied --
-19.1556 -19.1474 -19.1262 -19.0844 -19.0724 -10.2387 -10.2342 -10.2330
-10.2292 -10.2269 -10.1802 -10.1793 -10.1788 -10.1760 -10.1733 -10.1710
-10.1706 -10.1695 -10.1673  -1.0621  -1.0586  -1.0497  -1.0017  -0.9940
 -0.8612  -0.8456  -0.7842  -0.7541  -0.7418  -0.7337  -0.6665  -0.6495
 -0.6329  -0.6024  -0.5719  -0.5579  -0.5518  -0.5272  -0.5036  -0.4833
 -0.4748  -0.4613  -0.4538  -0.4318  -0.4311  -0.4249  -0.4192  -0.4135
 -0.4096  -0.4008  -0.3950  -0.3866  -0.3810  -0.3729  -0.3603  -0.3565
 -0.3544  -0.3436  -0.3226  -0.3026  -0.2556  -0.2538  -0.2515  -0.2335
 -0.2299  -0.2068

          Ground-State Mulliken Net Atomic Charges

     Atom                 Charge (a.u.)    Spin (a.u.)
  --------------------------------------------------------
      1 O                    -0.306340       0.002145
      2 C                    -0.738187       0.004060
      3 C                    -0.227731       0.047753
      4 C                     0.109210       0.006374
      5 C                    -0.242295       0.032172
      6 C                    -0.327713       0.056281
      7 O                    -0.456985       0.162208
      8 C                     0.324216       0.048197
      9 C                    -0.330294       0.019739
     10 O                    -0.274543       0.006198
     11 C                    -0.230462       0.093114
     12 C                    -0.142847       0.050338
     13 C                    -0.308966       0.064320
     14 O                    -0.422547       0.018062
     15 C                     0.823433      -0.029817
     16 C                    -0.293191       0.181878
     17 O                    -0.515175       0.181064
     18 C                     0.413876       0.001946
     19 C                     0.167273       0.079627
     20 H                     0.320533      -0.000161
     21 H                     0.225413      -0.003592
     22 H                     0.173957      -0.000165
     23 H                     0.310512      -0.000637
     24 H                     0.195978      -0.008143
     25 H                     0.209338      -0.004875
     26 H                     0.372532      -0.004040
     27 H                     0.171004      -0.004045
  --------------------------------------------------------
  Sum of atomic charges =    -1.000000

                    Cartesian Multipole Moments
 -----------------------------------------------------------------
    Charge (ESU x 10^10)
                -4.8032
    Dipole Moment (Debye)
         X      -0.2920      Y       0.6647      Z       0.0192
       Tot       0.7263
    Quadrupole Moments (Debye-Ang)
        XX    -106.3725     XY      13.4288     YY    -148.1991
        XZ      -1.5373     YZ      -0.8324     ZZ    -115.4021

 Total job time:  82.67s(wall), 423.47s(cpu)
        *  Thank you very much for using Q-Chem.  Have a nice day.  *
