 Gaussian 16, Revision A.03,
 Gaussian 16:  ES64L-G16RevA.03 25-Dec-2016

 ----------------------------------------------------------------
 #P UB3LYP/6-311++G(d,p) SCRF=(PCM,Solvent=n,n-DiMethylFormamide)
 ----------------------------------------------------------------

 -------
 Reduced
 -------
 Symbolic Z-matrix:
 Charge = -2 Multiplicity = 1

                         Standard orientation:
 ---------------------------------------------------------------------
 Center     Atomic      Atomic             Coordinates (Angstroms)
 Number     Number       Type             X           Y           Z
 ---------------------------------------------------------------------
      1          6           0       -7.223136   -0.654892    0.556242
      2          6           0       -5.735269   -0.541910    0.315828
      3          6           0       -5.000044   -1.569390   -0.295622
      4          6           0       -3.641595   -1.453914   -0.549106
      5          6           0       -2.908300   -0.286491   -0.200616
      6          7           0       -1.567793   -0.278947   -0.461895
      7          6           0       -0.612265    0.742343   -0.351710
      8          6           0       -0.927815    2.083435   -0.450828
      9          6           0        0.078752    3.068117   -0.336749
     10          6           0        1.397395    2.720989   -0.115377
     11          8           0        2.324264    3.741797    0.022891
     12          6           0        1.811066    1.357102   -0.043175
     13          6           0        3.213213    1.007846    0.164442
     14          8           0        4.145004    1.850062    0.326476
     15          6           0        3.505606   -0.424737    0.171189
     16          6           0        4.839463   -0.847486    0.365163
     17          6           0        5.190318   -2.184017    0.372375
     18          6           0        4.185752   -3.168120    0.177927
     19          6           0        2.876186   -2.785597   -0.016304
     20          6           0        2.491208   -1.416493   -0.023901
     21          6           0        1.112819   -1.068559   -0.228611
     22          8           0        0.234373   -2.021380   -0.443240
     23          6           0        0.776351    0.327307   -0.199099
     24          6           0       -3.653833    0.747742    0.424785
     25          6           0       -5.017294    0.606888    0.668443
     26          1           0       -7.794129    0.118898    0.021093
     27          1           0       -7.608918   -1.622196    0.217698
     28          1           0       -7.483342   -0.557718    1.617172
     29          1           0       -5.509577   -2.486849   -0.582674
     30          1           0       -3.104211   -2.271592   -1.018367
     31          1           0       -1.047299   -1.209278   -0.538681
     32          1           0       -1.942550    2.393419   -0.658690
     33          1           0       -0.190387    4.121501   -0.414284
     34          1           0        1.819579    4.558959   -0.056072
     35          1           0        5.578152   -0.065377    0.507107
     36          1           0        6.225651   -2.481294    0.524641
     37          1           0        4.450451   -4.223835    0.182628
     38          1           0        2.088697   -3.514973   -0.169578
     39          1           0       -3.149144    1.642410    0.759558
     40          1           0       -5.539001    1.425744    1.160932
 ---------------------------------------------------------------------

 SCF Done:  E(UB3LYP) =  -1090.23608488     A.U. after   18 cycles

 The electronic state is 1-A.
 Alpha  occ. eigenvalues --  -19.12849 -19.02814 -19.01978 -14.29263 -10.20612
 Alpha  occ. eigenvalues --  -10.20312 -10.18655 -10.18321 -10.17524 -10.16361
 Alpha  occ. eigenvalues --  -10.16272 -10.16235 -10.15938 -10.15681 -10.15605
 Alpha  occ. eigenvalues --  -10.15155 -10.14921 -10.14759 -10.14688 -10.14625
 Alpha  occ. eigenvalues --  -10.14387 -10.14136 -10.14023 -10.13836 -10.13570
 Alpha  occ. eigenvalues --   -1.03778  -0.95213  -0.94723  -0.91395  -0.84007
 Alpha  occ. eigenvalues --   -0.82811  -0.81154  -0.75642  -0.75199  -0.73569
 Alpha  occ. eigenvalues --   -0.72402  -0.71185  -0.70825  -0.66449  -0.63856
 Alpha  occ. eigenvalues --   -0.61400  -0.60561  -0.59570  -0.57973  -0.55743
 Alpha  occ. eigenvalues --   -0.53878  -0.52981  -0.51993  -0.48862  -0.48390
 Alpha  occ. eigenvalues --   -0.45907  -0.45507  -0.44691  -0.43769  -0.43137
 Alpha  occ. eigenvalues --   -0.42199  -0.41440  -0.41088  -0.40852  -0.40245
 Alpha  occ. eigenvalues --   -0.39944  -0.39810  -0.38044  -0.37842  -0.37323
 Alpha  occ. eigenvalues --   -0.36757  -0.36304  -0.35940  -0.35511  -0.34637
 Alpha  occ. eigenvalues --   -0.34100  -0.33735  -0.32638  -0.32105  -0.31719
 Alpha  occ. eigenvalues --   -0.30942  -0.30638  -0.28203  -0.24750  -0.23134
 Alpha  occ. eigenvalues --   -0.22851  -0.22357  -0.21835  -0.20612  -0.19295
 Alpha  occ. eigenvalues --   -0.16655  -0.10488
 Alpha virt. eigenvalues --   -0.02340  -0.00727  -0.00265   0.00075   0.00310
 Alpha virt. eigenvalues --    0.00541   0.00643   0.01429   0.01864   0.02456
 Alpha virt. eigenvalues --    0.02589   0.02910   0.03869   0.04370   0.04426

  Beta  occ. eigenvalues --  -19.12849 -19.02814 -19.01978 -14.29263 -10.20612
  Beta  occ. eigenvalues --  -10.20312 -10.18655 -10.18321 -10.17524 -10.16361
  Beta  occ. eigenvalues --  -10.16272 -10.16235 -10.15938 -10.15681 -10.15605
  Beta  occ. eigenvalues --  -10.15155 -10.14921 -10.14759 -10.14688 -10.14625
  Beta  occ. eigenvalues --  -10.14387 -10.14136 -10.14023 -10.13836 -10.13570
  Beta  occ. eigenvalues --   -1.03778  -0.95213  -0.94723  -0.91395  -0.84007
  Beta  occ. eigenvalues --   -0.82811  -0.81154  -0.75642  -0.75199  -0.73569
  Beta  occ. eigenvalues --   -0.72402  -0.71185  -0.70825  -0.66449  -0.63856
  Beta  occ. eigenvalues --   -0.61400  -0.60561  -0.59570  -0.57973  -0.55743
  Beta  occ. eigenvalues --   -0.53878  -0.52981  -0.51993  -0.48862  -0.48390
  Beta  occ. eigenvalues --   -0.45907  -0.45507  -0.44691  -0.43769  -0.43137
  Beta  occ. eigenvalues --   -0.42199  -0.41440  -0.41088  -0.40852  -0.40245
  Beta  occ. eigenvalues --   -0.39944  -0.39810  -0.38044  -0.37842  -0.37323
  Beta  occ. eigenvalues --   -0.36757  -0.36304  -0.35940  -0.35511  -0.34637
  Beta  occ. eigenvalues --   -0.34100  -0.33735  -0.32638  -0.32105  -0.31719
  Beta  occ. eigenvalues --   -0.30942  -0.30638  -0.28203  -0.24750  -0.23134
  Beta  occ. eigenvalues --   -0.22851  -0.22357  -0.21835  -0.20612  -0.19295
  Beta  occ. eigenvalues --   -0.16655  -0.10488
  Beta virt. eigenvalues --   -0.02340  -0.00727  -0.00265   0.00075   0.00310
  Beta virt. eigenvalues --    0.00541   0.00643   0.01429   0.01864   0.02456
  Beta virt. eigenvalues --    0.02589   0.02910   0.03869   0.04370   0.04426

 Mulliken charges and spin densities:
               1          2
     1  C   -0.604917  -0.000000
     2  C    0.402753   0.000000
     3  C   -0.699746  -0.000000
     4  C   -0.465068  -0.000000
     5  C   -0.113098  -0.000000
     6  N   -0.045428   0.000000
     7  C    0.028235   0.000000
     8  C   -0.080184   0.000000
     9  C   -0.532670  -0.000000
    10  C   -0.347904  -0.000000
    11  O   -0.262170   0.000000
    12  C    0.499459   0.000000
    13  C   -0.313231   0.000000
    14  O   -0.606295  -0.000000
    15  C    0.078739   0.000000
    16  C    0.029967   0.000000
    17  C   -0.590503  -0.000000
    18  C   -0.557223  -0.000000
    19  C   -0.088413   0.000000
    20  C    0.180033  -0.000000
    21  C   -0.256107  -0.000000
    22  O   -0.605309   0.000000
    23  C    0.172480  -0.000000
    24  C    0.028667   0.000000
    25  C   -0.048261   0.000000
    26  H    0.154634  -0.000000
    27  H    0.152794   0.000000
    28  H    0.152922  -0.000000
    29  H    0.152776  -0.000000
    30  H    0.151242   0.000000
    31  H    0.514635   0.000000
    32  H    0.158633  -0.000000
    33  H    0.142790  -0.000000
    34  H    0.277909  -0.000000
    35  H    0.143800  -0.000000
    36  H    0.157394  -0.000000
    37  H    0.159868  -0.000000
    38  H    0.139073  -0.000000
    39  H    0.148782  -0.000000
    40  H    0.188943  -0.000000
 Sum of Mulliken charges =  -2.00000  -0.00000

 Dipole moment (field-independent basis, Debye):
    X=            -17.1983    Y=              0.4444    Z=              0.3119  Tot=             17.2069
 Quadrupole moment (field-independent basis, Debye-Ang):
   XX=           -245.8927   YY=           -177.0155   ZZ=           -162.4812
   XY=            -20.7141   XZ=             -5.9351   YZ=             -2.0314

 Normal termination of Gaussian 16 at Sun Jan 14 01:38:10 2024.
