 Gaussian 16, Revision A.03,
 Gaussian 16:  ES64L-G16RevA.03 25-Dec-2016

 ----------------------------------------------------------------------
 #P UB3LYP/6-311++G(d,p) nosym opt freq SCRF=(PCM,Solvent=n,n-DiMethylF
 ormamide)
 ----------------------------------------------------------------------

 --------
 Oxidized
 --------
 Symbolic Z-matrix:
 Charge =  0 Multiplicity = 1

 SCF Done:  E(UB3LYP) =  -803.523896735     A.U. after   15 cycles
 SCF Done:  E(UB3LYP) =  -803.524019148     A.U. after   11 cycles
 SCF Done:  E(UB3LYP) =  -803.524039811     A.U. after   11 cycles
 SCF Done:  E(UB3LYP) =  -803.524040610     A.U. after    9 cycles
 SCF Done:  E(UB3LYP) =  -803.524041104     A.U. after    9 cycles
 Optimization completed.
    -- Stationary point found.
 Normal termination of Gaussian 16 at Sat Feb 10 16:19:04 2024.

 ----------------------------------------------------------------------
 #P Geom=AllCheck Guess=TCheck SCRF=Check GenChk UB3LYP/6-311++G(d,p) F
 req
 ----------------------------------------------------------------------

 Structure from the checkpoint file:  "138.chk"
 --------
 Oxidized
 --------
 Charge =  0 Multiplicity = 1

                          Input orientation:
 ---------------------------------------------------------------------
 Center     Atomic      Atomic             Coordinates (Angstroms)
 Number     Number       Type             X           Y           Z
 ---------------------------------------------------------------------
      1          6           0        4.719687   -0.717413    0.885247
      2          8           0        4.257139    0.347900    0.043284
      3          6           0        2.928703    0.501188   -0.151568
      4          6           0        2.551017    1.566661   -0.989435
      5          6           0        1.215887    1.804172   -1.250165
      6          6           0        0.216576    0.993594   -0.688875
      7          6           0       -1.205523    1.271281   -0.987487
      8          8           0       -1.538586    2.199127   -1.718467
      9          6           0       -2.229583    0.379977   -0.367295
     10          6           0       -3.583513    0.610282   -0.626512
     11          6           0       -4.556665   -0.206939   -0.060055
     12          6           0       -4.184392   -1.264898    0.772919
     13          6           0       -2.839712   -1.502323    1.037138
     14          6           0       -1.854681   -0.686024    0.472283
     15          6           0       -0.422368   -0.961411    0.771496
     16          8           0       -0.092063   -1.886217    1.502714
     17          6           0        0.598817   -0.068856    0.147985
     18          6           0        1.947311   -0.314644    0.416080
     19          1           0        4.422420   -1.689127    0.483277
     20          1           0        4.341301   -0.601689    1.903842
     21          1           0        5.804174   -0.638138    0.886542
     22          1           0        3.325035    2.189800   -1.420784
     23          1           0        0.923316    2.623397   -1.894557
     24          1           0       -3.858481    1.433297   -1.273770
     25          1           0       -5.604353   -0.021685   -0.265960
     26          1           0       -4.942536   -1.901309    1.213824
     27          1           0       -2.536762   -2.318503    1.680619
     28          1           0        2.197834   -1.141498    1.064754
 ---------------------------------------------------------------------

 SCF Done:  E(UB3LYP) =  -803.524041104     A.U. after    1 cycles

 Alpha  occ. eigenvalues --  -19.17660 -19.13360 -19.12802 -10.28555 -10.28124
 Alpha  occ. eigenvalues --  -10.26446 -10.23044 -10.21364 -10.20995 -10.20940
 Alpha  occ. eigenvalues --  -10.20402 -10.20080 -10.19964 -10.19923 -10.19870
 Alpha  occ. eigenvalues --  -10.19819 -10.19775 -10.19720  -1.09135  -1.06636
 Alpha  occ. eigenvalues --   -1.06002  -0.89512  -0.88277  -0.81478  -0.78236
 Alpha  occ. eigenvalues --   -0.77900  -0.77662  -0.72485  -0.69169  -0.66114
 Alpha  occ. eigenvalues --   -0.64185  -0.61829  -0.59000  -0.56510  -0.56396
 Alpha  occ. eigenvalues --   -0.52220  -0.51331  -0.49909  -0.48917  -0.48517
 Alpha  occ. eigenvalues --   -0.46182  -0.46053  -0.45611  -0.45512  -0.45154
 Alpha  occ. eigenvalues --   -0.44966  -0.42836  -0.41967  -0.41878  -0.40092
 Alpha  occ. eigenvalues --   -0.38536  -0.38360  -0.37866  -0.36935  -0.35372
 Alpha  occ. eigenvalues --   -0.34132  -0.28897  -0.28805  -0.28218  -0.27895
 Alpha  occ. eigenvalues --   -0.27663  -0.25186
 Alpha virt. eigenvalues --   -0.11946  -0.07320  -0.03583  -0.02526  -0.00777
 Alpha virt. eigenvalues --    0.00014   0.00767   0.01571   0.01825   0.02901
 Alpha virt. eigenvalues --    0.02910   0.03398   0.03471   0.03991   0.04119

  Beta  occ. eigenvalues --  -19.17660 -19.13360 -19.12802 -10.28555 -10.28124
  Beta  occ. eigenvalues --  -10.26446 -10.23044 -10.21364 -10.20995 -10.20940
  Beta  occ. eigenvalues --  -10.20402 -10.20080 -10.19964 -10.19923 -10.19870
  Beta  occ. eigenvalues --  -10.19819 -10.19775 -10.19720  -1.09135  -1.06636
  Beta  occ. eigenvalues --   -1.06002  -0.89512  -0.88277  -0.81478  -0.78236
  Beta  occ. eigenvalues --   -0.77900  -0.77662  -0.72485  -0.69169  -0.66114
  Beta  occ. eigenvalues --   -0.64185  -0.61829  -0.59000  -0.56510  -0.56396
  Beta  occ. eigenvalues --   -0.52220  -0.51331  -0.49909  -0.48917  -0.48517
  Beta  occ. eigenvalues --   -0.46182  -0.46053  -0.45611  -0.45512  -0.45154
  Beta  occ. eigenvalues --   -0.44966  -0.42836  -0.41967  -0.41878  -0.40092
  Beta  occ. eigenvalues --   -0.38536  -0.38360  -0.37866  -0.36935  -0.35372
  Beta  occ. eigenvalues --   -0.34132  -0.28897  -0.28805  -0.28218  -0.27895
  Beta  occ. eigenvalues --   -0.27663  -0.25186
  Beta virt. eigenvalues --   -0.11946  -0.07320  -0.03583  -0.02526  -0.00777
  Beta virt. eigenvalues --    0.00014   0.00767   0.01571   0.01825   0.02901
  Beta virt. eigenvalues --    0.02910   0.03398   0.03471   0.03991   0.04119

 Mulliken charges and spin densities:
               1          2
     1  C   -0.348120   0.000000
     2  O   -0.178186  -0.000000
     3  C   -0.714663   0.000000
     4  C   -0.362224   0.000000
     5  C    0.226586  -0.000000
     6  C    0.184189  -0.000000
     7  C   -0.699447   0.000000
     8  O   -0.290224  -0.000000
     9  C    0.023109   0.000000
    10  C    0.218913  -0.000000
    11  C   -0.439156   0.000000
    12  C   -0.430227   0.000000
    13  C    0.172285   0.000000
    14  C    0.332022   0.000000
    15  C   -0.705269  -0.000000
    16  O   -0.271547  -0.000000
    17  C    0.722277  -0.000000
    18  C    0.622028  -0.000000
    19  H    0.179512  -0.000000
    20  H    0.179517  -0.000000
    21  H    0.201011   0.000000
    22  H    0.228509  -0.000000
    23  H    0.194526  -0.000000
    24  H    0.186337   0.000000
    25  H    0.206420  -0.000000
    26  H    0.208245   0.000000
    27  H    0.185558   0.000000
    28  H    0.168017   0.000000
 Sum of Mulliken charges =  -0.00000  -0.00000

 Dipole moment (field-independent basis, Debye):
    X=              0.9499    Y=             -1.6957    Z=              1.3406  Tot=              2.3611
 Quadrupole moment (field-independent basis, Debye-Ang):
   XX=            -71.9614   YY=           -110.2036   ZZ=           -108.5061
   XY=              3.2966   XZ=             -0.4357   YZ=              3.4182

  Exact polarizability: 387.110   5.369 235.170  11.686 -84.438 189.936
 Approx polarizability: 418.361  -5.439 295.349  20.519-114.379 235.402

                      1                      2                      3
                      A                      A                      A
 Frequencies --     33.2966                63.5328               111.8007
 Red. masses --      7.0676                 4.0963                 4.5950
 Frc consts  --      0.0046                 0.0097                 0.0338
 IR Inten    --      8.9122                 0.0086                 0.0422

                      4                      5                      6
                      A                      A                      A
 Frequencies --    127.7842               139.8855               146.8568
 Red. masses --      4.4009                 5.0590                 4.3439
 Frc consts  --      0.0423                 0.0583                 0.0552
 IR Inten    --      9.9953                 3.8613                 2.2730

                      7                      8                      9
                      A                      A                      A
 Frequencies --    188.4069               227.5197               244.2046
 Red. masses --      2.6535                 1.5143                 4.3706
 Frc consts  --      0.0555                 0.0462                 0.1536
 IR Inten    --      0.0416                 0.4323                 3.3389

                     10                     11                     12
                      A                      A                      A
 Frequencies --    300.1320               301.6382               345.2734
 Red. masses --      6.5315                 4.8490                 6.5406
 Frc consts  --      0.3466                 0.2599                 0.4594
 IR Inten    --      1.1916                 1.3030                 3.3523

                     13                     14                     15
                      A                      A                      A
 Frequencies --    389.4224               415.7767               421.1003
 Red. masses --     11.5175                 3.4034                 7.5423
 Frc consts  --      1.0291                 0.3466                 0.7880
 IR Inten    --     39.2478                 0.4331                10.8873

                     16                     17                     18
                      A                      A                      A
 Frequencies --    446.8314               457.9286               467.6236
 Red. masses --      3.5200                 4.1641                 8.3818
 Frc consts  --      0.4141                 0.5145                 1.0799
 IR Inten    --      0.0095                 0.3394                 1.8392

                     19                     20                     21
                      A                      A                      A
 Frequencies --    495.8400               562.0226               580.2301
 Red. masses --      5.2880                 4.4656                 6.6167
 Frc consts  --      0.7660                 0.8311                 1.3125
 IR Inten    --      0.4833                 8.2974                43.2902

                     22                     23                     24
                      A                      A                      A
 Frequencies --    646.7873               675.0789               680.0740
 Red. masses --      6.9881                 3.5186                 6.4378
 Frc consts  --      1.7224                 0.9448                 1.7543
 IR Inten    --     19.1384                16.9682                 9.2677

                     25                     26                     27
                      A                      A                      A
 Frequencies --    702.1436               721.9461               733.7700
 Red. masses --      6.5527                 3.9535                 2.2551
 Frc consts  --      1.9034                 1.2141                 0.7154
 IR Inten    --      4.8694                15.1913               118.1238

                     28                     29                     30
                      A                      A                      A
 Frequencies --    749.3929               798.3986               810.2587
 Red. masses --      6.6926                 4.0636                 1.9929
 Frc consts  --      2.2144                 1.5262                 0.7709
 IR Inten    --     25.7221                 0.0820                 4.4849

                     31                     32                     33
                      A                      A                      A
 Frequencies --    853.6853               862.0607               899.2615
 Red. masses --      6.4353                 1.5810                 1.5308
 Frc consts  --      2.7632                 0.6922                 0.7293
 IR Inten    --     37.8506                37.7158                32.1661

                     34                     35                     36
                      A                      A                      A
 Frequencies --    915.7150               939.0427               991.3316
 Red. masses --      1.4244                 7.1749                 4.8111
 Frc consts  --      0.7037                 3.7277                 2.7857
 IR Inten    --      0.2297               136.7917                47.4430

                     37                     38                     39
                      A                      A                      A
 Frequencies --    997.0505              1002.6179              1023.5193
 Red. masses --      1.3258                 1.3896                 1.3311
 Frc consts  --      0.7765                 0.8230                 0.8216
 IR Inten    --      0.2554                 2.9894                 0.0037

                     40                     41                     42
                      A                      A                      A
 Frequencies --   1035.7322              1056.5209              1103.2924
 Red. masses --      4.0210                 1.9253                 2.5938
 Frc consts  --      2.5414                 1.2662                 1.8602
 IR Inten    --     69.6493                 1.3423               112.4769

                     43                     44                     45
                      A                      A                      A
 Frequencies --   1111.9905              1165.4481              1165.9114
 Red. masses --      2.0533                 1.4848                 1.2809
 Frc consts  --      1.4959                 1.1882                 1.0259
 IR Inten    --      8.5483                33.6872                 2.6894

                     46                     47                     48
                      A                      A                      A
 Frequencies --   1177.7538              1192.0850              1202.4268
 Red. masses --      1.2362                 2.1559                 1.4753
 Frc consts  --      1.0103                 1.8051                 1.2568
 IR Inten    --     28.4362                 6.8590                 0.3653

                     49                     50                     51
                      A                      A                      A
 Frequencies --   1234.0090              1254.0308              1288.0267
 Red. masses --      1.7689                 2.6072                 1.9957
 Frc consts  --      1.5871                 2.4157                 1.9507
 IR Inten    --     24.3790               248.7575                99.6432

                     52                     53                     54
                      A                      A                      A
 Frequencies --   1302.9187              1315.1672              1355.7615
 Red. masses --      5.3246                 2.3175                 7.4417
 Frc consts  --      5.3257                 2.3617                 8.0592
 IR Inten    --   1926.0818                12.1714                47.3887

                     55                     56                     57
                      A                      A                      A
 Frequencies --   1373.3520              1449.7592              1474.0697
 Red. masses --      8.8343                 3.2460                 1.2997
 Frc consts  --      9.8172                 4.0196                 1.6639
 IR Inten    --     65.3882                36.9973                16.0231

                     58                     59                     60
                      A                      A                      A
 Frequencies --   1480.7176              1485.8307              1495.2588
 Red. masses --      2.3489                 1.0440                 1.1020
 Frc consts  --      3.0343                 1.3580                 1.4517
 IR Inten    --      0.2154                16.2861                59.6248

                     61                     62                     63
                      A                      A                      A
 Frequencies --   1502.2819              1521.0789              1594.3662
 Red. masses --      2.6318                 2.7244                 7.4493
 Frc consts  --      3.4995                 3.7138                11.1569
 IR Inten    --      4.8291                46.2941               177.9108

                     64                     65                     66
                      A                      A                      A
 Frequencies --   1606.6840              1617.1151              1624.9895
 Red. masses --      6.3921                 6.8083                 5.8996
 Frc consts  --      9.7220                10.4899                 9.1785
 IR Inten    --    353.0911               454.5311                73.4299

                     67                     68                     69
                      A                      A                      A
 Frequencies --   1685.3828              1699.3912              3028.8841
 Red. masses --     11.8696                11.6161                 1.0326
 Frc consts  --     19.8648                19.7650                 5.5813
 IR Inten    --    115.3213               546.5559                63.8488

                     70                     71                     72
                      A                      A                      A
 Frequencies --   3098.6928              3153.3249              3178.5565
 Red. masses --      1.1077                 1.1021                 1.0874
 Frc consts  --      6.2666                 6.4569                 6.4730
 IR Inten    --     36.3069                22.9661                 3.3213

                     73                     74                     75
                      A                      A                      A
 Frequencies --   3190.7955              3190.8785              3203.0025
 Red. masses --      1.0910                 1.0893                 1.0925
 Frc consts  --      6.5446                 6.5347                 6.6039
 IR Inten    --     13.5027                 0.1530                 3.3002

                     76                     77                     78
                      A                      A                      A
 Frequencies --   3205.6057              3206.1630              3224.5098
 Red. masses --      1.0946                 1.0953                 1.0900
 Frc consts  --      6.6269                 6.6337                 6.6773
 IR Inten    --     19.3023                 9.7352                 8.5911

 - Thermochemistry -
 -------------------
 Temperature   298.150 Kelvin.  Pressure   1.00000 Atm.
 Atom     1 has atomic number  6 and mass  12.00000

 Molecular mass:   238.06299 amu.
 Principal axes and moments of inertia in atomic units:
                           1         2         3
     Eigenvalues --  1889.367786599.254468477.07290
           X            0.99702  -0.06085  -0.04749
           Y            0.07719   0.79061   0.60744
           Z            0.00058  -0.60929   0.79295
 This molecule is an asymmetric top.
 Rotational symmetry number  1.
 Warning -- assumption of classical behavior for rotation
           may cause significant error
 Rotational temperatures (Kelvin)      0.04584     0.01312     0.01022
 Rotational constants (GHZ):           0.95521     0.27348     0.21290
 Zero-point vibrational energy     554594.8 (Joules/Mol)
                                  132.55134 (Kcal/Mol)
 Warning -- explicit consideration of  21 degrees of freedom as
           vibrations may cause significant error
 Vibrational temperatures:     47.91    91.41   160.86   183.85   201.26
          (Kelvin)            211.29   271.08   327.35   351.36   431.82
                              433.99   496.77   560.29   598.21   605.87
                              642.89   658.86   672.81   713.40   808.63
                              834.82   930.58   971.29   978.47  1010.23
                             1038.72  1055.73  1078.21  1148.72  1165.78
                             1228.26  1240.31  1293.84  1317.51  1351.07
                             1426.31  1434.53  1442.54  1472.62  1490.19
                             1520.10  1587.39  1599.91  1676.82  1677.49
                             1694.53  1715.14  1730.02  1775.46  1804.27
                             1853.18  1874.61  1892.23  1950.64  1975.95
                             2085.88  2120.86  2130.42  2137.78  2151.34
                             2161.45  2188.49  2293.94  2311.66  2326.67
                             2338.00  2424.89  2445.04  4357.89  4458.33
                             4536.93  4573.23  4590.84  4590.96  4608.41
                             4612.15  4612.95  4639.35

 Zero-point correction=                           0.211234 (Hartree/Particle)
 Thermal correction to Energy=                    0.225203
 Thermal correction to Enthalpy=                  0.226148
 Thermal correction to Gibbs Free Energy=         0.169980
 Sum of electronic and zero-point Energies=           -803.312807
 Sum of electronic and thermal Energies=              -803.298838
 Sum of electronic and thermal Enthalpies=            -803.297894
 Sum of electronic and thermal Free Energies=         -803.354061

                     E (Thermal)             CV                S
                      KCal/Mol        Cal/Mol-Kelvin    Cal/Mol-Kelvin
 Total                  141.317             55.078            118.214
 Electronic               0.000              0.000              0.000
 Translational            0.889              2.981             42.303
 Rotational               0.889              2.981             33.024
 Vibrational            139.540             49.116             42.886
 Vibration     1          0.594              1.983              5.623
 Vibration     2          0.597              1.972              4.344
 Vibration     3          0.607              1.940              3.237
 Vibration     4          0.611              1.925              2.979
 Vibration     5          0.615              1.913              2.805
 Vibration     6          0.617              1.906              2.713
 Vibration     7          0.633              1.856              2.243
 Vibration     8          0.651              1.799              1.898
 Vibration     9          0.660              1.772              1.772
 Vibration    10          0.693              1.673              1.416
 Vibration    11          0.694              1.671              1.408
 Vibration    12          0.724              1.585              1.188
 Vibration    13          0.757              1.493              1.002
 Vibration    14          0.779              1.436              0.906
 Vibration    15          0.784              1.424              0.888
 Vibration    16          0.806              1.368              0.805
 Vibration    17          0.816              1.343              0.772
 Vibration    18          0.825              1.322              0.744
 Vibration    19          0.851              1.259              0.669
 Vibration    20          0.918              1.113              0.520
 Vibration    21          0.937              1.074              0.485

                           ! Non-Optimized Parameters !
 Normal termination of Gaussian 16 at Sat Feb 10 17:31:58 2024.
