 Q-Chem 5.4, Q-Chem, Inc., Pleasanton, CA (2021)
 Q-Chem 5.4.0 for Intel X86 EM64T Linux

User input:
--------------------------------------------------------------
$molecule
-1 2
C                 -1.2284880000      2.1900880000     -2.9343160000
C                 -2.1532950000      2.1172910000     -1.8150350000
C                  0.1577040000      2.0206660000     -2.5302880000
C                  0.5202050000      1.4917900000     -1.3208030000
C                 -0.5151540000      0.9001710000     -0.4554390000
C                 -1.8095100000      1.5889810000     -0.5998270000
C                 -0.2943650000     -0.2167890000      0.4082570000
C                 -1.3298000000     -0.8087130000      1.2733040000
C                  1.0000410000     -0.9054690000      0.5527450000
C                  1.3436850000     -1.4338660000      1.7679550000
C                  0.4186900000     -1.5068680000      2.8870730000
C                 -0.9674510000     -1.3376990000      2.4827850000
O                 -1.5701170000      2.5400900000     -4.0854560000
O                  0.7601500000     -1.8570720000      4.0382010000
C                  1.9289100000      1.7874090000     -0.7813740000
C                  1.8980470000      3.1414090000     -0.0364350000
C                  3.0389530000      1.8155060000     -1.8442290000
C                  1.8321740000     -1.2938800000     -0.6799530000
C                  1.2859570000     -2.6250510000     -1.2446600000
C                  3.3425370000     -1.4286030000     -0.4283360000
C                 -2.7382420000     -1.1047470000      0.7334130000
C                 -3.8486110000     -1.1332260000      1.7959180000
C                 -2.7067090000     -2.4587050000     -0.0115800000
C                 -2.6414160000      1.9777130000      0.6329230000
C                 -2.0946020000      3.3086330000      1.1976390000
C                 -4.1517140000      2.1131530000      0.3812940000
H                 -3.1073930000      2.6101450000     -1.9645120000
H                  0.8954010000      2.4428730000     -3.2033840000
H                  2.2978190000     -1.9266030000      1.9175660000
H                 -1.7051990000     -1.7602140000      3.1556290000
H                  2.1919580000      1.0446480000     -0.0318030000
H                  2.8821890000      3.3615960000      0.3931970000
H                  1.1716610000      3.1246340000      0.7781990000
H                  1.6277080000      3.9549590000     -0.7161490000
H                  3.0616370000      0.9004740000     -2.4406180000
H                  4.0153900000      1.9296980000     -1.3623550000
H                  2.9160290000      2.6573300000     -2.5314170000
H                  1.6804830000     -0.5564930000     -1.4648750000
H                  1.3876030000     -3.4310470000     -0.5118530000
H                  1.8357760000     -2.9084090000     -2.1496620000
H                  0.2300200000     -2.5363370000     -1.5067050000
H                  3.5666110000     -2.2742000000      0.2279810000
H                  3.7657130000     -0.5315740000      0.0296100000
H                  3.8651350000     -1.6044660000     -1.3741870000
H                 -3.0012910000     -0.3620440000     -0.0162130000
H                 -4.8248630000     -1.2476600000      1.3137270000
H                 -3.8717390000     -0.2182400000      2.3923630000
H                 -3.7256700000     -1.9750620000      2.4830890000
H                 -3.6906340000     -2.6791720000     -0.4415630000
H                 -2.4363570000     -3.2722090000      0.6681850000
H                 -1.9800470000     -2.4416620000     -0.8259660000
H                 -2.4900490000      1.2402430000      1.4178310000
H                 -2.6443270000      3.5922530000      2.1026170000
H                 -2.1958330000      4.1146790000      0.4648280000
H                 -1.0387230000      3.2194190000      1.4597400000
H                 -4.6742340000      2.2893130000      1.3271310000
H                 -4.5753230000      1.2163130000     -0.0766170000
H                 -4.3753720000      2.9588280000     -0.2750700000
$end
$rem
MAX_SCF_CYCLES=200
BASIS  =  6-311++G(d,p)
GUI  =  2
JOB_TYPE  =  SP
METHOD  =  B3LYP
SOLVENT_METHOD = PCM
$end
$pcm
theory = CPCM
$end
$solvent
dielectric 37.219
opticaldielectric 1.43
$end

--------------------------------------------------------------

             Standard Nuclear Orientation (Angstroms)
    I     Atom           X                Y                Z
 ----------------------------------------------------------------
    1      C      -1.2284880000     2.1900880000    -2.9343160000
    2      C      -2.1532950000     2.1172910000    -1.8150350000
    3      C       0.1577040000     2.0206660000    -2.5302880000
    4      C       0.5202050000     1.4917900000    -1.3208030000
    5      C      -0.5151540000     0.9001710000    -0.4554390000
    6      C      -1.8095100000     1.5889810000    -0.5998270000
    7      C      -0.2943650000    -0.2167890000     0.4082570000
    8      C      -1.3298000000    -0.8087130000     1.2733040000
    9      C       1.0000410000    -0.9054690000     0.5527450000
   10      C       1.3436850000    -1.4338660000     1.7679550000
   11      C       0.4186900000    -1.5068680000     2.8870730000
   12      C      -0.9674510000    -1.3376990000     2.4827850000
   13      O      -1.5701170000     2.5400900000    -4.0854560000
   14      O       0.7601500000    -1.8570720000     4.0382010000
   15      C       1.9289100000     1.7874090000    -0.7813740000
   16      C       1.8980470000     3.1414090000    -0.0364350000
   17      C       3.0389530000     1.8155060000    -1.8442290000
   18      C       1.8321740000    -1.2938800000    -0.6799530000
   19      C       1.2859570000    -2.6250510000    -1.2446600000
   20      C       3.3425370000    -1.4286030000    -0.4283360000
   21      C      -2.7382420000    -1.1047470000     0.7334130000
   22      C      -3.8486110000    -1.1332260000     1.7959180000
   23      C      -2.7067090000    -2.4587050000    -0.0115800000
   24      C      -2.6414160000     1.9777130000     0.6329230000
   25      C      -2.0946020000     3.3086330000     1.1976390000
   26      C      -4.1517140000     2.1131530000     0.3812940000
   27      H      -3.1073930000     2.6101450000    -1.9645120000
   28      H       0.8954010000     2.4428730000    -3.2033840000
   29      H       2.2978190000    -1.9266030000     1.9175660000
   30      H      -1.7051990000    -1.7602140000     3.1556290000
   31      H       2.1919580000     1.0446480000    -0.0318030000
   32      H       2.8821890000     3.3615960000     0.3931970000
   33      H       1.1716610000     3.1246340000     0.7781990000
   34      H       1.6277080000     3.9549590000    -0.7161490000
   35      H       3.0616370000     0.9004740000    -2.4406180000
   36      H       4.0153900000     1.9296980000    -1.3623550000
   37      H       2.9160290000     2.6573300000    -2.5314170000
   38      H       1.6804830000    -0.5564930000    -1.4648750000
   39      H       1.3876030000    -3.4310470000    -0.5118530000
   40      H       1.8357760000    -2.9084090000    -2.1496620000
   41      H       0.2300200000    -2.5363370000    -1.5067050000
   42      H       3.5666110000    -2.2742000000     0.2279810000
   43      H       3.7657130000    -0.5315740000     0.0296100000
   44      H       3.8651350000    -1.6044660000    -1.3741870000
   45      H      -3.0012910000    -0.3620440000    -0.0162130000
   46      H      -4.8248630000    -1.2476600000     1.3137270000
   47      H      -3.8717390000    -0.2182400000     2.3923630000
   48      H      -3.7256700000    -1.9750620000     2.4830890000
   49      H      -3.6906340000    -2.6791720000    -0.4415630000
   50      H      -2.4363570000    -3.2722090000     0.6681850000
   51      H      -1.9800470000    -2.4416620000    -0.8259660000
   52      H      -2.4900490000     1.2402430000     1.4178310000
   53      H      -2.6443270000     3.5922530000     2.1026170000
   54      H      -2.1958330000     4.1146790000     0.4648280000
   55      H      -1.0387230000     3.2194190000     1.4597400000
   56      H      -4.6742340000     2.2893130000     1.3271310000
   57      H      -4.5753230000     1.2163130000    -0.0766170000
   58      H      -4.3753720000     2.9588280000    -0.2750700000
 ----------------------------------------------------------------

    8   -1084.6471720409      5.75e-06  Convergence criterion met
 Total energy in the final basis set =    -1084.6471720409

                    Orbital Energies (a.u.)
 --------------------------------------------------------------

 Alpha MOs
 -- Occupied --
-19.0773 -19.0773 -10.2231 -10.2231 -10.1846 -10.1842 -10.1815 -10.1815
-10.1814 -10.1814 -10.1731 -10.1731 -10.1731 -10.1731 -10.1522 -10.1522
-10.1522 -10.1522 -10.1510 -10.1510 -10.1510 -10.1510 -10.1485 -10.1484
-10.1484 -10.1484  -1.0025  -1.0025  -0.8653  -0.8375  -0.8142  -0.8010
 -0.7767  -0.7687  -0.7427  -0.7191  -0.7170  -0.6820  -0.6801  -0.6792
 -0.6754  -0.6703  -0.6283  -0.6156  -0.6047  -0.5843  -0.5676  -0.5489
 -0.5369  -0.5326  -0.5076  -0.4905  -0.4632  -0.4567  -0.4540  -0.4469
 -0.4438  -0.4384  -0.4380  -0.4305  -0.4295  -0.4195  -0.4160  -0.4118
 -0.4091  -0.3978  -0.3957  -0.3938  -0.3907  -0.3886  -0.3829  -0.3788
 -0.3784  -0.3729  -0.3670  -0.3659  -0.3609  -0.3570  -0.3547  -0.3439
 -0.3391  -0.3381  -0.3332  -0.3298  -0.3274  -0.3271  -0.3245  -0.3242
 -0.3175  -0.3067  -0.2735  -0.2414  -0.2413  -0.2306  -0.2247  -0.2242
 -0.1446

 Beta MOs
 -- Occupied --
-19.0739 -19.0739 -10.2222 -10.2222 -10.1826 -10.1822 -10.1807 -10.1807
-10.1806 -10.1806 -10.1731 -10.1731 -10.1731 -10.1731 -10.1521 -10.1521
-10.1521 -10.1521 -10.1510 -10.1510 -10.1510 -10.1510 -10.1478 -10.1478
-10.1478 -10.1478  -0.9964  -0.9964  -0.8614  -0.8346  -0.8135  -0.8004
 -0.7755  -0.7674  -0.7380  -0.7177  -0.7156  -0.6801  -0.6799  -0.6790
 -0.6753  -0.6658  -0.6266  -0.6141  -0.6033  -0.5827  -0.5653  -0.5470
 -0.5354  -0.5313  -0.5061  -0.4890  -0.4609  -0.4554  -0.4529  -0.4462
 -0.4433  -0.4379  -0.4367  -0.4302  -0.4284  -0.4155  -0.4125  -0.4112
 -0.4070  -0.3972  -0.3951  -0.3923  -0.3882  -0.3855  -0.3780  -0.3779
 -0.3777  -0.3687  -0.3654  -0.3618  -0.3602  -0.3561  -0.3510  -0.3417
 -0.3381  -0.3377  -0.3329  -0.3295  -0.3269  -0.3252  -0.3236  -0.3234
 -0.3070  -0.3051  -0.2610  -0.2381  -0.2380  -0.2269  -0.2205  -0.2064

          Ground-State Mulliken Net Atomic Charges

     Atom                 Charge (a.u.)    Spin (a.u.)
  --------------------------------------------------------
      1 C                    -0.598576       0.078923
      2 C                    -0.362756       0.043405
      3 C                    -0.373524       0.043300
      4 C                     0.668281       0.056054
      5 C                     0.160419       0.131234
      6 C                     0.641579       0.055770
      7 C                     0.160572       0.131226
      8 C                     0.668236       0.055985
      9 C                     0.641500       0.055828
     10 C                    -0.362989       0.043369
     11 C                    -0.599010       0.078944
     12 C                    -0.373231       0.043334
     13 O                    -0.504689       0.123808
     14 O                    -0.504684       0.123822
     15 C                    -0.097365      -0.019591
     16 C                    -0.696822       0.001545
     17 C                    -0.717494       0.000175
     18 C                    -0.088708      -0.018746
     19 C                    -0.693947       0.001097
     20 C                    -0.718258       0.000245
     21 C                    -0.097384      -0.019569
     22 C                    -0.717160       0.000192
     23 C                    -0.696838       0.001560
     24 C                    -0.088810      -0.018741
     25 C                    -0.694149       0.001120
     26 C                    -0.717946       0.000251
     27 H                     0.206691      -0.003820
     28 H                     0.206574      -0.003821
     29 H                     0.206634      -0.003823
     30 H                     0.206635      -0.003819
     31 H                     0.273202       0.003676
     32 H                     0.165478       0.000034
     33 H                     0.137339       0.001698
     34 H                     0.178340       0.000078
     35 H                     0.147661      -0.000433
     36 H                     0.181020       0.000133
     37 H                     0.152178       0.000023
     38 H                     0.273494       0.003658
     39 H                     0.179054       0.000124
     40 H                     0.165773       0.000017
     41 H                     0.134571       0.001641
     42 H                     0.152100       0.000022
     43 H                     0.147677      -0.000435
     44 H                     0.180961       0.000137
     45 H                     0.272835       0.003664
     46 H                     0.180942       0.000135
     47 H                     0.147741      -0.000433
     48 H                     0.152185       0.000022
     49 H                     0.165487       0.000035
     50 H                     0.178323       0.000077
     51 H                     0.137403       0.001702
     52 H                     0.273354       0.003656
     53 H                     0.165768       0.000021
     54 H                     0.179063       0.000122
     55 H                     0.134624       0.001643
     56 H                     0.180946       0.000137
     57 H                     0.147707      -0.000435
     58 H                     0.151989       0.000021
  --------------------------------------------------------
  Sum of atomic charges =    -1.000000

                    Cartesian Multipole Moments
 -----------------------------------------------------------------
    Charge (ESU x 10^10)
                -4.8032
    Dipole Moment (Debye)
         X       1.9457      Y      -1.6405      Z       0.1130
       Tot       2.5475
    Quadrupole Moments (Debye-Ang)
        XX    -165.5301     XY      13.6040     YY    -188.9437
        XZ     -29.3356     YZ      46.2275     ZZ    -257.0473

 Total job time:  327.23s(wall), 2101.78s(cpu)
        *  Thank you very much for using Q-Chem.  Have a nice day.  *
