 Gaussian 16, Revision A.03,
 Gaussian 16:  ES64L-G16RevA.03 25-Dec-2016

 ----------------------------------------------------------------------
 #P UB3LYP/6-311++G(d,p) nosym opt freq SCRF=(PCM,Solvent=n,n-DiMethylF
 ormamide)
 ----------------------------------------------------------------------

 -------
 Reduced
 -------
 Symbolic Z-matrix:
 Charge = -2 Multiplicity = 1

 SCF Done:  E(UB3LYP) =  -693.714707001     A.U. after   22 cycles
 SCF Done:  E(UB3LYP) =  -693.720152979     A.U. after   16 cycles
 SCF Done:  E(UB3LYP) =  -693.721041078     A.U. after   15 cycles
 SCF Done:  E(UB3LYP) =  -693.721096943     A.U. after   14 cycles
 SCF Done:  E(UB3LYP) =  -693.721105605     A.U. after   13 cycles
 SCF Done:  E(UB3LYP) =  -693.721109652     A.U. after   13 cycles
 SCF Done:  E(UB3LYP) =  -693.721110022     A.U. after   12 cycles
 SCF Done:  E(UB3LYP) =  -693.721110691     A.U. after   13 cycles
 SCF Done:  E(UB3LYP) =  -693.721112224     A.U. after   14 cycles
 SCF Done:  E(UB3LYP) =  -693.721113993     A.U. after   13 cycles
 SCF Done:  E(UB3LYP) =  -693.720390548     A.U. after   16 cycles
 SCF Done:  E(UB3LYP) =  -693.721085360     A.U. after   15 cycles
 SCF Done:  E(UB3LYP) =  -693.721115247     A.U. after   14 cycles
 SCF Done:  E(UB3LYP) =  -693.721117021     A.U. after   13 cycles
 SCF Done:  E(UB3LYP) =  -693.721116458     A.U. after   13 cycles
 SCF Done:  E(UB3LYP) =  -693.721116651     A.U. after   13 cycles
 SCF Done:  E(UB3LYP) =  -693.721117117     A.U. after   11 cycles
 SCF Done:  E(UB3LYP) =  -693.721117155     A.U. after   13 cycles
 SCF Done:  E(UB3LYP) =  -693.721117179     A.U. after   11 cycles
 Optimization completed.
    -- Stationary point found.
 Normal termination of Gaussian 16 at Sun Feb 11 17:41:28 2024.

 ----------------------------------------------------------------------
 #P Geom=AllCheck Guess=TCheck SCRF=Check GenChk UB3LYP/6-311++G(d,p) F
 req
 ----------------------------------------------------------------------

 Structure from the checkpoint file:  "341-an.chk"
 -------
 Reduced
 -------
 Charge = -2 Multiplicity = 1

                          Input orientation:
 ---------------------------------------------------------------------
 Center     Atomic      Atomic             Coordinates (Angstroms)
 Number     Number       Type             X           Y           Z
 ---------------------------------------------------------------------
      1          6           0       -0.332821   -2.041735    0.941349
      2          6           0       -0.233359   -0.958882   -0.169120
      3          6           0       -0.552690   -1.621846   -1.537116
      4          6           0       -1.279965    0.138627    0.117466
      5          6           0       -2.627220   -0.194793    0.128704
      6          6           0       -3.655674    0.741019    0.397648
      7          6           0       -3.278512    2.062811    0.666914
      8          6           0       -1.941411    2.435435    0.667977
      9          6           0       -0.881180    1.497389    0.393510
     10          6           0        0.477097    1.929108    0.395983
     11          8           0        0.794596    3.202950    0.657542
     12          6           0        1.488481    0.972836    0.089123
     13          6           0        2.873177    1.371847    0.049043
     14          6           0        3.893339    0.478167   -0.245352
     15          6           0        3.612839   -0.866543   -0.519026
     16          6           0        2.257349   -1.275786   -0.486866
     17          6           0        1.209444   -0.412523   -0.198363
     18          1           0        0.381255   -2.852393    0.767460
     19          1           0       -1.337392   -2.473560    0.981672
     20          1           0       -0.114418   -1.604303    1.919849
     21          1           0       -1.559226   -2.049200   -1.546403
     22          1           0       -0.493299   -0.883241   -2.341618
     23          1           0        0.154373   -2.424586   -1.764117
     24          1           0       -2.918228   -1.221926   -0.074736
     25          1           0       -4.696675    0.436077    0.395882
     26          1           0       -4.040835    2.810498    0.878592
     27          1           0       -1.656221    3.459504    0.876686
     28          1           0        3.094558    2.410703    0.261145
     29          1           0        4.923195    0.830437   -0.261379
     30          1           0        4.400682   -1.576402   -0.747169
     31          1           0        2.038738   -2.319689   -0.695284
 ---------------------------------------------------------------------

 SCF Done:  E(UB3LYP) =  -693.721117179     A.U. after    1 cycles

 Alpha  occ. eigenvalues --  -18.99402 -10.16889 -10.14154 -10.14132 -10.13885
 Alpha  occ. eigenvalues --  -10.13884 -10.13875 -10.13874 -10.13458 -10.13453
 Alpha  occ. eigenvalues --  -10.13267 -10.12630 -10.12616 -10.12370 -10.12359
 Alpha  occ. eigenvalues --  -10.11943 -10.11930  -0.89024  -0.82807  -0.80468
 Alpha  occ. eigenvalues --   -0.77452  -0.72075  -0.70680  -0.69287  -0.68910
 Alpha  occ. eigenvalues --   -0.66877  -0.60708  -0.59446  -0.57040  -0.54680
 Alpha  occ. eigenvalues --   -0.51942  -0.49805  -0.48497  -0.44498  -0.42370
 Alpha  occ. eigenvalues --   -0.42321  -0.41440  -0.40739  -0.40300  -0.39769
 Alpha  occ. eigenvalues --   -0.38145  -0.37802  -0.36259  -0.34984  -0.34606
 Alpha  occ. eigenvalues --   -0.34488  -0.33894  -0.32242  -0.32172  -0.32041
 Alpha  occ. eigenvalues --   -0.30979  -0.28524  -0.28058  -0.27108  -0.21886
 Alpha  occ. eigenvalues --   -0.21515  -0.20721  -0.19834  -0.17596  -0.07268
 Alpha virt. eigenvalues --   -0.00194   0.00762   0.01188   0.01401   0.01754
 Alpha virt. eigenvalues --    0.02213   0.02300   0.02370   0.02491   0.03551
 Alpha virt. eigenvalues --    0.04414   0.04465   0.05037   0.05852   0.06236

  Beta  occ. eigenvalues --  -18.99402 -10.16889 -10.14154 -10.14132 -10.13885
  Beta  occ. eigenvalues --  -10.13884 -10.13875 -10.13874 -10.13458 -10.13453
  Beta  occ. eigenvalues --  -10.13267 -10.12630 -10.12616 -10.12370 -10.12359
  Beta  occ. eigenvalues --  -10.11943 -10.11930  -0.89024  -0.82807  -0.80468
  Beta  occ. eigenvalues --   -0.77452  -0.72075  -0.70680  -0.69287  -0.68910
  Beta  occ. eigenvalues --   -0.66877  -0.60708  -0.59446  -0.57040  -0.54680
  Beta  occ. eigenvalues --   -0.51942  -0.49805  -0.48497  -0.44498  -0.42370
  Beta  occ. eigenvalues --   -0.42321  -0.41440  -0.40739  -0.40300  -0.39769
  Beta  occ. eigenvalues --   -0.38145  -0.37802  -0.36259  -0.34984  -0.34606
  Beta  occ. eigenvalues --   -0.34488  -0.33894  -0.32242  -0.32172  -0.32041
  Beta  occ. eigenvalues --   -0.30979  -0.28524  -0.28058  -0.27108  -0.21886
  Beta  occ. eigenvalues --   -0.21515  -0.20721  -0.19834  -0.17596  -0.07268
  Beta virt. eigenvalues --   -0.00194   0.00762   0.01188   0.01401   0.01754
  Beta virt. eigenvalues --    0.02213   0.02300   0.02370   0.02491   0.03551
  Beta virt. eigenvalues --    0.04414   0.04465   0.05037   0.05852   0.06236

 Mulliken charges and spin densities:
               1          2
     1  C   -0.777056   0.000000
     2  C    0.290511   0.000000
     3  C   -0.776148   0.000000
     4  C   -0.052911   0.000000
     5  C   -0.314225  -0.000000
     6  C   -0.522596   0.000000
     7  C   -0.539556   0.000000
     8  C   -0.427217   0.000000
     9  C    1.002637  -0.000000
    10  C   -0.102385  -0.000000
    11  O   -0.794155   0.000000
    12  C    1.000978  -0.000000
    13  C   -0.419209   0.000000
    14  C   -0.540193  -0.000000
    15  C   -0.523782  -0.000000
    16  C   -0.312418   0.000000
    17  C   -0.050905  -0.000000
    18  H    0.130418  -0.000000
    19  H    0.130692  -0.000000
    20  H    0.146280  -0.000000
    21  H    0.128072  -0.000000
    22  H    0.151476   0.000000
    23  H    0.128129  -0.000000
    24  H    0.095917   0.000000
    25  H    0.139516   0.000000
    26  H    0.134984   0.000000
    27  H    0.151041   0.000000
    28  H    0.151045   0.000000
    29  H    0.135041  -0.000000
    30  H    0.139449  -0.000000
    31  H    0.096573   0.000000
 Sum of Mulliken charges =  -2.00000   0.00000

 Dipole moment (field-independent basis, Debye):
    X=             -4.1525    Y=            -16.9392    Z=             -3.2725  Tot=             17.7451
 Quadrupole moment (field-independent basis, Debye-Ang):
   XX=           -154.9097   YY=           -162.7706   ZZ=           -121.9537
   XY=             -3.0389   XZ=              2.0814   YZ=             -9.3439

  Exact polarizability: 785.335 -89.594 383.691 -63.753  41.481 239.131
 Approx polarizability: 850.065 -95.184 420.114 -69.356  49.609 246.847

                      1                      2                      3
                      A                      A                      A
 Frequencies --     25.2256                92.1263               115.7463
 Red. masses --      4.1739                 3.6808                 3.9955
 Frc consts  --      0.0016                 0.0184                 0.0315
 IR Inten    --      1.4803                 2.8312                 2.0082

                      4                      5                      6
                      A                      A                      A
 Frequencies --    173.4847               191.2577               224.4031
 Red. masses --      5.4684                 2.1212                 3.9147
 Frc consts  --      0.0970                 0.0457                 0.1161
 IR Inten    --      3.9213                 0.0215                 2.7933

                      7                      8                      9
                      A                      A                      A
 Frequencies --    258.6900               278.0738               300.8561
 Red. masses --      1.3262                 1.0470                 3.6730
 Frc consts  --      0.0523                 0.0477                 0.1959
 IR Inten    --      0.6267                 0.0913                 9.8046

                     10                     11                     12
                      A                      A                      A
 Frequencies --    301.5198               314.9583               333.5453
 Red. masses --      3.4957                 5.7648                 4.6767
 Frc consts  --      0.1872                 0.3369                 0.3065
 IR Inten    --     10.1470                 0.7544                47.3958

                     13                     14                     15
                      A                      A                      A
 Frequencies --    345.0472               371.0444               379.6785
 Red. masses --      2.9260                 5.3407                 3.5210
 Frc consts  --      0.2052                 0.4332                 0.2991
 IR Inten    --      6.5992                 1.0377                 5.0340

                     16                     17                     18
                      A                      A                      A
 Frequencies --    426.0231               472.3806               496.6265
 Red. masses --      6.9500                 3.1012                 4.3012
 Frc consts  --      0.7432                 0.4077                 0.6250
 IR Inten    --     22.7326                 0.2274                 6.7799

                     19                     20                     21
                      A                      A                      A
 Frequencies --    558.4145               581.4502               589.1629
 Red. masses --      4.3939                 4.2843                 5.3196
 Frc consts  --      0.8073                 0.8534                 1.0879
 IR Inten    --      0.4094                10.0355                 0.3292

                     22                     23                     24
                      A                      A                      A
 Frequencies --    597.9339               617.3610               632.9076
 Red. masses --      2.6227                 5.4263                 4.7226
 Frc consts  --      0.5525                 1.2185                 1.1146
 IR Inten    --    197.2572                 0.0193                13.8265

                     25                     26                     27
                      A                      A                      A
 Frequencies --    661.5304               668.6162               669.3724
 Red. masses --      1.2446                 5.9739                 1.3514
 Frc consts  --      0.3209                 1.5735                 0.3568
 IR Inten    --      8.4263                 0.9148               142.0073

                     28                     29                     30
                      A                      A                      A
 Frequencies --    737.0099               749.1533               769.0021
 Red. masses --      2.5747                 2.4134                 5.5609
 Frc consts  --      0.8240                 0.7980                 1.9375
 IR Inten    --      7.1931                28.3806                17.6518

                     31                     32                     33
                      A                      A                      A
 Frequencies --    786.6795               797.9812               802.2403
 Red. masses --      1.8662                 2.7769                 2.0928
 Frc consts  --      0.6805                 1.0418                 0.7936
 IR Inten    --      2.0467               568.1896                84.6925

                     34                     35                     36
                      A                      A                      A
 Frequencies --    894.3298               899.0021               909.2563
 Red. masses --      1.3743                 1.3525                 2.7880
 Frc consts  --      0.6476                 0.6440                 1.3581
 IR Inten    --     17.8206                 0.0743                 2.0941

                     37                     38                     39
                      A                      A                      A
 Frequencies --    917.4052               918.6931               941.8754
 Red. masses --      6.1634                 1.5562                 1.2683
 Frc consts  --      3.0563                 0.7739                 0.6629
 IR Inten    --     75.2240                 0.1360                 1.1507

                     40                     41                     42
                      A                      A                      A
 Frequencies --    947.0328              1020.1602              1023.6793
 Red. masses --      1.2411                 1.9508                 1.5535
 Frc consts  --      0.6558                 1.1962                 0.9591
 IR Inten    --      2.3472              1026.3462               499.6914

                     43                     44                     45
                      A                      A                      A
 Frequencies --   1033.3657              1069.3152              1075.3109
 Red. masses --      2.6594                 3.0018                 2.8240
 Frc consts  --      1.6732                 2.0223                 1.9239
 IR Inten    --     82.7018               211.0281               129.2617

                     46                     47                     48
                      A                      A                      A
 Frequencies --   1089.8516              1101.3971              1133.5895
 Red. masses --      1.5883                 2.0427                 3.3044
 Frc consts  --      1.1115                 1.4600                 2.5018
 IR Inten    --    239.8711                63.5834                17.6659

                     49                     50                     51
                      A                      A                      A
 Frequencies --   1134.1990              1145.8698              1155.6797
 Red. masses --      1.2389                 1.2033                 2.0945
 Frc consts  --      0.9390                 0.9309                 1.6482
 IR Inten    --    585.5797                52.6031                34.9759

                     52                     53                     54
                      A                      A                      A
 Frequencies --   1185.9318              1207.8208              1263.2295
 Red. masses --      1.8005                 2.9112                 1.8356
 Frc consts  --      1.4919                 2.5022                 1.7258
 IR Inten    --   1499.2504                23.7827                10.3723

                     55                     56                     57
                      A                      A                      A
 Frequencies --   1276.3450              1336.0393              1339.2195
 Red. masses --      2.4242                 3.1819                 3.9619
 Frc consts  --      2.3268                 3.3464                 4.1865
 IR Inten    --    402.8439               621.2694               161.1948

                     58                     59                     60
                      A                      A                      A
 Frequencies --   1358.3597              1362.0238              1379.6867
 Red. masses --      4.9142                 4.8848                 1.2012
 Frc consts  --      5.3424                 5.3391                 1.3472
 IR Inten    --    778.6880              1849.8865                10.3532

                     61                     62                     63
                      A                      A                      A
 Frequencies --   1402.0295              1417.8077              1455.1484
 Red. masses --      1.2195                 2.4715                 2.4162
 Frc consts  --      1.4124                 2.9272                 3.0144
 IR Inten    --     29.5979              1665.5559                73.5188

                     64                     65                     66
                      A                      A                      A
 Frequencies --   1466.6117              1475.6566              1476.8634
 Red. masses --      2.5857                 1.0518                 1.0523
 Frc consts  --      3.2769                 1.3495                 1.3522
 IR Inten    --    154.1032                 1.2072                 2.7026

                     67                     68                     69
                      A                      A                      A
 Frequencies --   1486.2599              1494.1364              1495.3917
 Red. masses --      1.1170                 2.9115                 1.2058
 Frc consts  --      1.4538                 3.8295                 1.5887
 IR Inten    --     30.3626                16.0064                20.0270

                     70                     71                     72
                      A                      A                      A
 Frequencies --   1507.4809              1518.7530              1566.7053
 Red. masses --      3.2382                 3.7803                 4.1094
 Frc consts  --      4.3356                 5.1375                 5.9429
 IR Inten    --    578.1589                11.3928              1105.0421

                     73                     74                     75
                      A                      A                      A
 Frequencies --   1623.6857              3010.1180              3017.2127
 Red. masses --      6.2660                 1.0333                 1.0341
 Frc consts  --      9.7329                 5.5160                 5.5465
 IR Inten    --     42.6278                75.8200                68.9065

                     76                     77                     78
                      A                      A                      A
 Frequencies --   3074.0783              3079.3327              3080.3752
 Red. masses --      1.1014                 1.1023                 1.1008
 Frc consts  --      6.1323                 6.1585                 6.1540
 IR Inten    --     18.3052                41.0644                51.7511

                     79                     80                     81
                      A                      A                      A
 Frequencies --   3081.8223              3112.6276              3113.2654
 Red. masses --      1.1018                 1.0859                 1.0860
 Frc consts  --      6.1657                 6.1986                 6.2017
 IR Inten    --     74.8492               199.6248                40.9441

                     82                     83                     84
                      A                      A                      A
 Frequencies --   3130.3796              3131.1209              3161.6633
 Red. masses --      1.0858                 1.0860                 1.0923
 Frc consts  --      6.2691                 6.2728                 6.4329
 IR Inten    --      0.9693               121.8532                80.1241

                     85                     86                     87
                      A                      A                      A
 Frequencies --   3162.2658              3173.1532              3177.4028
 Red. masses --      1.0926                 1.0907                 1.0899
 Frc consts  --      6.4372                 6.4703                 6.4830
 IR Inten    --     64.9817                42.2152                35.5180

 - Thermochemistry -
 -------------------
 Temperature   298.150 Kelvin.  Pressure   1.00000 Atm.
 Atom     1 has atomic number  6 and mass  12.00000

 Molecular mass:   222.10447 amu.
 Principal axes and moments of inertia in atomic units:
                           1         2         3
     Eigenvalues --  2129.955714331.138806071.55715
           X            0.96904   0.23448   0.07731
           Y           -0.21411   0.95402  -0.20978
           Z           -0.12294   0.18673   0.97469
 This molecule is an asymmetric top.
 Rotational symmetry number  1.
 Warning -- assumption of classical behavior for rotation
           may cause significant error
 Rotational temperatures (Kelvin)      0.04066     0.02000     0.01427
 Rotational constants (GHZ):           0.84731     0.41669     0.29725
 Zero-point vibrational energy     647954.4 (Joules/Mol)
                                  154.86482 (Kcal/Mol)
 Warning -- explicit consideration of  23 degrees of freedom as
           vibrations may cause significant error
 Vibrational temperatures:     36.29   132.55   166.53   249.61   275.18
          (Kelvin)            322.87   372.20   400.09   432.86   433.82
                              453.15   479.90   496.45   533.85   546.27
                              612.95   679.65   714.53   803.43   836.58
                              847.67   860.29   888.24   910.61   951.79
                              961.99   963.08  1060.39  1077.86  1106.42
                             1131.86  1148.12  1154.24  1286.74  1293.46
                             1308.22  1319.94  1321.79  1355.15  1362.57
                             1467.78  1472.85  1486.78  1538.51  1547.13
                             1568.05  1584.66  1630.98  1631.86  1648.65
                             1662.77  1706.29  1737.78  1817.51  1836.38
                             1922.26  1926.84  1954.38  1959.65  1985.06
                             2017.21  2039.91  2093.63  2110.13  2123.14
                             2124.88  2138.40  2149.73  2151.54  2168.93
                             2185.15  2254.14  2336.12  4330.89  4341.10
                             4422.91  4430.47  4431.97  4434.05  4478.38
                             4479.29  4503.92  4504.98  4548.93  4549.80
                             4565.46  4571.57

 Zero-point correction=                           0.246793 (Hartree/Particle)
 Thermal correction to Energy=                    0.260695
 Thermal correction to Enthalpy=                  0.261640
 Thermal correction to Gibbs Free Energy=         0.206804
 Sum of electronic and zero-point Energies=           -693.474324
 Sum of electronic and thermal Energies=              -693.460422
 Sum of electronic and thermal Enthalpies=            -693.459478
 Sum of electronic and thermal Free Energies=         -693.514313

                     E (Thermal)             CV                S
                      KCal/Mol        Cal/Mol-Kelvin    Cal/Mol-Kelvin
 Total                  163.589             58.064            115.411
 Electronic               0.000              0.000              0.000
 Translational            0.889              2.981             42.097
 Rotational               0.889              2.981             32.393
 Vibrational            161.811             52.103             40.921
 Vibration     1          0.593              1.985              6.173
 Vibration     2          0.602              1.955              3.614
 Vibration     3          0.608              1.936              3.170
 Vibration     4          0.627              1.875              2.397
 Vibration     5          0.634              1.852              2.216
 Vibration     6          0.649              1.804              1.923
 Vibration     7          0.668              1.748              1.671
 Vibration     8          0.679              1.714              1.545
 Vibration     9          0.693              1.672              1.412
 Vibration    10          0.694              1.671              1.408
 Vibration    11          0.702              1.645              1.336
 Vibration    12          0.715              1.609              1.243
 Vibration    13          0.723              1.585              1.189
 Vibration    14          0.743              1.532              1.075
 Vibration    15          0.750              1.513              1.040
 Vibration    16          0.788              1.414              0.872
 Vibration    17          0.829              1.311              0.731
 Vibration    18          0.852              1.257              0.667
 Vibration    19          0.914              1.121              0.527
 Vibration    20          0.938              1.071              0.483
 Vibration    21          0.946              1.055              0.469
 Vibration    22          0.956              1.036              0.453
 Vibration    23          0.977              0.995              0.421

 Optimization completed.
    -- Stationary point found.
 Normal termination of Gaussian 16 at Sun Feb 11 18:32:37 2024.
