 Q-Chem 5.4, Q-Chem, Inc., Pleasanton, CA (2021)
 Q-Chem 5.4.0 for Intel X86 EM64T Linux

User input:
--------------------------------------------------------------
$molecule
0 1
C                  1.5214750000      0.8168820000     -0.8333930000
C                  0.2567800000      1.5523290000     -0.6003110000
C                 -0.8049510000      0.9511870000     -0.0586910000
C                 -0.7730070000     -0.4920730000      0.3043500000
C                  0.4600060000     -1.2656620000      0.0400320000
C                  1.5347500000     -0.6513610000     -0.5251910000
O                  2.5130980000      1.4035570000     -1.2357620000
O                 -1.7669170000     -1.0094620000      0.7960800000
C                  0.4813310000     -2.7168150000      0.4191700000
O                  2.6560830000     -1.3795110000     -0.6957530000
C                  3.6344570000     -1.0832830000     -1.7136880000
H                  0.2722520000      2.6012710000     -0.8737460000
H                 -1.7371980000      1.4669070000      0.1419800000
H                  1.0005690000     -2.8607500000      1.3732460000
H                  1.0166190000     -3.3052330000     -0.3275760000
H                 -0.5355980000     -3.0899160000      0.5336870000
H                  4.1865990000     -2.0136080000     -1.8412590000
H                  4.2995590000     -0.2833590000     -1.3963220000
H                  3.1528030000     -0.8077920000     -2.6532440000
$end
$rem
MAX_SCF_CYCLES=200
BASIS  =  6-311++G(d,p)
GUI  =  2
JOB_TYPE  =  SP
METHOD  =  B3LYP
SOLVENT_METHOD = PCM
$end
$pcm
theory = CPCM
$end
$solvent
dielectric 37.219
opticaldielectric 1.43
$end

--------------------------------------------------------------

             Standard Nuclear Orientation (Angstroms)
    I     Atom           X                Y                Z
 ----------------------------------------------------------------
    1      C       1.5214750000     0.8168820000    -0.8333930000
    2      C       0.2567800000     1.5523290000    -0.6003110000
    3      C      -0.8049510000     0.9511870000    -0.0586910000
    4      C      -0.7730070000    -0.4920730000     0.3043500000
    5      C       0.4600060000    -1.2656620000     0.0400320000
    6      C       1.5347500000    -0.6513610000    -0.5251910000
    7      O       2.5130980000     1.4035570000    -1.2357620000
    8      O      -1.7669170000    -1.0094620000     0.7960800000
    9      C       0.4813310000    -2.7168150000     0.4191700000
   10      O       2.6560830000    -1.3795110000    -0.6957530000
   11      C       3.6344570000    -1.0832830000    -1.7136880000
   12      H       0.2722520000     2.6012710000    -0.8737460000
   13      H      -1.7371980000     1.4669070000     0.1419800000
   14      H       1.0005690000    -2.8607500000     1.3732460000
   15      H       1.0166190000    -3.3052330000    -0.3275760000
   16      H      -0.5355980000    -3.0899160000     0.5336870000
   17      H       4.1865990000    -2.0136080000    -1.8412590000
   18      H       4.2995590000    -0.2833590000    -1.3963220000
   19      H       3.1528030000    -0.8077920000    -2.6532440000
 ----------------------------------------------------------------

    9    -535.4598008916      6.10e-06  Convergence criterion met
 Total energy in the final basis set =     -535.4598008916

                    Orbital Energies (a.u.)
 --------------------------------------------------------------

 Alpha MOs
 -- Occupied --
-19.1741 -19.1468 -19.1360 -10.2938 -10.2823 -10.2660 -10.2225 -10.2099
-10.2085 -10.2042 -10.1693  -1.0954  -1.0697  -1.0670  -0.8623  -0.8058
 -0.7410  -0.7005  -0.6919  -0.6159  -0.5980  -0.5399  -0.5276  -0.5009
 -0.4865  -0.4732  -0.4544  -0.4453  -0.4355  -0.4346  -0.4255  -0.4054
 -0.3998  -0.3875  -0.3701  -0.3487  -0.3106  -0.2891  -0.2811  -0.2539

          Ground-State Mulliken Net Atomic Charges

     Atom                 Charge (a.u.)
  ----------------------------------------
      1 C                    -0.007545
      2 C                    -0.013390
      3 C                     0.276381
      4 C                    -1.358103
      5 C                     1.830581
      6 C                    -1.028745
      7 O                    -0.277136
      8 O                    -0.310362
      9 C                    -0.232045
     10 O                    -0.189651
     11 C                    -0.323091
     12 H                     0.258955
     13 H                     0.255834
     14 H                     0.210564
     15 H                     0.182162
     16 H                     0.173980
     17 H                     0.171456
     18 H                     0.196052
     19 H                     0.184101
  ----------------------------------------
  Sum of atomic charges =     0.000000

                    Cartesian Multipole Moments
 -----------------------------------------------------------------
    Charge (ESU x 10^10)
                 0.0000
    Dipole Moment (Debye)
         X       1.7053      Y       0.4351      Z      -1.9123
       Tot       2.5988
    Quadrupole Moments (Debye-Ang)
        XX     -68.3463     XY     -11.2801     YY     -62.5833
        XZ       0.2832     YZ       4.3720     ZZ     -62.7147

 Total job time:  16.19s(wall), 119.16s(cpu)
        *  Thank you very much for using Q-Chem.  Have a nice day.  *
