 Q-Chem 5.4, Q-Chem, Inc., Pleasanton, CA (2021)
 Q-Chem 5.4.0 for Intel X86 EM64T Linux

User input:
--------------------------------------------------------------
$molecule
-1 2
C                  0.0663160000      1.7226620000     -0.0000220000
C                 -1.1676360000      0.9135870000     -0.0007870000
C                 -1.1558600000     -0.4481220000      0.0002160000
C                  0.0918990000     -1.2357320000      0.0021110000
C                  1.3150190000     -0.4454630000      0.0028830000
C                  1.3029190000      0.9536700000      0.0018600000
O                  0.0432800000      2.9612790000     -0.0010130000
O                  0.0902880000     -2.4745630000      0.0031010000
C                  2.5151700000      1.6985270000      0.0026380000
C                  2.5399590000     -1.1692620000      0.0047340000
N                  3.5051900000      2.2986270000      0.0032810000
N                  3.5401940000     -1.7521740000      0.0062360000
Cl                -2.6562810000      1.8224170000     -0.0030620000
Cl                -2.6285680000     -1.3825640000     -0.0006870000
$end
$rem
MAX_SCF_CYCLES=200
BASIS  =  6-311++G(d,p)
GUI  =  2
JOB_TYPE  =  SP
METHOD  =  B3LYP
SOLVENT_METHOD = COSMO
$end
$solvent
dielectric 37.219
opticaldielectric 1.43
$end

--------------------------------------------------------------

             Standard Nuclear Orientation (Angstroms)
    I     Atom           X                Y                Z
 ----------------------------------------------------------------
    1      C       0.1363361306    -1.4792568387    -0.0000237992
    2      C      -1.1045645298    -0.6808797163    -0.0000011473
    3      C      -1.1045602292     0.6808805712     0.0000063687
    4      C       0.1363443624     1.4792485433     0.0000386060
    5      C       1.3662508587     0.6995830814     0.0000110134
    6      C       1.3662460891    -0.6996026132    -0.0000042752
    7      O       0.1240081076    -2.7180270871     0.0000346950
    8      O       0.1240244697     2.7180197228    -0.0000454004
    9      C       2.5848914057    -1.4339517366    -0.0000163535
   10      C       2.5848889318     1.4339451645     0.0000158029
   11      N       3.5800625483    -2.0254704771    -0.0000278262
   12      N       3.5800481619     2.0254828367     0.0000232194
   13      Cl     -2.5852984100    -1.6025457387    -0.0000028556
   14      Cl     -2.5852918080     1.6025559542     0.0000005377
 ----------------------------------------------------------------

    9   -1485.4453262496      6.07e-06  Convergence criterion met
 Total energy in the final basis set =    -1485.4453262496
    5   -1485.5184899752      3.55e-06  Convergence criterion met
 Total energy in the final basis set =    -1485.5184899752

                    Orbital Energies (a.u.)
 --------------------------------------------------------------

 Alpha MOs
 -- Occupied --
********-101.5731 -19.1232 -19.1232 -14.3333 -14.3333 -10.2803 -10.2803
-10.2671 -10.2665 -10.2424 -10.2419 -10.2343 -10.2343  -9.4874  -9.4874
 -7.2522  -7.2522  -7.2426  -7.2426  -7.2414  -7.2414  -1.0586  -1.0557
 -0.9379  -0.9301  -0.9213  -0.8687  -0.8667  -0.7769  -0.7527  -0.6670
 -0.6411  -0.5582  -0.5504  -0.5367  -0.4823  -0.4728  -0.4585  -0.4451
 -0.4401  -0.4295  -0.4103  -0.3977  -0.3963  -0.3775  -0.3757  -0.3654
 -0.3590  -0.3513  -0.3444  -0.3232  -0.3113  -0.2920  -0.2861  -0.2749
 -0.2076

 Beta MOs
 -- Occupied --
********-101.5730 -19.1169 -19.1168 -14.3320 -14.3320 -10.2798 -10.2798
-10.2667 -10.2660 -10.2399 -10.2394 -10.2348 -10.2348  -9.4874  -9.4874
 -7.2522  -7.2522  -7.2426  -7.2426  -7.2414  -7.2414  -1.0482  -1.0450
 -0.9355  -0.9281  -0.9196  -0.8680  -0.8608  -0.7749  -0.7432  -0.6630
 -0.6381  -0.5550  -0.5483  -0.5340  -0.4807  -0.4593  -0.4519  -0.4407
 -0.4386  -0.4083  -0.4052  -0.3957  -0.3942  -0.3708  -0.3644  -0.3613
 -0.3582  -0.3466  -0.3440  -0.3228  -0.2860  -0.2856  -0.2801  -0.2688

          Ground-State Mulliken Net Atomic Charges

     Atom                 Charge (a.u.)    Spin (a.u.)
  --------------------------------------------------------
      1 C                    -1.545826       0.007731
      2 C                     0.700186       0.018285
      3 C                     0.700607       0.018255
      4 C                    -1.546418       0.007776
      5 C                     1.973200       0.199087
      6 C                     1.972539       0.199202
      7 O                    -0.357333       0.233492
      8 O                    -0.357307       0.233518
      9 C                    -1.409460      -0.022000
     10 C                    -1.409563      -0.021970
     11 N                    -0.287590       0.064316
     12 N                    -0.287437       0.064291
     13 Cl                    0.427215      -0.000990
     14 Cl                    0.427188      -0.000992
  --------------------------------------------------------
  Sum of atomic charges =    -1.000000

                    Cartesian Multipole Moments
 -----------------------------------------------------------------
    Charge (ESU x 10^10)
                -4.8032
    Dipole Moment (Debye)
         X      -8.4914      Y      -0.0006      Z       0.0001
       Tot       8.4914
    Quadrupole Moments (Debye-Ang)
        XX    -138.3398     XY       0.0011     YY    -140.1330
        XZ      -0.0001     YZ       0.0014     ZZ     -92.0468

 Total job time:  35.42s(wall), 261.54s(cpu)
        *  Thank you very much for using Q-Chem.  Have a nice day.  *
