 Gaussian 16, Revision A.03,
 Gaussian 16:  ES64L-G16RevA.03 25-Dec-2016

 --------------------------------------
 #P UB3LYP/6-311++G(d,p) nosym opt freq
 --------------------------------------

 -------
 Reduced
 -------
 Symbolic Z-matrix:
 Charge = -2 Multiplicity = 1

 SCF Done:  E(UB3LYP) =  -1144.84405013     A.U. after   21 cycles
 SCF Done:  E(UB3LYP) =  -1144.84404992     A.U. after   11 cycles
 SCF Done:  E(UB3LYP) =  -1144.84405016     A.U. after   10 cycles
 SCF Done:  E(UB3LYP) =  -1144.84405017     A.U. after    9 cycles
 Optimization completed.
    -- Stationary point found.
 Normal termination of Gaussian 16 at Wed Dec 27 21:01:38 2023.

 ----------------------------------------------------------------------
 #P Geom=AllCheck Guess=TCheck SCRF=Check GenChk UB3LYP/6-311++G(d,p) F
 req
 ----------------------------------------------------------------------

 Structure from the checkpoint file:  "145-an.chk"
 -------
 Reduced
 -------
 Charge = -2 Multiplicity = 1

                          Input orientation:
 ---------------------------------------------------------------------
 Center     Atomic      Atomic             Coordinates (Angstroms)
 Number     Number       Type             X           Y           Z
 ---------------------------------------------------------------------
      1          6           0       -4.963123   -0.448077   -0.317434
      2          6           0       -3.632474   -0.378223    0.398401
      3          8           0       -3.383323   -0.951096    1.433588
      4          8           0       -2.575658   -1.853813   -1.453393
      5          6           0       -1.305377   -1.741544   -1.357512
      6          6           0       -0.431339   -2.676904   -1.958874
      7          6           0        0.963969   -2.587743   -1.856668
      8          6           0        1.555085   -1.576215   -1.144360
      9          8           0        2.974077   -1.493374   -1.216242
     10          6           0        3.720816   -1.817327   -0.146433
     11          6           0        5.098510   -1.206771   -0.281762
     12          8           0        3.380599   -2.528969    0.770087
     13          6           0        0.794736   -0.557749   -0.495951
     14          6           0        1.449866    0.525050    0.241658
     15          8           0        2.706845    0.588095    0.418852
     16          6           0        0.584144    1.563233    0.774906
     17          6           0        1.154212    2.662127    1.453121
     18          6           0        0.387460    3.687243    1.971488
     19          6           0       -1.025996    3.634220    1.821158
     20          6           0       -1.621029    2.577799    1.174828
     21          6           0       -0.848494    1.500625    0.629686
     22          6           0       -1.414640    0.414864   -0.035066
     23          8           0       -2.816620    0.483028   -0.242635
     24          6           0       -0.650406   -0.622705   -0.616090
     25          1           0       -4.795572   -1.067163   -1.201477
     26          1           0       -5.283163    0.546987   -0.639568
     27          1           0       -5.713197   -0.900677    0.333031
     28          1           0       -0.893324   -3.492596   -2.508453
     29          1           0        1.603334   -3.319353   -2.345239
     30          1           0        4.982728   -0.149511   -0.031271
     31          1           0        5.459439   -1.282806   -1.310971
     32          1           0        5.792881   -1.689746    0.407395
     33          1           0        2.235259    2.660988    1.547223
     34          1           0        0.852776    4.522457    2.489130
     35          1           0       -1.643799    4.433779    2.226055
     36          1           0       -2.699207    2.541866    1.068797
 ---------------------------------------------------------------------

 SCF Done:  E(UB3LYP) =  -1144.84405017     A.U. after    1 cycles

 Alpha  occ. eigenvalues --  -18.93294 -18.92730 -18.88631 -18.87925 -18.81234
 Alpha  occ. eigenvalues --  -18.79708 -10.08229 -10.07656  -9.97808  -9.97192
 Alpha  occ. eigenvalues --   -9.96969  -9.96921  -9.96570  -9.96466  -9.95503
 Alpha  occ. eigenvalues --   -9.94747  -9.94599  -9.94313  -9.94082  -9.93398
 Alpha  occ. eigenvalues --   -9.92942  -9.92638  -9.92465  -9.90148  -0.87585
 Alpha  occ. eigenvalues --   -0.87029  -0.79672  -0.79095  -0.73647  -0.71796
 Alpha  occ. eigenvalues --   -0.62773  -0.59512  -0.56414  -0.54032  -0.53408
 Alpha  occ. eigenvalues --   -0.52098  -0.49745  -0.47730  -0.45079  -0.39989
 Alpha  occ. eigenvalues --   -0.38665  -0.37870  -0.37224  -0.33200  -0.30120
 Alpha  occ. eigenvalues --   -0.29759  -0.27697  -0.27044  -0.25996  -0.25468
 Alpha  occ. eigenvalues --   -0.25308  -0.24658  -0.23463  -0.22662  -0.22105
 Alpha  occ. eigenvalues --   -0.21970  -0.21075  -0.20090  -0.19902  -0.19861
 Alpha  occ. eigenvalues --   -0.17931  -0.16736  -0.16503  -0.16007  -0.15624
 Alpha  occ. eigenvalues --   -0.15264  -0.14449  -0.14036  -0.12909  -0.11805
 Alpha  occ. eigenvalues --   -0.11314  -0.10849  -0.10152  -0.08693  -0.07532
 Alpha  occ. eigenvalues --   -0.06079  -0.05883  -0.04973  -0.04801  -0.02288
 Alpha  occ. eigenvalues --   -0.00235   0.01235   0.03118   0.04609   0.09645
 Alpha virt. eigenvalues --    0.15002   0.15216   0.15692   0.16993   0.17575
 Alpha virt. eigenvalues --    0.18486   0.18556   0.18957   0.19447   0.19588
 Alpha virt. eigenvalues --    0.20683   0.21242   0.21453   0.22454   0.22747

  Beta  occ. eigenvalues --  -18.93294 -18.92730 -18.88631 -18.87925 -18.81234
  Beta  occ. eigenvalues --  -18.79708 -10.08229 -10.07656  -9.97808  -9.97192
  Beta  occ. eigenvalues --   -9.96969  -9.96921  -9.96570  -9.96466  -9.95503
  Beta  occ. eigenvalues --   -9.94747  -9.94599  -9.94313  -9.94082  -9.93398
  Beta  occ. eigenvalues --   -9.92942  -9.92638  -9.92465  -9.90148  -0.87585
  Beta  occ. eigenvalues --   -0.87029  -0.79672  -0.79095  -0.73647  -0.71796
  Beta  occ. eigenvalues --   -0.62773  -0.59512  -0.56414  -0.54032  -0.53408
  Beta  occ. eigenvalues --   -0.52098  -0.49745  -0.47730  -0.45079  -0.39989
  Beta  occ. eigenvalues --   -0.38665  -0.37870  -0.37224  -0.33200  -0.30120
  Beta  occ. eigenvalues --   -0.29759  -0.27697  -0.27044  -0.25996  -0.25468
  Beta  occ. eigenvalues --   -0.25308  -0.24658  -0.23463  -0.22662  -0.22105
  Beta  occ. eigenvalues --   -0.21970  -0.21075  -0.20090  -0.19902  -0.19861
  Beta  occ. eigenvalues --   -0.17931  -0.16736  -0.16503  -0.16007  -0.15624
  Beta  occ. eigenvalues --   -0.15264  -0.14449  -0.14036  -0.12909  -0.11805
  Beta  occ. eigenvalues --   -0.11314  -0.10849  -0.10152  -0.08693  -0.07532
  Beta  occ. eigenvalues --   -0.06079  -0.05883  -0.04973  -0.04801  -0.02288
  Beta  occ. eigenvalues --   -0.00235   0.01235   0.03118   0.04609   0.09645
  Beta virt. eigenvalues --    0.15002   0.15216   0.15692   0.16993   0.17575
  Beta virt. eigenvalues --    0.18486   0.18556   0.18957   0.19447   0.19588
  Beta virt. eigenvalues --    0.20683   0.21242   0.21453   0.22454   0.22747

 Mulliken charges and spin densities:
               1          2
     1  C   -0.472845  -0.000000
     2  C   -0.036482   0.000000
     3  O   -0.234766  -0.000000
     4  O   -0.472843  -0.000000
     5  C   -0.713554   0.000000
     6  C   -0.055048  -0.000000
     7  C    0.285308  -0.000000
     8  C   -0.645461  -0.000000
     9  O   -0.000908   0.000000
    10  C   -0.026985   0.000000
    11  C   -0.454605  -0.000000
    12  O   -0.249075   0.000000
    13  C    0.597937   0.000000
    14  C   -0.487027  -0.000000
    15  O   -0.432982  -0.000000
    16  C    0.517833   0.000000
    17  C    0.017316  -0.000000
    18  C   -0.437351   0.000000
    19  C   -0.542916  -0.000000
    20  C   -0.050608  -0.000000
    21  C    0.426370  -0.000000
    22  C   -0.572638  -0.000000
    23  O   -0.016789  -0.000000
    24  C    0.643645   0.000000
    25  H    0.205485  -0.000000
    26  H    0.107225   0.000000
    27  H    0.104503   0.000000
    28  H    0.086619  -0.000000
    29  H    0.096075  -0.000000
    30  H    0.199600   0.000000
    31  H    0.114707   0.000000
    32  H    0.104256  -0.000000
    33  H    0.124253   0.000000
    34  H    0.086269   0.000000
    35  H    0.091582  -0.000000
    36  H    0.093901   0.000000
 Sum of Mulliken charges =  -2.00000  -0.00000

 Dipole moment (field-independent basis, Debye):
    X=              0.7301    Y=              4.8962    Z=             -0.9565  Tot=              5.0419
 Quadrupole moment (field-independent basis, Debye-Ang):
   XX=           -205.7006   YY=           -193.6897   ZZ=           -171.6639
   XY=             -4.4848   XZ=             -5.7924   YZ=            -12.1131

  Exact polarizability: 345.984  -8.773 335.208   5.656  99.668 222.548
 Approx polarizability: 547.581  -3.595 547.760  15.860 165.110 372.751

                      1                      2                      3
                      A                      A                      A
 Frequencies --     32.3077                40.5934                54.5134
 Red. masses --      7.9055                 7.1284                 6.4537
 Frc consts  --      0.0049                 0.0069                 0.0113
 IR Inten    --      3.5207                 0.1405                 0.1546

                      4                      5                      6
                      A                      A                      A
 Frequencies --     75.2359                78.7484               100.1871
 Red. masses --      6.1632                 6.1947                 5.7487
 Frc consts  --      0.0206                 0.0226                 0.0340
 IR Inten    --      5.2313                 2.6188                 2.5284

                      7                      8                      9
                      A                      A                      A
 Frequencies --    107.4424               123.5222               126.9328
 Red. masses --      3.3372                 1.5675                 1.7975
 Frc consts  --      0.0227                 0.0141                 0.0171
 IR Inten    --      7.5534                 2.0266                 1.6438

                     10                     11                     12
                      A                      A                      A
 Frequencies --    133.1643               143.4275               149.0332
 Red. masses --      1.0869                 5.1164                 6.9053
 Frc consts  --      0.0114                 0.0620                 0.0904
 IR Inten    --      0.3502                 0.3199                 3.9460

                     13                     14                     15
                      A                      A                      A
 Frequencies --    194.3372               217.1276               262.1535
 Red. masses --      7.3647                 5.9438                 6.6565
 Frc consts  --      0.1639                 0.1651                 0.2695
 IR Inten    --      1.7062                 1.6759                 0.4921

                     16                     17                     18
                      A                      A                      A
 Frequencies --    286.9963               307.0117               324.8410
 Red. masses --      4.8828                 4.7358                 7.5778
 Frc consts  --      0.2370                 0.2630                 0.4711
 IR Inten    --      4.3377                 4.8753                 2.9304

                     19                     20                     21
                      A                      A                      A
 Frequencies --    347.3475               363.1595               366.0267
 Red. masses --      5.7875                 6.0264                 9.1645
 Frc consts  --      0.4114                 0.4683                 0.7234
 IR Inten    --      9.1499                 1.4458                 0.8757

                     22                     23                     24
                      A                      A                      A
 Frequencies --    388.5148               396.6904               436.3028
 Red. masses --      9.0882                 7.5187                 5.3438
 Frc consts  --      0.8082                 0.6971                 0.5993
 IR Inten    --      0.4171                 0.8269                 1.2830

                     25                     26                     27
                      A                      A                      A
 Frequencies --    443.4677               498.9421               504.1838
 Red. masses --      3.8130                 6.4660                 5.0346
 Frc consts  --      0.4418                 0.9484                 0.7540
 IR Inten    --      2.8518                34.0135                 6.0714

                     28                     29                     30
                      A                      A                      A
 Frequencies --    510.1239               526.9996               548.9102
 Red. masses --      4.8182                 5.2369                 3.1594
 Frc consts  --      0.7387                 0.8569                 0.5609
 IR Inten    --     14.6232                 0.3749                 9.2931

                     31                     32                     33
                      A                      A                      A
 Frequencies --    564.8088               575.5528               589.4172
 Red. masses --      3.2035                 3.4888                 5.2921
 Frc consts  --      0.6021                 0.6809                 1.0832
 IR Inten    --      8.3098                26.6062                 1.4804

                     34                     35                     36
                      A                      A                      A
 Frequencies --    595.6128               641.9626               659.0114
 Red. masses --      5.1372                 6.0844                 4.9896
 Frc consts  --      1.0738                 1.4774                 1.2767
 IR Inten    --      1.0606                 4.2037                 5.5196

                     37                     38                     39
                      A                      A                      A
 Frequencies --    683.9240               703.4460               706.7418
 Red. masses --      5.8720                 2.1580                 3.1897
 Frc consts  --      1.6183                 0.6291                 0.9387
 IR Inten    --      6.0545                20.9837                 9.1923

                     40                     41                     42
                      A                      A                      A
 Frequencies --    722.7963               739.0265               764.8344
 Red. masses --      3.4681                 1.9750                 4.9251
 Frc consts  --      1.0675                 0.6355                 1.6975
 IR Inten    --      9.5193                45.9621                30.1391

                     43                     44                     45
                      A                      A                      A
 Frequencies --    792.8375               803.3917               818.3722
 Red. masses --      2.3336                 2.8654                 3.9568
 Frc consts  --      0.8642                 1.0897                 1.5614
 IR Inten    --      2.5695                24.1944                 7.4851

                     46                     47                     48
                      A                      A                      A
 Frequencies --    834.8926               859.5993               869.6158
 Red. masses --      4.5315                 2.2433                 2.9580
 Frc consts  --      1.8610                 0.9766                 1.3180
 IR Inten    --     58.3477                11.4204                21.3426

                     49                     50                     51
                      A                      A                      A
 Frequencies --    914.3583               923.7440               935.6257
 Red. masses --      6.3784                 6.4105                 1.2621
 Frc consts  --      3.1419                 3.2229                 0.6510
 IR Inten    --     19.1659                 6.0235                 0.4638

                     52                     53                     54
                      A                      A                      A
 Frequencies --    947.8776               964.2852              1009.9544
 Red. masses --      5.5563                 1.3129                 1.8209
 Frc consts  --      2.9413                 0.7193                 1.0943
 IR Inten    --      7.5991                 1.1941                13.0279

                     55                     56                     57
                      A                      A                      A
 Frequencies --   1019.3770              1025.8096              1041.4272
 Red. masses --      2.4598                 1.8007                 1.7897
 Frc consts  --      1.5060                 1.1164                 1.1437
 IR Inten    --     28.7983                98.5277                 1.6615

                     58                     59                     60
                      A                      A                      A
 Frequencies --   1046.2367              1059.8734              1079.5463
 Red. masses --      1.7745                 2.4974                 2.7854
 Frc consts  --      1.1444                 1.6529                 1.9126
 IR Inten    --     53.5463                97.8139                66.2857

                     61                     62                     63
                      A                      A                      A
 Frequencies --   1121.4110              1147.2320              1155.9374
 Red. masses --      1.6335                 2.0028                 1.5300
 Frc consts  --      1.2103                 1.5531                 1.2045
 IR Inten    --     47.9862                38.3170                23.6303

                     64                     65                     66
                      A                      A                      A
 Frequencies --   1195.0817              1210.4404              1240.2657
 Red. masses --      2.1673                 2.7763                 3.7391
 Frc consts  --      1.8237                 2.3967                 3.3888
 IR Inten    --     12.0740                84.9610               414.8914

                     67                     68                     69
                      A                      A                      A
 Frequencies --   1248.5551              1257.8127              1282.0769
 Red. masses --      3.8599                 2.1362                 5.5778
 Frc consts  --      3.5452                 1.9912                 5.4018
 IR Inten    --    326.8819                60.4936                38.4846

                     70                     71                     72
                      A                      A                      A
 Frequencies --   1302.8943              1332.6830              1357.5455
 Red. masses --      6.2978                 2.7226                 1.4078
 Frc consts  --      6.2988                 2.8490                 1.5287
 IR Inten    --      2.8964               217.5707               236.1315

                     73                     74                     75
                      A                      A                      A
 Frequencies --   1359.7780              1364.8134              1396.0957
 Red. masses --      1.8061                 2.4310                 5.3330
 Frc consts  --      1.9676                 2.6680                 6.1242
 IR Inten    --    150.8867                16.3124               140.8435

                     76                     77                     78
                      A                      A                      A
 Frequencies --   1422.5434              1448.9831              1463.7812
 Red. masses --      2.9477                 4.5330                 1.1040
 Frc consts  --      3.5146                 5.6074                 1.3937
 IR Inten    --    149.5479                45.1256                21.4855

                     79                     80                     81
                      A                      A                      A
 Frequencies --   1465.6297              1477.4003              1482.1945
 Red. masses --      1.1397                 2.6337                 1.0763
 Frc consts  --      1.4424                 3.3870                 1.3931
 IR Inten    --     25.5767               202.9741                 9.1982

                     82                     83                     84
                      A                      A                      A
 Frequencies --   1483.7133              1504.5258              1537.0607
 Red. masses --      1.0615                 7.2481                 6.3136
 Frc consts  --      1.3768                 9.6666                 8.7885
 IR Inten    --     12.5078               690.4461               392.6696

                     85                     86                     87
                      A                      A                      A
 Frequencies --   1538.8442              1571.4460              1595.3440
 Red. masses --      6.4997                 6.3883                 6.6323
 Frc consts  --      9.0684                 9.2947                 9.9454
 IR Inten    --     39.8109               163.2235                66.9805

                     88                     89                     90
                      A                      A                      A
 Frequencies --   1620.5763              1769.6171              1773.3157
 Red. masses --      6.4677                11.3204                11.3200
 Frc consts  --     10.0078                20.8867                20.9733
 IR Inten    --     40.0757                59.2829               544.4372

                     91                     92                     93
                      A                      A                      A
 Frequencies --   3026.5805              3028.7726              3098.7630
 Red. masses --      1.0339                 1.0332                 1.0998
 Frc consts  --      5.5802                 5.5842                 6.2220
 IR Inten    --     77.0552                62.2612                28.8403

                     94                     95                     96
                      A                      A                      A
 Frequencies --   3100.8562              3102.5898              3117.8406
 Red. masses --      1.1004                 1.0836                 1.0853
 Frc consts  --      6.2340                 6.1459                 6.2159
 IR Inten    --     22.7661                38.8063                51.1276

                     97                     98                     99
                      A                      A                      A
 Frequencies --   3119.5203              3121.0865              3128.0842
 Red. masses --      1.1037                 1.1034                 1.0900
 Frc consts  --      6.3284                 6.3327                 6.2841
 IR Inten    --     18.7408                13.9990                93.9121

                    100                    101                    102
                      A                      A                      A
 Frequencies --   3142.6607              3166.4891              3172.8868
 Red. masses --      1.0925                 1.0909                 1.0910
 Frc consts  --      6.3573                 6.4443                 6.4713
 IR Inten    --     99.1162                34.4196                41.2460

 - Thermochemistry -
 -------------------
 Temperature   298.150 Kelvin.  Pressure   1.00000 Atm.
 Atom     1 has atomic number  6 and mass  12.00000

 Molecular mass:   324.06339 amu.
 Principal axes and moments of inertia in atomic units:
                           1         2         3
     Eigenvalues --  5256.129658551.71650**********
           X            0.95522   0.29326  -0.03944
           Y           -0.27653   0.83726  -0.47173
           Z           -0.10532   0.46151   0.88086
 This molecule is an asymmetric top.
 Rotational symmetry number  1.
 Warning -- assumption of classical behavior for rotation
           may cause significant error
 Rotational temperatures (Kelvin)      0.01648     0.01013     0.00673
 Rotational constants (GHZ):           0.34336     0.21104     0.14018
 Zero-point vibrational energy     672516.2 (Joules/Mol)
                                  160.73523 (Kcal/Mol)
 Warning -- explicit consideration of  34 degrees of freedom as
           vibrations may cause significant error
 Vibrational temperatures:     46.48    58.40    78.43   108.25   113.30
          (Kelvin)            144.15   154.59   177.72   182.63   191.59
                              206.36   214.43   279.61   312.40   377.18
                              412.92   441.72   467.37   499.76   522.51
                              526.63   558.99   570.75   627.74   638.05
                              717.87   725.41   733.95   758.23   789.76
                              812.63   828.09   848.04   856.95   923.64
                              948.17   984.01  1012.10  1016.84  1039.94
                             1063.29  1100.43  1140.72  1155.90  1177.46
                             1201.22  1236.77  1251.18  1315.56  1329.06
                             1346.16  1363.78  1387.39  1453.10  1466.66
                             1475.91  1498.38  1505.30  1524.92  1553.23
                             1613.46  1650.61  1663.14  1719.46  1741.55
                             1784.47  1796.39  1809.71  1844.62  1874.57
                             1917.43  1953.21  1956.42  1963.66  2008.67
                             2046.72  2084.76  2106.05  2108.71  2125.65
                             2132.55  2134.73  2164.68  2211.49  2214.05
                             2260.96  2295.34  2331.65  2546.08  2551.41
                             4354.57  4357.73  4458.43  4461.44  4463.93
                             4485.88  4488.29  4490.55  4500.62  4521.59
                             4555.87  4565.08

 Zero-point correction=                           0.256148 (Hartree/Particle)
 Thermal correction to Energy=                    0.276732
 Thermal correction to Enthalpy=                  0.277676
 Thermal correction to Gibbs Free Energy=         0.206423
 Sum of electronic and zero-point Energies=          -1144.587902
 Sum of electronic and thermal Energies=             -1144.567318
 Sum of electronic and thermal Enthalpies=           -1144.566374
 Sum of electronic and thermal Free Energies=        -1144.637627

                     E (Thermal)             CV                S
                      KCal/Mol        Cal/Mol-Kelvin    Cal/Mol-Kelvin
 Total                  173.652             78.886            149.964
 Electronic               0.000              0.000              0.000
 Translational            0.889              2.981             43.223
 Rotational               0.889              2.981             34.714
 Vibrational            171.874             72.925             72.027
 Vibration     1          0.594              1.983              5.682
 Vibration     2          0.594              1.981              5.230
 Vibration     3          0.596              1.976              4.647
 Vibration     4          0.599              1.966              4.011
 Vibration     5          0.600              1.963              3.922
 Vibration     6          0.604              1.949              3.451
 Vibration     7          0.606              1.943              3.315
 Vibration     8          0.610              1.929              3.045
 Vibration     9          0.611              1.926              2.992
 Vibration    10          0.613              1.920              2.900
 Vibration    11          0.616              1.910              2.758
 Vibration    12          0.618              1.904              2.685
 Vibration    13          0.635              1.848              2.186
 Vibration    14          0.646              1.815              1.983
 Vibration    15          0.669              1.742              1.647
 Vibration    16          0.684              1.698              1.492
 Vibration    17          0.697              1.660              1.378
 Vibration    18          0.709              1.626              1.286
 Vibration    19          0.725              1.581              1.178
 Vibration    20          0.737              1.548              1.109
 Vibration    21          0.739              1.542              1.096
 Vibration    22          0.757              1.495              1.006
 Vibration    23          0.763              1.477              0.975
 Vibration    24          0.797              1.391              0.838
 Vibration    25          0.803              1.375              0.816
 Vibration    26          0.854              1.252              0.661
 Vibration    27          0.859              1.241              0.648
 Vibration    28          0.865              1.228              0.633
 Vibration    29          0.882              1.190              0.594
 Vibration    30          0.904              1.142              0.546
 Vibration    31          0.921              1.107              0.514
 Vibration    32          0.932              1.084              0.494
 Vibration    33          0.947              1.054              0.468
 Vibration    34          0.953              1.041              0.457

                           ! Non-Optimized Parameters !
 Normal termination of Gaussian 16 at Wed Dec 27 22:17:58 2023.
