 Gaussian 16, Revision A.03,
 Gaussian 16:  ES64L-G16RevA.03 25-Dec-2016

 ----------------------------------------------------------------
 #P UB3LYP/6-311++G(d,p) SCRF=(PCM,Solvent=n,n-DiMethylFormamide)
 ----------------------------------------------------------------

 -------
 Reduced
 -------
 Symbolic Z-matrix:
 Charge = -2 Multiplicity = 1

                         Standard orientation:
 ---------------------------------------------------------------------
 Center     Atomic      Atomic             Coordinates (Angstroms)
 Number     Number       Type             X           Y           Z
 ---------------------------------------------------------------------
      1          6           0       -4.650742   -1.802415    0.063387
      2          6           0       -3.466687   -1.033913    0.606844
      3          8           0       -3.178922   -0.962626    1.779013
      4          8           0       -1.872025   -2.832877   -0.364830
      5          6           0       -0.694640   -2.334086   -0.384399
      6          6           0        0.454046   -3.150464   -0.504916
      7          6           0        1.756779   -2.632678   -0.512958
      8          6           0        1.980348   -1.285553   -0.389423
      9          8           0        3.325028   -0.847278   -0.548548
     10          6           0        4.019390   -0.410066    0.516235
     11          6           0        5.189537    0.429659    0.052823
     12          8           0        3.791590   -0.677390    1.673316
     13          6           0        0.913587   -0.345372   -0.271449
     14          6           0        1.176848    1.091440   -0.161994
     15          8           0        2.346471    1.582969   -0.086176
     16          6           0        0.015456    1.964761   -0.150460
     17          6           0        0.198894    3.363355   -0.097484
     18          6           0       -0.862667    4.246850   -0.096795
     19          6           0       -2.187615    3.731863   -0.147489
     20          6           0       -2.409567    2.376641   -0.191553
     21          6           0       -1.325819    1.438672   -0.191350
     22          6           0       -1.510375    0.058464   -0.238865
     23          8           0       -2.851016   -0.378225   -0.397806
     24          6           0       -0.441570   -0.865316   -0.288666
     25          1           0       -4.235190   -2.685150   -0.427498
     26          1           0       -5.191450   -1.208207   -0.678839
     27          1           0       -5.313804   -2.092297    0.880013
     28          1           0        0.285331   -4.221077   -0.583285
     29          1           0        2.614654   -3.292236   -0.621469
     30          1           0        4.770119    1.400110   -0.223336
     31          1           0        5.659548   -0.010232   -0.830867
     32          1           0        5.914716    0.541699    0.860235
     33          1           0        1.225522    3.712555   -0.057312
     34          1           0       -0.692768    5.319938   -0.055905
     35          1           0       -3.034592    4.415634   -0.145647
     36          1           0       -3.422311    1.991612   -0.224761
 ---------------------------------------------------------------------

 SCF Done:  E(UB3LYP) =  -1145.09153066     A.U. after   16 cycles

 The electronic state is 1-A.
 Alpha  occ. eigenvalues --  -19.15146 -19.14861 -19.10365 -19.10110 -19.03946
 Alpha  occ. eigenvalues --  -19.02978 -10.29558 -10.29396 -10.20414 -10.19561
 Alpha  occ. eigenvalues --  -10.19533 -10.19390 -10.16256 -10.16196 -10.16186
 Alpha  occ. eigenvalues --  -10.16154 -10.15942 -10.15835 -10.15637 -10.15627
 Alpha  occ. eigenvalues --  -10.15508 -10.14820 -10.14655 -10.12684  -1.09432
 Alpha  occ. eigenvalues --   -1.09208  -1.01533  -1.01340  -0.96503  -0.95206
 Alpha  occ. eigenvalues --   -0.84606  -0.81866  -0.78143  -0.74616  -0.74260
 Alpha  occ. eigenvalues --   -0.73091  -0.71860  -0.69629  -0.66819  -0.61877
 Alpha  occ. eigenvalues --   -0.60621  -0.59599  -0.59074  -0.54928  -0.51958
 Alpha  occ. eigenvalues --   -0.51358  -0.49148  -0.48438  -0.47403  -0.46902
 Alpha  occ. eigenvalues --   -0.46747  -0.45952  -0.45311  -0.44316  -0.43584
 Alpha  occ. eigenvalues --   -0.43085  -0.42190  -0.41035  -0.40392  -0.40084
 Alpha  occ. eigenvalues --   -0.39463  -0.38814  -0.38175  -0.37435  -0.37188
 Alpha  occ. eigenvalues --   -0.36839  -0.36495  -0.35649  -0.35468  -0.34144
 Alpha  occ. eigenvalues --   -0.33480  -0.33250  -0.31919  -0.30878  -0.29823
 Alpha  occ. eigenvalues --   -0.28757  -0.27828  -0.27226  -0.27034  -0.24039
 Alpha  occ. eigenvalues --   -0.22676  -0.21638  -0.20082  -0.18355  -0.13109
 Alpha virt. eigenvalues --   -0.03247  -0.00459  -0.00082   0.00545   0.00727
 Alpha virt. eigenvalues --    0.01235   0.01513   0.01868   0.02615   0.02785
 Alpha virt. eigenvalues --    0.03168   0.03789   0.04022   0.04202   0.04531

  Beta  occ. eigenvalues --  -19.15146 -19.14861 -19.10365 -19.10110 -19.03946
  Beta  occ. eigenvalues --  -19.02978 -10.29558 -10.29396 -10.20414 -10.19561
  Beta  occ. eigenvalues --  -10.19533 -10.19390 -10.16256 -10.16196 -10.16186
  Beta  occ. eigenvalues --  -10.16154 -10.15942 -10.15835 -10.15637 -10.15627
  Beta  occ. eigenvalues --  -10.15508 -10.14820 -10.14655 -10.12684  -1.09432
  Beta  occ. eigenvalues --   -1.09208  -1.01533  -1.01340  -0.96503  -0.95206
  Beta  occ. eigenvalues --   -0.84606  -0.81866  -0.78143  -0.74616  -0.74260
  Beta  occ. eigenvalues --   -0.73091  -0.71860  -0.69629  -0.66819  -0.61877
  Beta  occ. eigenvalues --   -0.60621  -0.59599  -0.59074  -0.54928  -0.51958
  Beta  occ. eigenvalues --   -0.51358  -0.49148  -0.48438  -0.47403  -0.46902
  Beta  occ. eigenvalues --   -0.46747  -0.45952  -0.45311  -0.44316  -0.43584
  Beta  occ. eigenvalues --   -0.43085  -0.42190  -0.41035  -0.40392  -0.40084
  Beta  occ. eigenvalues --   -0.39463  -0.38814  -0.38175  -0.37435  -0.37188
  Beta  occ. eigenvalues --   -0.36839  -0.36495  -0.35649  -0.35468  -0.34144
  Beta  occ. eigenvalues --   -0.33480  -0.33250  -0.31919  -0.30878  -0.29823
  Beta  occ. eigenvalues --   -0.28757  -0.27828  -0.27226  -0.27034  -0.24039
  Beta  occ. eigenvalues --   -0.22676  -0.21638  -0.20082  -0.18355  -0.13109
  Beta virt. eigenvalues --   -0.03247  -0.00459  -0.00082   0.00545   0.00727
  Beta virt. eigenvalues --    0.01235   0.01513   0.01868   0.02615   0.02785
  Beta virt. eigenvalues --    0.03168   0.03789   0.04022   0.04202   0.04531

 Mulliken charges and spin densities:
               1          2
     1  C   -0.470900  -0.000000
     2  C    0.088689  -0.000000
     3  O   -0.320992   0.000000
     4  O   -0.588264  -0.000000
     5  C   -0.443168   0.000000
     6  C   -0.202796  -0.000000
     7  C    0.173622  -0.000000
     8  C   -0.701559   0.000000
     9  O   -0.018740  -0.000000
    10  C    0.086116   0.000000
    11  C   -0.457645  -0.000000
    12  O   -0.328029  -0.000000
    13  C    0.543940  -0.000000
    14  C   -0.387468   0.000000
    15  O   -0.526884   0.000000
    16  C    0.426320  -0.000000
    17  C   -0.004898  -0.000000
    18  C   -0.442479  -0.000000
    19  C   -0.559298  -0.000000
    20  C   -0.069443   0.000000
    21  C    0.336396  -0.000000
    22  C   -0.650144   0.000000
    23  O   -0.031272  -0.000000
    24  C    0.579080   0.000000
    25  H    0.200374   0.000000
    26  H    0.155444   0.000000
    27  H    0.151544   0.000000
    28  H    0.146389  -0.000000
    29  H    0.169822   0.000000
    30  H    0.196392  -0.000000
    31  H    0.163291  -0.000000
    32  H    0.150959   0.000000
    33  H    0.145126   0.000000
    34  H    0.168212  -0.000000
    35  H    0.173146   0.000000
    36  H    0.149116   0.000000
 Sum of Mulliken charges =  -2.00000  -0.00000

 Dipole moment (field-independent basis, Debye):
    X=             -0.8395    Y=              5.3790    Z=             -3.5332  Tot=              6.4901
 Quadrupole moment (field-independent basis, Debye-Ang):
   XX=           -178.7266   YY=           -185.7635   ZZ=           -166.2500
   XY=            -13.9920   XZ=             -2.4681   YZ=              2.1713

 Normal termination of Gaussian 16 at Sun Jan 14 01:33:47 2024.
