 Gaussian 16, Revision A.03,
 Gaussian 16:  ES64L-G16RevA.03 25-Dec-2016

 --------------------------------------
 #P UB3LYP/6-311++G(d,p) nosym opt freq
 --------------------------------------

 --------
 Oxidized
 --------
 Symbolic Z-matrix:
 Charge =  0 Multiplicity = 1

 SCF Done:  E(UB3LYP) =  -918.066509819     A.U. after   15 cycles
 SCF Done:  E(UB3LYP) =  -918.069923848     A.U. after   13 cycles
 SCF Done:  E(UB3LYP) =  -918.070124634     A.U. after   12 cycles
 SCF Done:  E(UB3LYP) =  -918.070134228     A.U. after   10 cycles
 SCF Done:  E(UB3LYP) =  -918.070134880     A.U. after    9 cycles
 SCF Done:  E(UB3LYP) =  -918.070135404     A.U. after    9 cycles
 Optimization completed.
    -- Stationary point found.
 Normal termination of Gaussian 16 at Thu Dec 21 05:58:18 2023.

 ----------------------------------------------------------------------
 #P Geom=AllCheck Guess=TCheck SCRF=Check GenChk UB3LYP/6-311++G(d,p) F
 req
 ----------------------------------------------------------------------

 Structure from the checkpoint file:  "142.chk"
 --------
 Oxidized
 --------
 Charge =  0 Multiplicity = 1

                          Input orientation:
 ---------------------------------------------------------------------
 Center     Atomic      Atomic             Coordinates (Angstroms)
 Number     Number       Type             X           Y           Z
 ---------------------------------------------------------------------
      1          6           0       -3.261707    3.662073    0.083097
      2          6           0       -4.506461    3.024719    0.088230
      3          6           0       -4.571774    1.623791    0.064577
      4          6           0       -2.091655    2.913471    0.054635
      5          6           0       -2.148124    1.504444    0.030690
      6          6           0       -3.396929    0.881623    0.036156
      7          6           0       -0.781730    3.633880    0.050045
      8          6           0        0.457030    2.797559    0.019428
      9          6           0        0.384592    1.389258   -0.004234
     10          6           0       -0.917140    0.673070    0.000072
     11          6           0        1.690581    3.436748    0.014625
     12          6           0        2.871960    2.688942   -0.013759
     13          6           0        2.809074    1.287901   -0.037452
     14          6           0        1.571335    0.655568   -0.032451
     15          8           0       -0.726101    4.851442    0.070684
     16          8           0       -0.972997   -0.549649   -0.020381
     17          1           0       -3.431275   -0.200935    0.017698
     18          1           0        1.506633   -0.425603   -0.050539
     19          1           0       -3.209130    4.743162    0.101308
     20          1           0        1.736989    4.518120    0.032930
     21          8           0        4.024252    3.405026   -0.016266
     22          6           0        5.268726    2.712286   -0.042804
     23          8           0       -5.588573    3.842513    0.116858
     24          1           0        3.710568    0.690659   -0.059643
     25          1           0        6.035272    3.484693   -0.038358
     26          1           0        5.367641    2.107128   -0.949716
     27          1           0        5.388487    2.076079    0.840016
     28          6           0       -6.891154    3.265821    0.121070
     29          1           0       -5.524043    1.110930    0.068175
     30          1           0       -7.583953    4.104723    0.143400
     31          1           0       -7.046942    2.641991    1.007108
     32          1           0       -7.066563    2.673356   -0.782639
 ---------------------------------------------------------------------

 SCF Done:  E(UB3LYP) =  -918.070135404     A.U. after    1 cycles

 Alpha  occ. eigenvalues --  -19.17545 -19.17545 -19.12172 -19.11165 -10.27402
 Alpha  occ. eigenvalues --  -10.26649 -10.26021 -10.26021 -10.24148 -10.24148
 Alpha  occ. eigenvalues --  -10.20466 -10.20465 -10.19758 -10.19758 -10.19666
 Alpha  occ. eigenvalues --  -10.19666 -10.19563 -10.19562 -10.19034 -10.19034
 Alpha  occ. eigenvalues --   -1.09163  -1.09162  -1.05605  -1.04534  -0.88854
 Alpha  occ. eigenvalues --   -0.87781  -0.80903  -0.78323  -0.78302  -0.77115
 Alpha  occ. eigenvalues --   -0.73185  -0.72050  -0.67966  -0.65840  -0.63078
 Alpha  occ. eigenvalues --   -0.61911  -0.58476  -0.56557  -0.56454  -0.52528
 Alpha  occ. eigenvalues --   -0.52465  -0.51360  -0.49539  -0.49084  -0.49055
 Alpha  occ. eigenvalues --   -0.47557  -0.46066  -0.44985  -0.44807  -0.44572
 Alpha  occ. eigenvalues --   -0.44412  -0.43981  -0.42678  -0.41855  -0.40602
 Alpha  occ. eigenvalues --   -0.40417  -0.40302  -0.38781  -0.38652  -0.38057
 Alpha  occ. eigenvalues --   -0.35180  -0.34955  -0.34526  -0.33194  -0.28010
 Alpha  occ. eigenvalues --   -0.27844  -0.27508  -0.26236  -0.25100  -0.24382
 Alpha virt. eigenvalues --   -0.10527  -0.06779  -0.02758  -0.01813  -0.01476
 Alpha virt. eigenvalues --   -0.01369   0.00839   0.01076   0.01222   0.02180
 Alpha virt. eigenvalues --    0.02377   0.02551   0.03249   0.03735   0.03940

  Beta  occ. eigenvalues --  -19.17545 -19.17545 -19.12172 -19.11165 -10.27402
  Beta  occ. eigenvalues --  -10.26649 -10.26021 -10.26021 -10.24148 -10.24148
  Beta  occ. eigenvalues --  -10.20466 -10.20465 -10.19758 -10.19758 -10.19666
  Beta  occ. eigenvalues --  -10.19666 -10.19563 -10.19562 -10.19034 -10.19034
  Beta  occ. eigenvalues --   -1.09163  -1.09162  -1.05605  -1.04534  -0.88854
  Beta  occ. eigenvalues --   -0.87781  -0.80903  -0.78323  -0.78302  -0.77115
  Beta  occ. eigenvalues --   -0.73185  -0.72050  -0.67966  -0.65840  -0.63078
  Beta  occ. eigenvalues --   -0.61911  -0.58476  -0.56557  -0.56454  -0.52528
  Beta  occ. eigenvalues --   -0.52465  -0.51360  -0.49539  -0.49084  -0.49055
  Beta  occ. eigenvalues --   -0.47557  -0.46066  -0.44985  -0.44807  -0.44572
  Beta  occ. eigenvalues --   -0.44412  -0.43981  -0.42678  -0.41855  -0.40602
  Beta  occ. eigenvalues --   -0.40417  -0.40302  -0.38781  -0.38652  -0.38057
  Beta  occ. eigenvalues --   -0.35180  -0.34955  -0.34526  -0.33194  -0.28010
  Beta  occ. eigenvalues --   -0.27844  -0.27508  -0.26236  -0.25100  -0.24382
  Beta virt. eigenvalues --   -0.10527  -0.06779  -0.02758  -0.01813  -0.01476
  Beta virt. eigenvalues --   -0.01369   0.00839   0.01076   0.01222   0.02180
  Beta virt. eigenvalues --    0.02377   0.02551   0.03249   0.03735   0.03940

 Mulliken charges and spin densities:
               1          2
     1  C   -0.472774  -0.000000
     2  C   -0.770305   0.000000
     3  C    0.137754  -0.000000
     4  C    0.848527  -0.000000
     5  C    0.523153   0.000000
     6  C    0.079124  -0.000000
     7  C   -0.861912   0.000000
     8  C    0.848216   0.000000
     9  C    0.523410   0.000000
    10  C   -0.598109   0.000000
    11  C   -0.472881  -0.000000
    12  C   -0.770291   0.000000
    13  C    0.137621   0.000000
    14  C    0.079264  -0.000000
    15  O   -0.200854  -0.000000
    16  O   -0.234844  -0.000000
    17  H    0.187046  -0.000000
    18  H    0.187044   0.000000
    19  H    0.202979  -0.000000
    20  H    0.202977   0.000000
    21  O   -0.149505   0.000000
    22  C   -0.335921  -0.000000
    23  O   -0.149522  -0.000000
    24  H    0.195010  -0.000000
    25  H    0.188731   0.000000
    26  H    0.157072   0.000000
    27  H    0.157048   0.000000
    28  C   -0.335914   0.000000
    29  H    0.195010   0.000000
    30  H    0.188728   0.000000
    31  H    0.157087  -0.000000
    32  H    0.157032  -0.000000
 Sum of Mulliken charges =  -0.00000  -0.00000

 Dipole moment (field-independent basis, Debye):
    X=             -0.0554    Y=             -1.2109    Z=             -0.0216  Tot=              1.2123
 Quadrupole moment (field-independent basis, Debye-Ang):
   XX=            -60.8744   YY=           -137.6116   ZZ=           -117.4636
   XY=             -2.3518   XZ=             -0.7419   YZ=             -0.2983

  Exact polarizability: 343.724  -6.165 208.011  -3.206   1.903 103.697
 Approx polarizability: 447.947  -1.643 410.723  -3.700   4.311 165.615

                      1                      2                      3
                      A                      A                      A
 Frequencies --     27.8104                69.7597                77.0793
 Red. masses --      5.6302                 3.5363                 4.1129
 Frc consts  --      0.0026                 0.0101                 0.0144
 IR Inten    --      5.5446                 0.0000                 0.3987

                      4                      5                      6
                      A                      A                      A
 Frequencies --     89.0956               105.9264               123.7985
 Red. masses --      3.8310                 5.6055                 4.7246
 Frc consts  --      0.0179                 0.0371                 0.0427
 IR Inten    --      0.0001                 5.8478                 2.3048

                      7                      8                      9
                      A                      A                      A
 Frequencies --    153.3405               187.6220               192.3273
 Red. masses --      6.7538                 5.0581                 4.6934
 Frc consts  --      0.0936                 0.1049                 0.1023
 IR Inten    --      6.2088                 0.0000                 1.8465

                     10                     11                     12
                      A                      A                      A
 Frequencies --    217.9059               225.2869               256.3978
 Red. masses --      1.2441                 1.1502                 4.3696
 Frc consts  --      0.0348                 0.0344                 0.1692
 IR Inten    --      0.0091                 0.0000                 0.1183

                     13                     14                     15
                      A                      A                      A
 Frequencies --    284.0084               304.0482               309.3753
 Red. masses --      3.4523                 5.1640                 4.6183
 Frc consts  --      0.1641                 0.2813                 0.2604
 IR Inten    --      2.2259                 1.4109                 6.5714

                     16                     17                     18
                      A                      A                      A
 Frequencies --    324.8682               349.1767               409.0164
 Red. masses --      4.7778                10.4110                 9.0206
 Frc consts  --      0.2971                 0.7479                 0.8891
 IR Inten    --      0.0001                 3.0761                19.4785

                     19                     20                     21
                      A                      A                      A
 Frequencies --    426.4902               450.2100               460.0051
 Red. masses --      3.7184                 3.2378                 9.7370
 Frc consts  --      0.3985                 0.3867                 1.2140
 IR Inten    --      0.2919                 0.0000                 0.6975

                     22                     23                     24
                      A                      A                      A
 Frequencies --    498.3348               517.4712               526.2565
 Red. masses --      5.9207                 5.2288                 4.5996
 Frc consts  --      0.8663                 0.8249                 0.7505
 IR Inten    --      1.0515                 5.1528                 0.7163

                     25                     26                     27
                      A                      A                      A
 Frequencies --    585.2294               594.7310               626.0067
 Red. masses --      4.4622                 6.6300                 4.8268
 Frc consts  --      0.9004                 1.3817                 1.1145
 IR Inten    --      0.0000                46.3459                 6.0287

                     28                     29                     30
                      A                      A                      A
 Frequencies --    663.1306               674.7846               713.1868
 Red. masses --      7.8721                 3.1243                 6.6830
 Frc consts  --      2.0396                 0.8382                 2.0028
 IR Inten    --      0.1196                16.0657                 0.8612

                     31                     32                     33
                      A                      A                      A
 Frequencies --    716.7558               718.3502               761.1729
 Red. masses --      6.9013                 4.0718                 6.1655
 Frc consts  --      2.0889                 1.2380                 2.1047
 IR Inten    --     12.1222                 0.0002                39.3953

                     34                     35                     36
                      A                      A                      A
 Frequencies --    790.3637               793.6653               837.3606
 Red. masses --      5.1527                 6.2556                 1.4310
 Frc consts  --      1.8964                 2.3216                 0.5912
 IR Inten    --      0.4176                30.6402                 0.0002

                     37                     38                     39
                      A                      A                      A
 Frequencies --    850.5305               904.5084               917.7173
 Red. masses --      1.6738                 5.4333                 1.4036
 Frc consts  --      0.7134                 2.6190                 0.6965
 IR Inten    --     38.9722                11.3930                 0.0020

                     40                     41                     42
                      A                      A                      A
 Frequencies --    927.0143               947.7315               985.6804
 Red. masses --      1.4877                 7.4510                 1.3180
 Frc consts  --      0.7532                 3.9431                 0.7545
 IR Inten    --     24.0305                84.8787                 0.0007

                     43                     44                     45
                      A                      A                      A
 Frequencies --    990.7778              1004.4436              1053.8600
 Red. masses --      1.3567                 3.9773                 3.1748
 Frc consts  --      0.7847                 2.3642                 2.0774
 IR Inten    --      4.7455               122.2468                15.1351

                     46                     47                     48
                      A                      A                      A
 Frequencies --   1056.2650              1108.9529              1133.5635
 Red. masses --      2.6442                 4.0817                 1.7330
 Frc consts  --      1.7382                 2.9574                 1.3120
 IR Inten    --     58.8630                 3.6699               119.6397

                     49                     50                     51
                      A                      A                      A
 Frequencies --   1160.9851              1166.4994              1166.5866
 Red. masses --      1.5331                 1.2728                 1.2729
 Frc consts  --      1.2175                 1.0204                 1.0206
 IR Inten    --      4.5149                 0.2541                 1.1459

                     52                     53                     54
                      A                      A                      A
 Frequencies --   1195.8094              1196.9151              1207.3576
 Red. masses --      1.5469                 2.1493                 1.4536
 Frc consts  --      1.3033                 1.8141                 1.2485
 IR Inten    --     34.0227                 3.3839                 4.9251

                     55                     56                     57
                      A                      A                      A
 Frequencies --   1233.5041              1244.8524              1263.9345
 Red. masses --      1.6332                 2.8519                 1.9816
 Frc consts  --      1.4641                 2.6039                 1.8652
 IR Inten    --     37.1198                72.5637                29.8117

                     58                     59                     60
                      A                      A                      A
 Frequencies --   1303.4501              1306.0490              1317.2132
 Red. masses --      2.6952                 7.1093                 2.2235
 Frc consts  --      2.6979                 7.1449                 2.2730
 IR Inten    --     35.4726              1527.3991                11.3398

                     61                     62                     63
                      A                      A                      A
 Frequencies --   1358.9931              1364.5340              1454.8962
 Red. masses --      8.1857                 9.7122                 3.8305
 Frc consts  --      8.9071                10.6546                 4.7772
 IR Inten    --    244.3323                 2.5226                 1.1855

                     64                     65                     66
                      A                      A                      A
 Frequencies --   1462.7392              1474.9292              1475.2346
 Red. masses --      4.0159                 1.2636                 1.2351
 Frc consts  --      5.0626                 1.6196                 1.5837
 IR Inten    --    105.5831                 1.5470                 9.1781

                     67                     68                     69
                      A                      A                      A
 Frequencies --   1493.8357              1494.0970              1502.9754
 Red. masses --      1.0454                 1.0454                 1.0630
 Frc consts  --      1.3745                 1.3750                 1.4147
 IR Inten    --      7.0800                13.2448                49.8736

                     70                     71                     72
                      A                      A                      A
 Frequencies --   1503.1981              1515.9790              1523.3081
 Red. masses --      1.0583                 2.9716                 2.7947
 Frc consts  --      1.4089                 4.0237                 3.8208
 IR Inten    --     19.2545                43.8558                 7.5495

                     73                     74                     75
                      A                      A                      A
 Frequencies --   1597.1753              1605.8130              1629.1527
 Red. masses --      6.6017                 8.1794                 6.4376
 Frc consts  --      9.9223                12.4269                10.0670
 IR Inten    --     62.4908                 0.0053               288.4495

                     76                     77                     78
                      A                      A                      A
 Frequencies --   1633.8985              1708.1388              1731.2696
 Red. masses --      6.1660                12.2208                12.2314
 Frc consts  --      9.6984                21.0085                21.6001
 IR Inten    --    274.7497                79.8646               218.3286

                     79                     80                     81
                      A                      A                      A
 Frequencies --   3010.8052              3010.9993              3072.9875
 Red. masses --      1.0343                 1.0343                 1.1066
 Frc consts  --      5.5241                 5.5250                 6.1567
 IR Inten    --    108.2039                14.9793                24.0607

                     82                     83                     84
                      A                      A                      A
 Frequencies --   3073.0576              3141.0400              3141.1119
 Red. masses --      1.1066                 1.0997                 1.0997
 Frc consts  --      6.1570                 6.3924                 6.3927
 IR Inten    --     39.5109                21.6298                16.9193

                     85                     86                     87
                      A                      A                      A
 Frequencies --   3192.0622              3192.3249              3206.5855
 Red. masses --      1.0883                 1.0884                 1.0909
 Frc consts  --      6.5335                 6.5353                 6.6090
 IR Inten    --      0.5411                 0.0024                 9.6498

                     88                     89                     90
                      A                      A                      A
 Frequencies --   3207.0303              3208.5420              3208.7328
 Red. masses --      1.0911                 1.0929                 1.0930
 Frc consts  --      6.6121                 6.6289                 6.6303
 IR Inten    --      2.1736                16.6329                 0.0272

 - Thermochemistry -
 -------------------
 Temperature   298.150 Kelvin.  Pressure   1.00000 Atm.
 Atom     1 has atomic number  6 and mass  12.00000

 Molecular mass:   268.07356 amu.
 Principal axes and moments of inertia in atomic units:
                           1         2         3
     Eigenvalues --  1900.24234********************
           X            0.99887   0.04569   0.01289
           Y           -0.04546   0.99881  -0.01747
           Z           -0.01368   0.01687   0.99976
 This molecule is an asymmetric top.
 Rotational symmetry number  1.
 Warning -- assumption of classical behavior for rotation
           may cause significant error
 Rotational temperatures (Kelvin)      0.04558     0.00814     0.00692
 Rotational constants (GHZ):           0.94974     0.16963     0.14419
 Zero-point vibrational energy     639404.0 (Joules/Mol)
                                  152.82122 (Kcal/Mol)
 Warning -- explicit consideration of  26 degrees of freedom as
           vibrations may cause significant error
 Vibrational temperatures:     40.01   100.37   110.90   128.19   152.40
          (Kelvin)            178.12   220.62   269.95   276.72   313.52
                              324.14   368.90   408.62   437.46   445.12
                              467.41   502.39   588.48   613.62   647.75
                              661.84   716.99   744.53   757.17   842.01
                              855.69   900.68   954.10   970.86  1026.12
                             1031.25  1033.55  1095.16  1137.16  1141.91
                             1204.78  1223.72  1301.39  1320.39  1333.77
                             1363.57  1418.17  1425.51  1445.17  1516.27
                             1519.73  1595.54  1630.95  1670.40  1678.33
                             1678.46  1720.50  1722.09  1737.12  1774.74
                             1791.06  1818.52  1875.37  1879.11  1895.18
                             1955.29  1963.26  2093.27  2104.56  2122.09
                             2122.53  2149.30  2149.67  2162.45  2162.77
                             2181.16  2191.70  2297.98  2310.41  2343.99
                             2350.82  2457.63  2490.91  4331.88  4332.16
                             4421.34  4421.44  4519.26  4519.36  4592.67
                             4593.04  4613.56  4614.20  4616.38  4616.65

 Zero-point correction=                           0.243536 (Hartree/Particle)
 Thermal correction to Energy=                    0.260196
 Thermal correction to Enthalpy=                  0.261141
 Thermal correction to Gibbs Free Energy=         0.198914
 Sum of electronic and zero-point Energies=           -917.826599
 Sum of electronic and thermal Energies=              -917.809939
 Sum of electronic and thermal Enthalpies=            -917.808995
 Sum of electronic and thermal Free Energies=         -917.871221

                     E (Thermal)             CV                S
                      KCal/Mol        Cal/Mol-Kelvin    Cal/Mol-Kelvin
 Total                  163.276             64.337            130.966
 Electronic               0.000              0.000              0.000
 Translational            0.889              2.981             42.657
 Rotational               0.889              2.981             33.892
 Vibrational            161.498             58.375             54.417
 Vibration     1          0.593              1.984              5.980
 Vibration     2          0.598              1.969              4.160
 Vibration     3          0.599              1.964              3.964
 Vibration     4          0.602              1.957              3.680
 Vibration     5          0.605              1.944              3.342
 Vibration     6          0.610              1.929              3.040
 Vibration     7          0.619              1.899              2.630
 Vibration     8          0.632              1.857              2.251
 Vibration     9          0.634              1.850              2.205
 Vibration    10          0.646              1.814              1.976
 Vibration    11          0.650              1.803              1.916
 Vibration    12          0.666              1.752              1.686
 Vibration    13          0.682              1.703              1.509
 Vibration    14          0.695              1.666              1.395
 Vibration    15          0.699              1.656              1.366
 Vibration    16          0.709              1.626              1.285
 Vibration    17          0.726              1.577              1.170
 Vibration    18          0.773              1.451              0.930
 Vibration    19          0.788              1.413              0.870
 Vibration    20          0.809              1.360              0.795
 Vibration    21          0.818              1.339              0.766
 Vibration    22          0.854              1.254              0.662
 Vibration    23          0.872              1.211              0.616
 Vibration    24          0.881              1.192              0.596
 Vibration    25          0.942              1.063              0.476
 Vibration    26          0.952              1.043              0.459

                           ! Non-Optimized Parameters !
 Normal termination of Gaussian 16 at Thu Dec 21 06:45:13 2023.
