 Q-Chem 5.4, Q-Chem, Inc., Pleasanton, CA (2021)
 Q-Chem 5.4.0 for Intel X86 EM64T Linux

User input:
--------------------------------------------------------------
$molecule
0 1
C                 -4.1000470000      3.6200770000      1.5296850000
C                 -4.5842060000      3.8392160000      0.2343320000
C                 -3.9835090000      3.1868730000     -0.8505380000
C                 -2.9097680000      2.3253940000     -0.6352290000
C                 -2.4179300000      2.0979190000      0.6459560000
C                 -3.0288410000      2.7587010000      1.7309310000
C                 -2.5222730000      2.5312940000      3.1000500000
C                 -1.3657230000      1.5947260000      3.2720000000
C                 -0.7881600000      0.9673840000      2.2274880000
C                 -1.2649670000      1.1697140000      0.8547840000
O                 -2.9827980000      3.0558030000      4.1048700000
O                 -0.7344380000      0.5960160000     -0.0874780000
O                 -0.9642570000      1.4400610000      4.5386670000
O                 -5.6310630000      4.6948110000      0.1346000000
C                 -6.1796490000      4.9686650000     -1.1521900000
H                 -4.5627610000      4.1230610000      2.3692820000
H                 -4.3425490000      3.3425880000     -1.8588400000
H                 -2.4384580000      1.8163120000     -1.4672060000
H                  0.0476660000      0.2927170000      2.3667590000
H                 -1.5479440000      2.0018190000      5.0828470000
H                 -6.9939460000      5.6697250000     -0.9809370000
H                 -6.5737530000      4.0593940000     -1.6170120000
H                 -5.4358750000      5.4283190000     -1.8107190000
$end
$rem
MAX_SCF_CYCLES=200
BASIS  =  6-311++G(d,p)
GUI  =  2
JOB_TYPE  =  SP
METHOD  =  B3LYP
SOLVENT_METHOD = PCM
$end
$pcm
theory = CPCM
$end
$solvent
dielectric 37.219
opticaldielectric 1.43
$end

--------------------------------------------------------------

             Standard Nuclear Orientation (Angstroms)
    I     Atom           X                Y                Z
 ----------------------------------------------------------------
    1      C      -4.1000470000     3.6200770000     1.5296850000
    2      C      -4.5842060000     3.8392160000     0.2343320000
    3      C      -3.9835090000     3.1868730000    -0.8505380000
    4      C      -2.9097680000     2.3253940000    -0.6352290000
    5      C      -2.4179300000     2.0979190000     0.6459560000
    6      C      -3.0288410000     2.7587010000     1.7309310000
    7      C      -2.5222730000     2.5312940000     3.1000500000
    8      C      -1.3657230000     1.5947260000     3.2720000000
    9      C      -0.7881600000     0.9673840000     2.2274880000
   10      C      -1.2649670000     1.1697140000     0.8547840000
   11      O      -2.9827980000     3.0558030000     4.1048700000
   12      O      -0.7344380000     0.5960160000    -0.0874780000
   13      O      -0.9642570000     1.4400610000     4.5386670000
   14      O      -5.6310630000     4.6948110000     0.1346000000
   15      C      -6.1796490000     4.9686650000    -1.1521900000
   16      H      -4.5627610000     4.1230610000     2.3692820000
   17      H      -4.3425490000     3.3425880000    -1.8588400000
   18      H      -2.4384580000     1.8163120000    -1.4672060000
   19      H       0.0476660000     0.2927170000     2.3667590000
   20      H      -1.5479440000     2.0018190000     5.0828470000
   21      H      -6.9939460000     5.6697250000    -0.9809370000
   22      H      -6.5737530000     4.0593940000    -1.6170120000
   23      H      -5.4358750000     5.4283190000    -1.8107190000
 ----------------------------------------------------------------

    9    -725.0933016422      4.52e-06  Convergence criterion met
 Total energy in the final basis set =     -725.0933016422

                    Orbital Energies (a.u.)
 --------------------------------------------------------------

 Alpha MOs
 -- Occupied --
-19.1830 -19.1739 -19.1541 -19.1271 -10.2982 -10.2808 -10.2750 -10.2628
-10.2244 -10.2147 -10.2030 -10.2007 -10.2004 -10.1978 -10.1967  -1.1133
 -1.0894  -1.0728  -1.0605  -0.8929  -0.8358  -0.7877  -0.7778  -0.7228
 -0.6969  -0.6606  -0.6315  -0.6107  -0.5774  -0.5524  -0.5289  -0.5184
 -0.5077  -0.4823  -0.4743  -0.4715  -0.4574  -0.4564  -0.4535  -0.4328
 -0.4251  -0.4170  -0.4119  -0.3940  -0.3892  -0.3889  -0.3496  -0.3411
 -0.3064  -0.2902  -0.2807  -0.2731  -0.2492

          Ground-State Mulliken Net Atomic Charges

     Atom                 Charge (a.u.)
  ----------------------------------------
      1 C                    -0.197086
      2 C                    -0.544159
      3 C                     0.172299
      4 C                     0.169168
      5 C                     0.369182
      6 C                     0.849567
      7 C                    -0.764076
      8 C                    -0.387701
      9 C                     0.606686
     10 C                    -0.658114
     11 O                    -0.301290
     12 O                    -0.339793
     13 O                    -0.236356
     14 O                    -0.193103
     15 C                    -0.365623
     16 H                     0.219421
     17 H                     0.268456
     18 H                     0.195793
     19 H                     0.258941
     20 H                     0.317567
     21 H                     0.201032
     22 H                     0.179647
     23 H                     0.179546
  ----------------------------------------
  Sum of atomic charges =     0.000000

                    Cartesian Multipole Moments
 -----------------------------------------------------------------
    Charge (ESU x 10^10)
                 0.0000
    Dipole Moment (Debye)
         X      -4.2021      Y       3.1421      Z      -2.4601
       Tot       5.7951
    Quadrupole Moments (Debye-Ang)
        XX     -61.8501     XY     -18.3629     YY     -73.6299
        XZ      17.1811     YZ     -14.0517     ZZ     -85.3192

 Total job time:  61.61s(wall), 238.20s(cpu)
        *  Thank you very much for using Q-Chem.  Have a nice day.  *
