 Q-Chem 5.4, Q-Chem, Inc., Pleasanton, CA (2021)
 Q-Chem 5.4.0 for Intel X86 EM64T Linux

User input:
--------------------------------------------------------------
$molecule
0 1
N                 -2.9519990000     -1.7958310000     -0.4675520000
C                 -2.5472220000     -0.5283080000     -0.2007530000
C                 -3.5120800000      0.4927590000     -0.0341690000
C                 -3.1348960000      1.7911090000      0.2378480000
C                 -1.7841600000      2.1365330000      0.3570760000
C                 -0.8121980000      1.1598720000      0.1994980000
C                  0.6178590000      1.5946570000      0.3391100000
O                  0.8732130000      2.7604650000      0.5793310000
C                  1.6856550000      0.5603600000      0.1744340000
C                  3.0634380000      0.8407280000      0.2824030000
Cl                 3.7069270000      2.4323830000      0.6228800000
C                  4.0150260000     -0.1651340000      0.1188640000
C                  3.6196770000     -1.4685620000     -0.1549830000
C                  2.2702780000     -1.7732880000     -0.2667290000
C                  1.3105680000     -0.7743850000     -0.1047800000
C                 -0.1242070000     -1.1908260000     -0.2415730000
O                 -0.3764700000     -2.3757110000     -0.4864920000
C                 -1.1661830000     -0.1829340000     -0.0804550000
H                 -3.9317890000     -2.0067560000     -0.5457740000
H                 -2.2492760000     -2.5146940000     -0.5839270000
H                 -4.5625700000      0.2358980000     -0.1246100000
H                 -3.8972810000      2.5524240000      0.3604560000
H                 -1.4770100000      3.1511970000      0.5700370000
H                  5.0634500000      0.0883790000      0.2090310000
H                  4.3689990000     -2.2416570000     -0.2800260000
H                  1.9322520000     -2.7786780000     -0.4791450000
$end
$rem
MAX_SCF_CYCLES=200
BASIS  =  6-311++G(d,p)
GUI  =  2
JOB_TYPE  =  SP
METHOD  =  B3LYP
SOLVENT_METHOD = COSMO
$end
$solvent
dielectric 37.219
opticaldielectric 1.43
$end

--------------------------------------------------------------

             Standard Nuclear Orientation (Angstroms)
    I     Atom           X                Y                Z
 ----------------------------------------------------------------
    1      N       3.7519898305    -1.5730855468    -0.0002739003
    2      C       3.1318196351    -0.3660107336    -0.0001977190
    3      C       3.9066876034     0.8175679861    -0.0004290016
    4      C       3.3083850066     2.0601490659    -0.0004879723
    5      C       1.9147783367     2.1861696752    -0.0002570662
    6      C       1.1251752568     1.0460229537     0.0000497363
    7      C      -0.3622669796     1.2487735400     0.0006181143
    8      O      -0.8171677550     2.3779700259     0.0014353537
    9      C      -1.2365037668     0.0351893290     0.0002063167
   10      C      -2.6455362793     0.0915519004    -0.0001869265
   11      Cl     -3.5578000829     1.5852530108    -0.0004422093
   12      C      -3.4099854930    -1.0744842946    -0.0004717104
   13      C      -2.7928563773    -2.3192208850    -0.0002779281
   14      C      -1.4076067878    -2.4046970582     0.0001259981
   15      C      -0.6339349157    -1.2443049845     0.0003152195
   16      C       0.8550176246    -1.4279760511     0.0003789262
   17      O       1.3102571586    -2.5770327649     0.0005686632
   18      C       1.7083092340    -0.2450083313     0.0000937406
   19      H       4.7559528315    -1.6246070627    -0.0008279390
   20      H       3.1833229157    -2.4101904914    -0.0001330912
   21      H       4.9884725829     0.7313842870    -0.0005555180
   22      H       3.9285626832     2.9496678972    -0.0006810747
   23      H       1.4349874074     3.1552089961    -0.0002174501
   24      H      -4.4891805226    -0.9912389340    -0.0008043912
   25      H      -3.3981150482    -3.2183632508    -0.0004726946
   26      H      -0.8989380700    -3.3593945565     0.0002165170
 ----------------------------------------------------------------

    9   -1203.9488862211      3.88e-06  Convergence criterion met
 Total energy in the final basis set =    -1203.9488862211
    5   -1203.9660258840      4.25e-06  Convergence criterion met
 Total energy in the final basis set =    -1203.9660258840

                    Orbital Energies (a.u.)
 --------------------------------------------------------------

 Alpha MOs
 -- Occupied --
******** -19.1279 -19.1258 -14.3330 -10.2854 -10.2795 -10.2623 -10.2472
-10.2206 -10.2136 -10.2055 -10.2029 -10.2011 -10.1999 -10.1957 -10.1950
-10.1897 -10.1843  -9.4790  -7.2437  -7.2343  -7.2329  -1.0675  -1.0603
 -0.9435  -0.9133  -0.8726  -0.8567  -0.8115  -0.7730  -0.7632  -0.7542
 -0.6878  -0.6672  -0.6524  -0.6113  -0.5840  -0.5767  -0.5596  -0.5261
 -0.5085  -0.5071  -0.4900  -0.4782  -0.4714  -0.4587  -0.4587  -0.4540
 -0.4456  -0.4322  -0.4240  -0.4089  -0.3974  -0.3881  -0.3869  -0.3821
 -0.3729  -0.3492  -0.3337  -0.3335  -0.2917  -0.2847  -0.2774  -0.2680
 -0.2679  -0.2264

          Ground-State Mulliken Net Atomic Charges

     Atom                 Charge (a.u.)
  ----------------------------------------
      1 N                    -0.467971
      2 C                     0.312926
      3 C                    -0.215498
      4 C                    -0.504624
      5 C                     0.209847
      6 C                     0.210636
      7 C                    -1.562158
      8 O                    -0.191931
      9 C                    -0.190860
     10 C                     1.045010
     11 Cl                    0.393589
     12 C                     0.018088
     13 C                    -0.660214
     14 C                     0.621806
     15 C                     0.293193
     16 C                    -0.974854
     17 O                    -0.321799
     18 C                    -0.020051
     19 H                     0.335268
     20 H                     0.350368
     21 H                     0.208108
     22 H                     0.230430
     23 H                     0.190724
     24 H                     0.245221
     25 H                     0.229691
     26 H                     0.215056
  ----------------------------------------
  Sum of atomic charges =     0.000000

                    Cartesian Multipole Moments
 -----------------------------------------------------------------
    Charge (ESU x 10^10)
                 0.0000
    Dipole Moment (Debye)
         X       3.9248      Y      -3.2835      Z      -0.0046
       Tot       5.1172
    Quadrupole Moments (Debye-Ang)
        XX     -75.7864     XY      14.6193     YY    -112.7213
        XZ      -0.0065     YZ      -0.0024     ZZ    -113.7118

 Total job time:  61.92s(wall), 462.89s(cpu)
        *  Thank you very much for using Q-Chem.  Have a nice day.  *
