 Gaussian 16, Revision A.03,
 Gaussian 16:  ES64L-G16RevA.03 25-Dec-2016

 ----------------------------------------------------------------------
 #P UB3LYP/6-311++G(d,p) nosym opt freq SCRF=(PCM,Solvent=n,n-DiMethylF
 ormamide)
 ----------------------------------------------------------------------

 -------
 Reduced
 -------
 Symbolic Z-matrix:
 Charge = -2 Multiplicity = 1

 SCF Done:  E(UB3LYP) =  -1608.42017205     A.U. after   17 cycles
 SCF Done:  E(UB3LYP) =  -1608.42078405     A.U. after   13 cycles
 SCF Done:  E(UB3LYP) =  -1608.42088727     A.U. after   12 cycles
 SCF Done:  E(UB3LYP) =  -1608.42089816     A.U. after   11 cycles
 SCF Done:  E(UB3LYP) =  -1608.42090131     A.U. after   10 cycles
 SCF Done:  E(UB3LYP) =  -1608.42090163     A.U. after   10 cycles
 SCF Done:  E(UB3LYP) =  -1608.42090183     A.U. after    9 cycles
 SCF Done:  E(UB3LYP) =  -1608.42090200     A.U. after    9 cycles
 SCF Done:  E(UB3LYP) =  -1608.42090239     A.U. after   10 cycles
 SCF Done:  E(UB3LYP) =  -1608.42090233     A.U. after   11 cycles
 SCF Done:  E(UB3LYP) =  -1608.42091766     A.U. after   13 cycles
 SCF Done:  E(UB3LYP) =  -1608.42092948     A.U. after   11 cycles
 SCF Done:  E(UB3LYP) =  -1608.42093203     A.U. after   11 cycles
 SCF Done:  E(UB3LYP) =  -1608.42093258     A.U. after   11 cycles
 SCF Done:  E(UB3LYP) =  -1608.42094217     A.U. after   12 cycles
 SCF Done:  E(UB3LYP) =  -1608.42038878     A.U. after   15 cycles
 SCF Done:  E(UB3LYP) =  -1608.39099672     A.U. after   16 cycles
 SCF Done:  E(UB3LYP) =  -1608.38942260     A.U. after   16 cycles
 SCF Done:  E(UB3LYP) =  -1608.42094123     A.U. after    8 cycles
 Optimization completed.
    -- Stationary point found.
 Normal termination of Gaussian 16 at Sat Feb 10 19:38:17 2024.

 ----------------------------------------------------------------------
 #P Geom=AllCheck Guess=TCheck SCRF=Check GenChk UB3LYP/6-311++G(d,p) F
 req
 ----------------------------------------------------------------------

 Structure from the checkpoint file:  "121-an.chk"
 -------
 Reduced
 -------
 Charge = -2 Multiplicity = 1

                          Input orientation:
 ---------------------------------------------------------------------
 Center     Atomic      Atomic             Coordinates (Angstroms)
 Number     Number       Type             X           Y           Z
 ---------------------------------------------------------------------
      1         17           0        2.655935    3.221729   -0.381176
      2          6           0        2.476574    1.452165   -0.162934
      3          6           0        3.676301    0.798257   -0.021069
      4          6           0        3.693022   -0.603763    0.183287
      5          6           0        2.504636   -1.283934    0.250578
      6          6           0        1.245323   -0.637678    0.116750
      7          6           0        0.072333   -1.479447    0.221522
      8          8           0        0.199191   -2.754651    0.397453
      9          6           0       -1.196837   -0.804997    0.113973
     10          6           0       -2.478541   -1.436166    0.250744
     11         17           0       -2.662039   -3.162245    0.695291
     12          6           0       -3.677999   -0.785653    0.092017
     13          6           0       -3.692342    0.597066   -0.217118
     14          6           0       -2.502917    1.268958   -0.331421
     15          6           0       -1.244272    0.628217   -0.167568
     16          6           0       -0.070678    1.464476   -0.302873
     17          8           0       -0.195413    2.722980   -0.574172
     18          6           0        1.196916    0.803602   -0.120308
     19          1           0        4.601904    1.358657   -0.061591
     20          1           0        4.641659   -1.118360    0.291031
     21          1           0        2.484736   -2.354201    0.412849
     22          1           0       -4.605433   -1.330974    0.214145
     23          1           0       -4.640515    1.107192   -0.347792
     24          1           0       -2.481545    2.328770   -0.551618
 ---------------------------------------------------------------------

 SCF Done:  E(UB3LYP) =  -1608.42094123     A.U. after    2 cycles

 Alpha  occ. eigenvalues -- -101.53072-101.53060 -19.01720 -19.01707 -10.21673
 Alpha  occ. eigenvalues --  -10.21671 -10.18288 -10.18284 -10.15875 -10.15872
 Alpha  occ. eigenvalues --  -10.15744 -10.15739 -10.15450 -10.15447 -10.14900
 Alpha  occ. eigenvalues --  -10.14899 -10.14627 -10.14619  -9.44551  -9.44540
 Alpha  occ. eigenvalues --   -7.20980  -7.20969  -7.20082  -7.20071  -7.19983
 Alpha  occ. eigenvalues --   -7.19971  -0.93929  -0.93482  -0.86124  -0.86050
 Alpha  occ. eigenvalues --   -0.81391  -0.80510  -0.76185  -0.71880  -0.71556
 Alpha  occ. eigenvalues --   -0.71110  -0.64468  -0.61573  -0.60268  -0.55593
 Alpha  occ. eigenvalues --   -0.52311  -0.52170  -0.49894  -0.45497  -0.44675
 Alpha  occ. eigenvalues --   -0.44283  -0.43709  -0.40971  -0.40736  -0.39547
 Alpha  occ. eigenvalues --   -0.39385  -0.37431  -0.37330  -0.37169  -0.35690
 Alpha  occ. eigenvalues --   -0.33599  -0.33500  -0.33303  -0.32932  -0.31444
 Alpha  occ. eigenvalues --   -0.30292  -0.30175  -0.29595  -0.29577  -0.23399
 Alpha  occ. eigenvalues --   -0.22634  -0.22531  -0.22451  -0.19709  -0.19003
 Alpha  occ. eigenvalues --   -0.11091
 Alpha virt. eigenvalues --   -0.03513  -0.00777   0.00223   0.00785   0.01016
 Alpha virt. eigenvalues --    0.01327   0.01565   0.02632   0.02979   0.03905
 Alpha virt. eigenvalues --    0.04830   0.04885   0.05391   0.05871   0.06057

  Beta  occ. eigenvalues -- -101.53072-101.53060 -19.01720 -19.01707 -10.21673
  Beta  occ. eigenvalues --  -10.21671 -10.18288 -10.18284 -10.15875 -10.15872
  Beta  occ. eigenvalues --  -10.15744 -10.15739 -10.15450 -10.15447 -10.14900
  Beta  occ. eigenvalues --  -10.14899 -10.14627 -10.14619  -9.44551  -9.44540
  Beta  occ. eigenvalues --   -7.20980  -7.20969  -7.20082  -7.20071  -7.19983
  Beta  occ. eigenvalues --   -7.19971  -0.93929  -0.93482  -0.86124  -0.86050
  Beta  occ. eigenvalues --   -0.81391  -0.80510  -0.76185  -0.71880  -0.71556
  Beta  occ. eigenvalues --   -0.71110  -0.64468  -0.61573  -0.60268  -0.55593
  Beta  occ. eigenvalues --   -0.52311  -0.52170  -0.49894  -0.45497  -0.44675
  Beta  occ. eigenvalues --   -0.44283  -0.43709  -0.40971  -0.40736  -0.39547
  Beta  occ. eigenvalues --   -0.39385  -0.37431  -0.37330  -0.37169  -0.35690
  Beta  occ. eigenvalues --   -0.33599  -0.33500  -0.33303  -0.32932  -0.31444
  Beta  occ. eigenvalues --   -0.30292  -0.30175  -0.29595  -0.29577  -0.23399
  Beta  occ. eigenvalues --   -0.22634  -0.22531  -0.22451  -0.19709  -0.19003
  Beta  occ. eigenvalues --   -0.11091
  Beta virt. eigenvalues --   -0.03513  -0.00777   0.00223   0.00785   0.01016
  Beta virt. eigenvalues --    0.01327   0.01565   0.02632   0.02979   0.03905
  Beta virt. eigenvalues --    0.04830   0.04885   0.05391   0.05871   0.06057

 Mulliken charges and spin densities:
               1          2
     1  Cl   0.301996   0.000000
     2  C    0.745822  -0.000000
     3  C   -0.317521   0.000000
     4  C   -0.647815  -0.000000
     5  C    0.315698  -0.000000
     6  C    0.212374   0.000000
     7  C   -1.689122  -0.000000
     8  O   -0.543917  -0.000000
     9  C    0.020730  -0.000000
    10  C    0.777482  -0.000000
    11  Cl   0.300967   0.000000
    12  C   -0.281599  -0.000000
    13  C   -0.671059  -0.000000
    14  C    0.341629  -0.000000
    15  C    0.251036   0.000000
    16  C   -1.623768   0.000000
    17  O   -0.542832  -0.000000
    18  C    0.041759   0.000000
    19  H    0.178606   0.000000
    20  H    0.163278  -0.000000
    21  H    0.162372  -0.000000
    22  H    0.178542  -0.000000
    23  H    0.162855  -0.000000
    24  H    0.162487  -0.000000
 Sum of Mulliken charges =  -2.00000  -0.00000

 Dipole moment (field-independent basis, Debye):
    X=             -0.0050    Y=              0.0628    Z=              0.3037  Tot=              0.3102
 Quadrupole moment (field-independent basis, Debye-Ang):
   XX=           -142.9057   YY=           -192.8856   ZZ=           -131.0814
   XY=            -12.4950   XZ=              2.0723   YZ=             11.0554

  Exact polarizability: 578.329  22.401 431.120   5.719 -48.104 171.720
 Approx polarizability: 645.488   5.080 509.164  10.228 -58.812 193.277

                      1                      2                      3
                      A                      A                      A
 Frequencies --     18.3196                46.5844                52.1761
 Red. masses --     16.8223                10.3933                 7.7058
 Frc consts  --      0.0033                 0.0133                 0.0124
 IR Inten    --      5.9795                 4.4307                14.5196

                      4                      5                      6
                      A                      A                      A
 Frequencies --    150.9855               163.8368               196.2436
 Red. masses --      6.5497                11.9845                 4.4166
 Frc consts  --      0.0880                 0.1895                 0.1002
 IR Inten    --      5.1644                18.5967                 0.2457

                      7                      8                      9
                      A                      A                      A
 Frequencies --    201.2579               209.3493               266.5286
 Red. masses --     15.8019                 5.8509                 5.9120
 Frc consts  --      0.3771                 0.1511                 0.2474
 IR Inten    --      0.0141                 0.4034                 0.2849

                     10                     11                     12
                      A                      A                      A
 Frequencies --    320.6637               324.6100               363.5065
 Red. masses --     12.7375                16.2945                 6.2505
 Frc consts  --      0.7717                 1.0116                 0.4866
 IR Inten    --      0.2649                 0.0816                 0.0054

                     13                     14                     15
                      A                      A                      A
 Frequencies --    380.7294               388.7987               410.0549
 Red. masses --      9.5199                 9.6346                 7.7689
 Frc consts  --      0.8130                 0.8581                 0.7697
 IR Inten    --      6.2241                 1.9932                35.3200

                     16                     17                     18
                      A                      A                      A
 Frequencies --    417.8236               483.3348               493.0825
 Red. masses --      8.3237                 8.8079                 4.2396
 Frc consts  --      0.8562                 1.2123                 0.6073
 IR Inten    --      0.0891                 0.2568                 0.7680

                     19                     20                     21
                      A                      A                      A
 Frequencies --    500.0007               506.0514               563.7581
 Red. masses --      5.6595                10.2234                 4.7433
 Frc consts  --      0.8336                 1.5425                 0.8882
 IR Inten    --      0.8152                 0.1264                 0.6509

                     22                     23                     24
                      A                      A                      A
 Frequencies --    601.9593               622.0645               686.5961
 Red. masses --      6.3941                 4.7218                 6.1550
 Frc consts  --      1.3651                 1.0765                 1.7095
 IR Inten    --     86.1872                 4.1708                 5.6850

                     25                     26                     27
                      A                      A                      A
 Frequencies --    690.3655               695.2628               734.8635
 Red. masses --      8.6856                 2.3499                 8.3330
 Frc consts  --      2.4390                 0.6693                 2.6513
 IR Inten    --    300.3809               106.7630                12.3360

                     28                     29                     30
                      A                      A                      A
 Frequencies --    749.7987               772.7645               779.6769
 Red. masses --      1.3542                 7.8372                 1.9400
 Frc consts  --      0.4486                 2.7575                 0.6948
 IR Inten    --      1.3157                 1.3270                97.6374

                     31                     32                     33
                      A                      A                      A
 Frequencies --    815.5170               819.4290               871.6624
 Red. masses --      5.4171                 6.8193                 1.4027
 Frc consts  --      2.1227                 2.6978                 0.6279
 IR Inten    --      1.1723                56.7656                 1.0246

                     34                     35                     36
                      A                      A                      A
 Frequencies --    875.8982               931.1490               947.9507
 Red. masses --      1.3969                 6.9157                 8.8014
 Frc consts  --      0.6314                 3.5329                 4.6599
 IR Inten    --      0.7783                 0.1066               181.5531

                     37                     38                     39
                      A                      A                      A
 Frequencies --    982.5938               983.3975              1065.8771
 Red. masses --      1.3057                 1.3042                 2.5103
 Frc consts  --      0.7428                 0.7431                 1.6803
 IR Inten    --      1.2525                 3.6944               645.5568

                     40                     41                     42
                      A                      A                      A
 Frequencies --   1071.1210              1086.2878              1105.9153
 Red. masses --      2.2619                 3.9762                 3.0364
 Frc consts  --      1.5290                 2.7644                 2.1880
 IR Inten    --      0.4744               161.6337                 1.3997

                     43                     44                     45
                      A                      A                      A
 Frequencies --   1112.4857              1157.7498              1184.0433
 Red. masses --      1.9696                 1.4495                 2.4045
 Frc consts  --      1.4362                 1.1447                 1.9861
 IR Inten    --    568.7655                 0.1191                 0.0724

                     46                     47                     48
                      A                      A                      A
 Frequencies --   1197.9952              1228.9537              1298.0931
 Red. masses --      1.9488                 2.5718                 5.1637
 Frc consts  --      1.6479                 2.2885                 5.1265
 IR Inten    --    177.0990               212.8249                 2.0721

                     49                     50                     51
                      A                      A                      A
 Frequencies --   1303.0231              1329.7106              1343.3945
 Red. masses --      6.8332                 3.5829                 2.0971
 Frc consts  --      6.8356                 3.7325                 2.2299
 IR Inten    --   2437.2600              1714.6442                 0.1570

                     52                     53                     54
                      A                      A                      A
 Frequencies --   1403.0152              1426.6954              1456.6534
 Red. masses --      3.2251                 5.1259                 3.1094
 Frc consts  --      3.7404                 6.1473                 3.8872
 IR Inten    --    411.8143                 0.3698               680.9733

                     55                     56                     57
                      A                      A                      A
 Frequencies --   1459.4058              1474.0737              1518.0095
 Red. masses --      5.8922                 3.8576                 5.4418
 Frc consts  --      7.3940                 4.9387                 7.3882
 IR Inten    --      2.2211                 0.0052               190.6570

                     58                     59                     60
                      A                      A                      A
 Frequencies --   1565.8562              1598.7912              1600.9878
 Red. masses --      8.1769                 5.5076                 5.3182
 Frc consts  --     11.8126                 8.2946                 8.0313
 IR Inten    --      0.0465                65.4336                 0.1387

                     61                     62                     63
                      A                      A                      A
 Frequencies --   3160.5698              3160.8563              3186.8863
 Red. masses --      1.0867                 1.0870                 1.0913
 Frc consts  --      6.3959                 6.3986                 6.5301
 IR Inten    --     66.2825                 0.7803                14.2601

                     64                     65                     66
                      A                      A                      A
 Frequencies --   3186.9376              3194.5277              3195.1403
 Red. masses --      1.0914                 1.0925                 1.0924
 Frc consts  --      6.5310                 6.5689                 6.5708
 IR Inten    --     13.4615                76.7317                13.5303

 - Thermochemistry -
 -------------------
 Temperature   298.150 Kelvin.  Pressure   1.00000 Atm.
 Atom     1 has atomic number 17 and mass  34.96885

 Molecular mass:   275.97448 amu.
 Principal axes and moments of inertia in atomic units:
                           1         2         3
     Eigenvalues --  2761.261787289.54787**********
           X            0.81620  -0.57737  -0.02156
           Y            0.57119   0.80073   0.18046
           Z           -0.08693  -0.15961   0.98335
 This molecule is an asymmetric top.
 Rotational symmetry number  1.
 Warning -- assumption of classical behavior for rotation
           may cause significant error
 Rotational temperatures (Kelvin)      0.03137     0.01188     0.00863
 Rotational constants (GHZ):           0.65359     0.24758     0.17983
 Zero-point vibrational energy     407278.8 (Joules/Mol)
                                   97.34197 (Kcal/Mol)
 Warning -- explicit consideration of  22 degrees of freedom as
           vibrations may cause significant error
 Vibrational temperatures:     26.36    67.02    75.07   217.23   235.72
          (Kelvin)            282.35   289.57   301.21   383.48   461.36
                              467.04   523.00   547.78   559.39   589.98
                              601.16   695.41   709.44   719.39   728.10
                              811.12   866.09   895.01   987.86   993.28
                             1000.33  1057.30  1078.79  1111.84  1121.78
                             1173.35  1178.98  1254.13  1260.22  1339.72
                             1363.89  1413.73  1414.89  1533.56  1541.10
                             1562.93  1591.17  1600.62  1665.74  1703.57
                             1723.65  1768.19  1867.67  1874.76  1913.16
                             1932.85  2018.63  2052.70  2095.80  2099.76
                             2120.86  2184.08  2252.92  2300.30  2303.46
                             4547.36  4547.77  4585.22  4585.29  4596.21
                             4597.09

 Zero-point correction=                           0.155124 (Hartree/Particle)
 Thermal correction to Energy=                    0.169140
 Thermal correction to Enthalpy=                  0.170084
 Thermal correction to Gibbs Free Energy=         0.112389
 Sum of electronic and zero-point Energies=          -1608.265817
 Sum of electronic and thermal Energies=             -1608.251802
 Sum of electronic and thermal Enthalpies=           -1608.250858
 Sum of electronic and thermal Free Energies=        -1608.308552

                     E (Thermal)             CV                S
                      KCal/Mol        Cal/Mol-Kelvin    Cal/Mol-Kelvin
 Total                  106.137             54.766            121.428
 Electronic               0.000              0.000              0.000
 Translational            0.889              2.981             42.744
 Rotational               0.889              2.981             33.668
 Vibrational            104.359             48.805             45.016
 Vibration     1          0.593              1.986              6.808
 Vibration     2          0.595              1.979              4.957
 Vibration     3          0.596              1.977              4.733
 Vibration     4          0.618              1.902              2.660
 Vibration     5          0.623              1.887              2.505
 Vibration     6          0.636              1.845              2.168
 Vibration     7          0.638              1.838              2.122
 Vibration     8          0.642              1.826              2.049
 Vibration     9          0.672              1.735              1.619
 Vibration    10          0.706              1.634              1.307
 Vibration    11          0.709              1.626              1.287
 Vibration    12          0.737              1.547              1.107
 Vibration    13          0.750              1.511              1.036
 Vibration    14          0.757              1.494              1.005
 Vibration    15          0.774              1.448              0.926
 Vibration    16          0.781              1.432              0.899
 Vibration    17          0.840              1.287              0.701
 Vibration    18          0.849              1.265              0.676
 Vibration    19          0.855              1.250              0.658
 Vibration    20          0.861              1.237              0.643
 Vibration    21          0.920              1.110              0.516
 Vibration    22          0.960              1.028              0.446

                           ! Non-Optimized Parameters !
 Normal termination of Gaussian 16 at Sat Feb 10 20:03:06 2024.
