 Q-Chem 5.4, Q-Chem, Inc., Pleasanton, CA (2021)
 Q-Chem 5.4.0 for Intel X86 EM64T Linux

User input:
--------------------------------------------------------------
$molecule
-1 2
O                  2.5336070000      2.5318580000     -0.2141630000
C                  2.4573460000      1.2052840000      0.0178880000
C                  3.6223960000      0.4871020000      0.2587600000
C                  3.5578610000     -0.8949540000      0.5018210000
C                  2.3456430000     -1.5608600000      0.5060050000
C                  1.1468540000     -0.8609230000      0.2651440000
C                 -0.1238700000     -1.5941180000      0.2756480000
O                 -0.1752760000     -2.8276300000      0.4931700000
C                 -1.3335400000     -0.8070520000      0.0179110000
C                 -2.5896180000     -1.4500410000      0.0133190000
C                 -3.7533700000     -0.7459360000     -0.2249950000
C                 -3.6978800000      0.6443160000     -0.4700600000
C                 -2.4818230000      1.2964260000     -0.4710390000
C                 -1.2784120000      0.5949090000     -0.2293700000
C                 -0.0144350000      1.3091600000     -0.2370850000
O                  0.0319960000      2.5707480000     -0.4601520000
C                  1.1881710000      0.5437220000      0.0158820000
H                  1.5769830000      2.8238720000     -0.3582610000
H                  4.5680790000      1.0176470000      0.2534490000
H                  4.4771080000     -1.4428980000      0.6885300000
H                  2.2800470000     -2.6255760000      0.6917490000
H                 -2.6022330000     -2.5169650000      0.2042200000
H                 -4.7107450000     -1.2583960000     -0.2244620000
H                 -4.6128050000      1.1984660000     -0.6575440000
H                 -2.4120820000      2.3618380000     -0.6563640000
$end
$rem
MAX_SCF_CYCLES=200
BASIS  =  6-311++G(d,p)
GUI  =  2
JOB_TYPE  =  SP
METHOD  =  B3LYP
SOLVENT_METHOD = COSMO
$end
$solvent
dielectric 37.219
opticaldielectric 1.43
$end

--------------------------------------------------------------

             Standard Nuclear Orientation (Angstroms)
    I     Atom           X                Y                Z
 ----------------------------------------------------------------
    1      O       2.6772542906    -2.2144802848     0.0002730846
    2      C       2.4657738148    -0.8822873744     0.0000680325
    3      C       3.5547547884    -0.0189991041     0.0001651292
    4      C       3.3493006617     1.3706450216     0.0000717502
    5      C       2.0719816585     1.9010947604    -0.0000859285
    6      C       0.9474752936     1.0522683207    -0.0001351025
    7      C      -0.3950959451     1.6438147627    -0.0000864064
    8      O      -0.5722901882     2.8848274322    -0.0001625063
    9      C      -1.5215730676     0.7055972799    -0.0000102477
   10      C      -2.8403422602     1.2076287738     0.0002700474
   11      C      -3.9294729477     0.3587056461     0.0002747323
   12      C      -3.7321807313    -1.0402269263     0.0000357939
   13      C      -2.4524141277    -1.5562118518    -0.0001500267
   14      C      -1.3234519795    -0.7052285918    -0.0001800312
   15      C       0.0104558680    -1.2784141802    -0.0002480517
   16      O       0.1855522562    -2.5483985320    -0.0001644944
   17      C       1.1320789935    -0.3629304954    -0.0001330976
   18      H       1.7527046152    -2.6223697003     0.0001750993
   19      H       4.5523491831    -0.4440025545     0.0003412460
   20      H       4.2104404139     2.0328808179     0.0001188114
   21      H       1.8978620539     2.9697884422    -0.0001706830
   22      H      -2.9618544073     2.2847378218     0.0004907514
   23      H      -4.9369151557     0.7639741717     0.0004893685
   24      H      -4.5883803592    -1.7082407175     0.0000572209
   25      H      -2.2740773285    -2.6250934519    -0.0002100441
 ----------------------------------------------------------------

    9    -764.2859176322      6.27e-06  Convergence criterion met
 Total energy in the final basis set =     -764.2859176322
    4    -764.3644285226      9.54e-06  Convergence criterion met
 Total energy in the final basis set =     -764.3644285226

                    Orbital Energies (a.u.)
 --------------------------------------------------------------

 Alpha MOs
 -- Occupied --
-19.1351 -19.0952 -19.0841 -10.2380 -10.2365 -10.2318 -10.1792 -10.1786
-10.1782 -10.1772 -10.1759 -10.1753 -10.1748 -10.1734 -10.1725 -10.1669
-10.1648  -1.0592  -1.0120  -1.0096  -0.8654  -0.8504  -0.7897  -0.7558
 -0.7449  -0.7417  -0.6741  -0.6407  -0.6299  -0.5906  -0.5717  -0.5389
 -0.5293  -0.5104  -0.4806  -0.4696  -0.4608  -0.4475  -0.4372  -0.4289
 -0.4253  -0.4200  -0.4119  -0.4027  -0.3913  -0.3870  -0.3715  -0.3583
 -0.3556  -0.3510  -0.3396  -0.3331  -0.2757  -0.2631  -0.2615  -0.2526
 -0.2465  -0.2330  -0.1491

 Beta MOs
 -- Occupied --
-19.1348 -19.0903 -19.0788 -10.2378 -10.2339 -10.2303 -10.1792 -10.1780
-10.1773 -10.1763 -10.1753 -10.1748 -10.1742 -10.1732 -10.1726 -10.1662
-10.1646  -1.0579  -1.0031  -1.0010  -0.8627  -0.8491  -0.7857  -0.7532
 -0.7428  -0.7399  -0.6668  -0.6388  -0.6275  -0.5896  -0.5697  -0.5362
 -0.5279  -0.5089  -0.4778  -0.4683  -0.4595  -0.4464  -0.4277  -0.4275
 -0.4222  -0.4177  -0.4095  -0.3942  -0.3900  -0.3704  -0.3673  -0.3576
 -0.3497  -0.3474  -0.3383  -0.3239  -0.2589  -0.2574  -0.2544  -0.2478
 -0.2419  -0.2249

          Ground-State Mulliken Net Atomic Charges

     Atom                 Charge (a.u.)    Spin (a.u.)
  --------------------------------------------------------
      1 O                    -0.407399       0.008649
      2 C                    -0.129360       0.033251
      3 C                    -0.255415       0.052202
      4 C                    -0.393854       0.045363
      5 C                    -0.117088       0.045661
      6 C                     0.440106       0.058418
      7 C                    -0.349433       0.095959
      8 O                    -0.482109       0.192874
      9 C                    -0.042831       0.036490
     10 C                     0.042897       0.019724
     11 C                    -0.461374       0.048814
     12 C                    -0.462343       0.025193
     13 C                     0.064728       0.045792
     14 C                     0.138913       0.003663
     15 C                    -0.270043       0.153041
     16 O                    -0.519597       0.174856
     17 C                     0.470810      -0.017231
     18 H                     0.373283      -0.003607
     19 H                     0.205554      -0.004573
     20 H                     0.211912      -0.003548
     21 H                     0.170303      -0.002480
     22 H                     0.177490      -0.000931
     23 H                     0.205049      -0.003787
     24 H                     0.204145      -0.002388
     25 H                     0.185656      -0.001405
  --------------------------------------------------------
  Sum of atomic charges =    -1.000000

                    Cartesian Multipole Moments
 -----------------------------------------------------------------
    Charge (ESU x 10^10)
                -4.8032
    Dipole Moment (Debye)
         X      -1.9621      Y      -0.3210      Z       0.0008
       Tot       1.9882
    Quadrupole Moments (Debye-Ang)
        XX    -101.0101     XY      12.4707     YY    -134.1791
        XZ       0.0015     YZ       0.0014     ZZ    -105.0094

 Total job time:  69.49s(wall), 512.19s(cpu)
        *  Thank you very much for using Q-Chem.  Have a nice day.  *
