 Gaussian 16, Revision A.03,
 Gaussian 16:  ES64L-G16RevA.03 25-Dec-2016

 ----------------------------------------------
 #P UB3LYP/6-311++G(d,p) nosym opt freq SCF=YQC
 ----------------------------------------------

 -------
 Reduced
 -------
 Symbolic Z-matrix:
 Charge = -2 Multiplicity = 1

 SCF Done:  E(UB3LYP) =  -725.013092965     a.u. after   10 cycles
 SCF Done:  E(UB3LYP) =  -725.034488964     A.U. after   33 cycles
 SCF Done:  E(UB3LYP) =  -725.034488964     a.u. after    1 cycles
 SCF Done:  E(UB3LYP) =  -725.053212651     a.u. after   23 cycles
 SCF Done:  E(UB3LYP) =  -725.053532009     A.U. after   24 cycles
 SCF Done:  E(UB3LYP) =  -725.056216643     a.u. after   17 cycles
 SCF Done:  E(UB3LYP) =  -725.056480652     A.U. after   25 cycles
 SCF Done:  E(UB3LYP) =  -725.056650580     a.u. after   12 cycles
 SCF Done:  E(UB3LYP) =  -725.056801463     A.U. after   23 cycles
 SCF Done:  E(UB3LYP) =  -725.056658918     a.u. after   13 cycles
 SCF Done:  E(UB3LYP) =  -725.057180304     a.u. after    5 cycles
 SCF Done:  E(UB3LYP) =  -725.057220152     A.U. after   26 cycles
 SCF Done:  E(UB3LYP) =  -725.057152197     a.u. after    6 cycles
 SCF Done:  E(UB3LYP) =  -725.057223984     A.U. after   25 cycles
 SCF Done:  E(UB3LYP) =  -725.057215579     a.u. after    1 cycles
 SCF Done:  E(UB3LYP) =  -725.057224473     A.U. after   20 cycles
 SCF Done:  E(UB3LYP) =  -725.057221675     a.u. after    1 cycles
 SCF Done:  E(UB3LYP) =  -725.057224589     A.U. after   20 cycles
 Optimization completed.
    -- Stationary point found.
 Normal termination of Gaussian 16 at Thu Dec 28 22:04:50 2023.

 ----------------------------------------------------------------------
 #P Geom=AllCheck Guess=TCheck SCRF=Check GenChk UB3LYP/6-311++G(d,p) F
 req
 ----------------------------------------------------------------------

 Structure from the checkpoint file:  "304-an.chk"
 -------
 Reduced
 -------
 Charge = -2 Multiplicity = 1

                          Input orientation:
 ---------------------------------------------------------------------
 Center     Atomic      Atomic             Coordinates (Angstroms)
 Number     Number       Type             X           Y           Z
 ---------------------------------------------------------------------
      1          6           0       -4.172483    3.518703    1.529255
      2          6           0       -4.689219    3.666147    0.259820
      3          6           0       -4.087932    3.010917   -0.842575
      4          6           0       -2.974445    2.210349   -0.615641
      5          6           0       -2.417917    2.022522    0.657160
      6          6           0       -3.039878    2.697439    1.777724
      7          6           0       -2.526196    2.537446    3.103764
      8          6           0       -1.380272    1.696231    3.220675
      9          6           0       -0.759130    1.044152    2.162758
     10          6           0       -1.232456    1.163768    0.820045
     11          8           0       -2.992319    3.086878    4.193461
     12          8           0       -0.681364    0.572813   -0.170758
     13          8           0       -0.923896    1.586087    4.516512
     14          8           0       -5.849818    4.432551    0.130206
     15          6           0       -6.066753    5.083686   -1.107036
     16          1           0       -4.638275    4.024267    2.367576
     17          1           0       -4.482845    3.126248   -1.845218
     18          1           0       -2.492075    1.692953   -1.439600
     19          1           0        0.113167    0.422167    2.346033
     20          1           0       -1.584676    2.171516    4.967430
     21          1           0       -6.914862    5.759199   -0.969457
     22          1           0       -6.321532    4.381925   -1.912299
     23          1           0       -5.190074    5.672625   -1.417734
 ---------------------------------------------------------------------

 SCF Done:  E(UB3LYP) =  -725.057224590     a.u. after    1 cycles
 SCF Done:  E(UB3LYP) =  -725.057224590     A.U. after    4 cycles

 Alpha  occ. eigenvalues --  -18.92844 -18.89023 -18.80482 -18.79666 -10.01756
 Alpha  occ. eigenvalues --   -9.99173  -9.96129  -9.95778  -9.94463  -9.93222
 Alpha  occ. eigenvalues --   -9.93066  -9.92218  -9.92013  -9.91276  -9.89725
 Alpha  occ. eigenvalues --   -0.83722  -0.80247  -0.71308  -0.70387  -0.60677
 Alpha  occ. eigenvalues --   -0.54480  -0.52023  -0.49122  -0.46601  -0.41635
 Alpha  occ. eigenvalues --   -0.37408  -0.35592  -0.31906  -0.30126  -0.27568
 Alpha  occ. eigenvalues --   -0.25617  -0.24831  -0.23275  -0.22040  -0.20056
 Alpha  occ. eigenvalues --   -0.18251  -0.17754  -0.16452  -0.15399  -0.14080
 Alpha  occ. eigenvalues --   -0.13932  -0.13019  -0.12056  -0.10910  -0.09532
 Alpha  occ. eigenvalues --   -0.08485  -0.08148  -0.06249  -0.00507   0.01078
 Alpha  occ. eigenvalues --    0.01211   0.02740   0.03066   0.12184
 Alpha virt. eigenvalues --    0.13660   0.16834   0.18326   0.19022   0.19610
 Alpha virt. eigenvalues --    0.20041   0.20990   0.21656   0.22516   0.23418
 Alpha virt. eigenvalues --    0.24064   0.25863   0.26501   0.26847   0.27046

  Beta  occ. eigenvalues --  -18.92844 -18.89023 -18.80482 -18.79666 -10.01756
  Beta  occ. eigenvalues --   -9.99173  -9.96129  -9.95778  -9.94463  -9.93222
  Beta  occ. eigenvalues --   -9.93066  -9.92218  -9.92013  -9.91276  -9.89725
  Beta  occ. eigenvalues --   -0.83722  -0.80247  -0.71308  -0.70387  -0.60677
  Beta  occ. eigenvalues --   -0.54480  -0.52023  -0.49122  -0.46601  -0.41635
  Beta  occ. eigenvalues --   -0.37408  -0.35592  -0.31906  -0.30126  -0.27568
  Beta  occ. eigenvalues --   -0.25617  -0.24831  -0.23275  -0.22040  -0.20056
  Beta  occ. eigenvalues --   -0.18251  -0.17754  -0.16452  -0.15399  -0.14080
  Beta  occ. eigenvalues --   -0.13932  -0.13019  -0.12056  -0.10910  -0.09532
  Beta  occ. eigenvalues --   -0.08485  -0.08148  -0.06249  -0.00507   0.01078
  Beta  occ. eigenvalues --    0.01211   0.02740   0.03066   0.12184
  Beta virt. eigenvalues --    0.13660   0.16834   0.18326   0.19022   0.19610
  Beta virt. eigenvalues --    0.20041   0.20990   0.21656   0.22516   0.23418
  Beta virt. eigenvalues --    0.24064   0.25863   0.26501   0.26847   0.27046

 Mulliken charges and spin densities:
               1          2
     1  C   -0.783931  -0.000000
     2  C   -0.976787  -0.000000
     3  C    0.760983   0.000000
     4  C    0.383731  -0.000000
     5  C    0.902552   0.000000
     6  C    0.359460  -0.000000
     7  C   -1.354687  -0.000000
     8  C   -0.212339   0.000000
     9  C    0.762143   0.000000
    10  C   -0.800272   0.000000
    11  O   -0.560307   0.000000
    12  O   -0.504095   0.000000
    13  O   -0.316988  -0.000000
    14  O   -0.231842   0.000000
    15  C    1.294871   0.000000
    16  H    0.185434   0.000000
    17  H    0.157818   0.000000
    18  H    0.092184  -0.000000
    19  H    0.103873   0.000000
    20  H    0.240824  -0.000000
    21  H   -0.976336  -0.000000
    22  H   -0.516559  -0.000000
    23  H   -0.009730   0.000000
 Sum of Mulliken charges =  -2.00000  -0.00000

 Dipole moment (field-independent basis, Debye):
    X=             29.8175    Y=            -25.8510    Z=            -11.6213  Tot=             41.1390
 Quadrupole moment (field-independent basis, Debye-Ang):
   XX=           -260.5051   YY=           -210.3265   ZZ=           -171.2771
   XY=            127.8014   XZ=             11.5431   YZ=            -21.2283

  Exact polarizability: 987.517-547.427 735.823 440.052-218.119 747.540
 Approx polarizability:4771.915********2767.2913308.527********3033.973

                      1                      2                      3
                      A                      A                      A
 Frequencies --     40.2669                89.8368               105.7536
 Red. masses --      2.9699                 6.2851                 5.0936
 Frc consts  --      0.0028                 0.0299                 0.0336
 IR Inten    --      8.3027                 2.0764                 6.9712

                      4                      5                      6
                      A                      A                      A
 Frequencies --    163.1818               176.0747               215.3458
 Red. masses --      6.1515                 6.5437                 1.5170
 Frc consts  --      0.0965                 0.1195                 0.0414
 IR Inten    --      4.4033                 2.6887                27.4952

                      7                      8                      9
                      A                      A                      A
 Frequencies --    247.7545               276.6307               314.6861
 Red. masses --      3.3633                 3.2756                 7.8082
 Frc consts  --      0.1216                 0.1477                 0.4556
 IR Inten    --      9.3466                13.4994                 4.9899

                     10                     11                     12
                      A                      A                      A
 Frequencies --    326.8457               337.0693               370.8912
 Red. masses --      5.8139                 5.7639                 6.3301
 Frc consts  --      0.3659                 0.3858                 0.5130
 IR Inten    --     31.1130                 7.3034                 6.8267

                     13                     14                     15
                      A                      A                      A
 Frequencies --    401.4901               426.7832               463.1133
 Red. masses --      8.2387                 8.2193                 3.3448
 Frc consts  --      0.7825                 0.8821                 0.4227
 IR Inten    --     93.4966               134.6095                 8.3427

                     16                     17                     18
                      A                      A                      A
 Frequencies --    489.3232               524.2017               585.0583
 Red. masses --     10.4385                 4.8036                 4.1003
 Frc consts  --      1.4726                 0.7777                 0.8269
 IR Inten    --    515.4823                14.8509                 7.0644

                     19                     20                     21
                      A                      A                      A
 Frequencies --    641.7533               658.4264               680.2550
 Red. masses --      6.0533                 2.1320                 6.3818
 Frc consts  --      1.4688                 0.5446                 1.7400
 IR Inten    --     18.0014                 2.3642                30.9292

                     22                     23                     24
                      A                      A                      A
 Frequencies --    700.3905               719.4885               724.1129
 Red. masses --      4.9480                 9.5887                 2.3544
 Frc consts  --      1.4301                 2.9245                 0.7273
 IR Inten    --     15.3923                 8.1402                 5.0052

                     25                     26                     27
                      A                      A                      A
 Frequencies --    756.8741               762.0217               788.7563
 Red. masses --      6.0527                 1.8600                 1.2449
 Frc consts  --      2.0429                 0.6364                 0.4563
 IR Inten    --     98.8174                 2.0270                49.7212

                     28                     29                     30
                      A                      A                      A
 Frequencies --    804.1338               880.1177               886.9759
 Red. masses --      1.8489                 4.6968                 1.4643
 Frc consts  --      0.7044                 2.1436                 0.6787
 IR Inten    --     57.3637                19.1855                17.3122

                     31                     32                     33
                      A                      A                      A
 Frequencies --    957.6131              1016.6698              1038.8194
 Red. masses --      1.3192                 3.3966                 3.8486
 Frc consts  --      0.7128                 2.0685                 2.4470
 IR Inten    --      3.3076                32.1628               303.4240

                     34                     35                     36
                      A                      A                      A
 Frequencies --   1088.8938              1134.0321              1146.2483
 Red. masses --      2.7639                 2.2486                 2.2224
 Frc consts  --      1.9308                 1.7038                 1.7204
 IR Inten    --     27.4732               423.7305               124.5200

                     37                     38                     39
                      A                      A                      A
 Frequencies --   1163.4599              1177.0272              1193.1408
 Red. masses --      1.3122                 2.1015                 2.6320
 Frc consts  --      1.0465                 1.7153                 2.2076
 IR Inten    --     45.4728               209.9788               107.2869

                     40                     41                     42
                      A                      A                      A
 Frequencies --   1202.1285              1233.6256              1251.4635
 Red. masses --      1.6777                 4.0969                 1.8554
 Frc consts  --      1.4285                 3.6734                 1.7120
 IR Inten    --    405.6219               547.7541                80.8064

                     43                     44                     45
                      A                      A                      A
 Frequencies --   1324.4087              1338.5924              1420.4964
 Red. masses --      2.8089                 4.3337                 3.6407
 Frc consts  --      2.9029                 4.5752                 4.3283
 IR Inten    --   1027.3634               469.0784              2579.6191

                     46                     47                     48
                      A                      A                      A
 Frequencies --   1423.2287              1438.9791              1455.8676
 Red. masses --      4.8811                 3.2632                 1.4230
 Frc consts  --      5.8253                 3.9811                 1.7771
 IR Inten    --   2034.4823               715.7710               291.4111

                     49                     50                     51
                      A                      A                      A
 Frequencies --   1478.5428              1484.8093              1503.6300
 Red. masses --      1.2141                 2.3680                 1.0898
 Frc consts  --      1.5638                 3.0759                 1.4517
 IR Inten    --     77.9412               670.2416               182.1361

                     52                     53                     54
                      A                      A                      A
 Frequencies --   1520.6491              1554.1214              1593.1128
 Red. masses --      4.9066                 3.2882                 4.4033
 Frc consts  --      6.6849                 4.6793                 6.5845
 IR Inten    --    190.3109               152.3694               974.5163

                     55                     56                     57
                      A                      A                      A
 Frequencies --   1601.7847              2947.5856              3004.2785
 Red. masses --      6.4599                 1.0376                 1.1012
 Frc consts  --      9.7653                 5.3116                 5.8557
 IR Inten    --   2220.8232                57.6975                38.6745

                     58                     59                     60
                      A                      A                      A
 Frequencies --   3070.1125              3136.8698              3150.0703
 Red. masses --      1.0971                 1.0883                 1.0856
 Frc consts  --      6.0927                 6.3097                 6.3467
 IR Inten    --     88.4142               239.1250                 3.4995

                     61                     62                     63
                      A                      A                      A
 Frequencies --   3171.3072              3179.0941              3329.5640
 Red. masses --      1.0918                 1.0890                 1.0635
 Frc consts  --      6.4696                 6.4848                 6.9465
 IR Inten    --     30.2458                10.8618               323.7038

 - Thermochemistry -
 -------------------
 Temperature   298.150 Kelvin.  Pressure   1.00000 Atm.
 Atom     1 has atomic number  6 and mass  12.00000

 Molecular mass:   204.04226 amu.
 Principal axes and moments of inertia in atomic units:
                           1         2         3
     Eigenvalues --  1664.455254361.730805994.27185
           X            0.68848  -0.38279   0.61601
           Y           -0.45217   0.43752   0.77725
           Z            0.56704   0.81367  -0.12813
 This molecule is an asymmetric top.
 Rotational symmetry number  1.
 Warning -- assumption of classical behavior for rotation
           may cause significant error
 Rotational temperatures (Kelvin)      0.05204     0.01986     0.01445
 Rotational constants (GHZ):           1.08428     0.41377     0.30108
 Zero-point vibrational energy     432377.3 (Joules/Mol)
                                  103.34066 (Kcal/Mol)
 Warning -- explicit consideration of  18 degrees of freedom as
           vibrations may cause significant error
 Vibrational temperatures:     57.94   129.26   152.16   234.78   253.33
          (Kelvin)            309.83   356.46   398.01   452.76   470.26
                              484.97   533.63   577.65   614.05   666.32
                              704.03   754.21   841.77   923.34   947.33
                              978.74  1007.71  1035.18  1041.84  1088.97
                             1096.38  1134.84  1156.97  1266.29  1276.16
                             1377.79  1462.76  1494.63  1566.68  1631.62
                             1649.20  1673.96  1693.48  1716.66  1729.59
                             1774.91  1800.58  1905.53  1925.94  2043.78
                             2047.71  2070.37  2094.67  2127.29  2136.31
                             2163.39  2187.87  2236.03  2292.13  2304.61
                             4240.92  4322.49  4417.21  4513.26  4532.25
                             4562.80  4574.01  4790.50

 Zero-point correction=                           0.164684 (Hartree/Particle)
 Thermal correction to Energy=                    0.177024
 Thermal correction to Enthalpy=                  0.177968
 Thermal correction to Gibbs Free Energy=         0.125842
 Sum of electronic and zero-point Energies=           -724.892541
 Sum of electronic and thermal Energies=              -724.880201
 Sum of electronic and thermal Enthalpies=            -724.879257
 Sum of electronic and thermal Free Energies=         -724.931382

                     E (Thermal)             CV                S
                      KCal/Mol        Cal/Mol-Kelvin    Cal/Mol-Kelvin
 Total                  111.084             48.219            109.707
 Electronic               0.000              0.000              0.000
 Translational            0.889              2.981             41.844
 Rotational               0.889              2.981             32.143
 Vibrational            109.307             42.257             35.721
 Vibration     1          0.594              1.981              5.246
 Vibration     2          0.602              1.956              3.664
 Vibration     3          0.605              1.945              3.345
 Vibration     4          0.623              1.888              2.513
 Vibration     5          0.628              1.872              2.370
 Vibration     6          0.645              1.818              1.998
 Vibration     7          0.661              1.766              1.747
 Vibration     8          0.678              1.717              1.554
 Vibration     9          0.702              1.646              1.338
 Vibration    10          0.711              1.622              1.276
 Vibration    11          0.718              1.601              1.226
 Vibration    12          0.743              1.532              1.076
 Vibration    13          0.767              1.467              0.957
 Vibration    14          0.788              1.412              0.869
 Vibration    15          0.821              1.332              0.757
 Vibration    16          0.845              1.274              0.685
 Vibration    17          0.879              1.196              0.600
 Vibration    18          0.942              1.064              0.476

 Optimization completed.
    -- Stationary point found.
 Normal termination of Gaussian 16 at Thu Dec 28 22:25:09 2023.
