 Gaussian 16, Revision A.03,
 Gaussian 16:  ES64L-G16RevA.03 25-Dec-2016

 --------------------------------------
 #P UB3LYP/6-311++G(d,p) nosym opt freq
 --------------------------------------

 -------
 Radical
 -------
 Symbolic Z-matrix:
 Charge = -1 Multiplicity = 2

 SCF Done:  E(UB3LYP) =  -1608.21624180     A.U. after   26 cycles
 SCF Done:  E(UB3LYP) =  -1608.24387923     A.U. after   20 cycles
 SCF Done:  E(UB3LYP) =  -1608.24912288     A.U. after   20 cycles
 SCF Done:  E(UB3LYP) =  -1608.24950421     A.U. after   16 cycles
 SCF Done:  E(UB3LYP) =  -1608.24954696     A.U. after   15 cycles
 SCF Done:  E(UB3LYP) =  -1608.24954911     A.U. after   14 cycles
 SCF Done:  E(UB3LYP) =  -1608.24954944     A.U. after   12 cycles
 Optimization completed.
    -- Stationary point found.
 Normal termination of Gaussian 16 at Thu Dec 21 06:22:40 2023.

 ----------------------------------------------------------------------
 #P Geom=AllCheck Guess=TCheck SCRF=Check GenChk UB3LYP/6-311++G(d,p) F
 req
 ----------------------------------------------------------------------

 Structure from the checkpoint file:  "121-rad.chk"
 -------
 Radical
 -------
 Charge = -1 Multiplicity = 2

                          Input orientation:
 ---------------------------------------------------------------------
 Center     Atomic      Atomic             Coordinates (Angstroms)
 Number     Number       Type             X           Y           Z
 ---------------------------------------------------------------------
      1         17           0        2.639351    3.190829   -0.519948
      2          6           0        2.485832    1.452552   -0.208255
      3          6           0        3.686601    0.786728   -0.060976
      4          6           0        3.697740   -0.596038    0.189935
      5          6           0        2.506615   -1.279279    0.287456
      6          6           0        1.270203   -0.618664    0.140326
      7          6           0        0.065242   -1.460094    0.266156
      8          8           0        0.183310   -2.684504    0.490722
      9          6           0       -1.228963   -0.790727    0.116103
     10          6           0       -2.485738   -1.452514    0.208248
     11         17           0       -2.638881   -3.190850    0.519958
     12          6           0       -3.686577   -0.786796    0.060994
     13          6           0       -3.697800    0.595961   -0.189916
     14          6           0       -2.506713    1.279294   -0.287461
     15          6           0       -1.270250    0.618747   -0.140350
     16          6           0       -0.065304    1.460183   -0.266189
     17          8           0       -0.183538    2.684572   -0.490738
     18          6           0        1.228964    0.790842   -0.116133
     19          1           0        4.612045    1.343374   -0.141393
     20          1           0        4.645096   -1.112955    0.304590
     21          1           0        2.472978   -2.344141    0.479731
     22          1           0       -4.611962   -1.343535    0.141434
     23          1           0       -4.645169    1.112858   -0.304561
     24          1           0       -2.473081    2.344155   -0.479734
 ---------------------------------------------------------------------

 SCF Done:  E(UB3LYP) =  -1608.24954944     A.U. after    2 cycles

 Alpha  occ. eigenvalues -- -101.43171-101.43170 -18.95476 -18.95475 -10.12602
 Alpha  occ. eigenvalues --  -10.12601 -10.11154 -10.11153 -10.07485 -10.07483
 Alpha  occ. eigenvalues --  -10.07280 -10.07280 -10.07117 -10.07117 -10.06652
 Alpha  occ. eigenvalues --  -10.06651 -10.06052 -10.06052  -9.34644  -9.34643
 Alpha  occ. eigenvalues --   -7.11102  -7.11100  -7.10164  -7.10162  -7.10057
 Alpha  occ. eigenvalues --   -7.10056  -0.88803  -0.88523  -0.77421  -0.77275
 Alpha  occ. eigenvalues --   -0.72651  -0.71696  -0.67872  -0.63855  -0.62738
 Alpha  occ. eigenvalues --   -0.62222  -0.55665  -0.53176  -0.51791  -0.47171
 Alpha  occ. eigenvalues --   -0.43742  -0.43601  -0.41535  -0.36839  -0.36447
 Alpha  occ. eigenvalues --   -0.35810  -0.35695  -0.31970  -0.31835  -0.31449
 Alpha  occ. eigenvalues --   -0.31135  -0.29507  -0.29486  -0.28232  -0.27511
 Alpha  occ. eigenvalues --   -0.26293  -0.25156  -0.24922  -0.24703  -0.23410
 Alpha  occ. eigenvalues --   -0.21529  -0.21306  -0.19972  -0.19668  -0.15728
 Alpha  occ. eigenvalues --   -0.14585  -0.13724  -0.13668  -0.12073  -0.11034
 Alpha  occ. eigenvalues --   -0.02543
 Alpha virt. eigenvalues --    0.05369   0.07984   0.08037   0.08101   0.09920
 Alpha virt. eigenvalues --    0.10123   0.10342   0.11149   0.11927   0.12923
 Alpha virt. eigenvalues --    0.12978   0.14710   0.14934   0.15073   0.15448

  Beta  occ. eigenvalues -- -101.43169-101.43168 -18.94857 -18.94857 -10.12603
  Beta  occ. eigenvalues --  -10.12602 -10.11045 -10.11044 -10.07400 -10.07398
  Beta  occ. eigenvalues --  -10.07235 -10.07235 -10.07049 -10.07049 -10.06539
  Beta  occ. eigenvalues --  -10.06538 -10.06074 -10.06074  -9.34642  -9.34641
  Beta  occ. eigenvalues --   -7.11102  -7.11100  -7.10157  -7.10155  -7.10057
  Beta  occ. eigenvalues --   -7.10055  -0.87774  -0.87458  -0.77260  -0.77197
  Beta  occ. eigenvalues --   -0.72485  -0.71613  -0.67492  -0.63645  -0.62482
  Beta  occ. eigenvalues --   -0.62119  -0.54988  -0.52999  -0.51528  -0.47091
  Beta  occ. eigenvalues --   -0.43540  -0.43358  -0.41421  -0.36764  -0.36146
  Beta  occ. eigenvalues --   -0.35648  -0.35628  -0.31929  -0.31808  -0.31005
  Beta  occ. eigenvalues --   -0.30471  -0.29187  -0.29042  -0.27902  -0.27187
  Beta  occ. eigenvalues --   -0.25120  -0.24563  -0.24330  -0.24058  -0.23204
  Beta  occ. eigenvalues --   -0.20924  -0.20750  -0.19882  -0.19620  -0.13962
  Beta  occ. eigenvalues --   -0.13752  -0.12933  -0.12900  -0.11526  -0.10492
  Beta virt. eigenvalues --    0.03407   0.06216   0.08034   0.08096   0.09133
  Beta virt. eigenvalues --    0.10113   0.10123   0.10341   0.11156   0.11930
  Beta virt. eigenvalues --    0.12937   0.12971   0.14754   0.14954   0.15460

 Mulliken charges and spin densities:
               1          2
     1  Cl   0.365995  -0.001136
     2  C    0.930117   0.024247
     3  C   -0.170018   0.037591
     4  C   -0.604495   0.052076
     5  C    0.504484   0.016883
     6  C    0.335974   0.070196
     7  C   -1.936647   0.038343
     8  O   -0.231403   0.230636
     9  C   -0.152903   0.039516
    10  C    0.930056   0.024237
    11  Cl   0.365887  -0.001137
    12  C   -0.169975   0.037598
    13  C   -0.604341   0.052052
    14  C    0.504290   0.016895
    15  C    0.335610   0.070188
    16  C   -1.936609   0.038343
    17  O   -0.231476   0.230641
    18  C   -0.153065   0.039555
    19  H    0.155150  -0.003095
    20  H    0.129891  -0.004212
    21  H    0.174225  -0.001055
    22  H    0.155137  -0.003095
    23  H    0.129896  -0.004210
    24  H    0.174218  -0.001057
 Sum of Mulliken charges =  -1.00000   1.00000

 Dipole moment (field-independent basis, Debye):
    X=              0.0003    Y=             -0.0002    Z=              0.0000  Tot=              0.0004
 Quadrupole moment (field-independent basis, Debye-Ang):
   XX=           -130.5551   YY=           -160.0967   ZZ=           -124.3774
   XY=            -11.4725   XZ=              1.9174   YZ=              6.4250

  Exact polarizability: 341.121  24.429 261.006   0.856 -28.186 107.669
 Approx polarizability: 512.366   5.662 481.823   6.664 -57.304 175.572

                      1                      2                      3
                      A                      A                      A
 Frequencies --     20.4237                47.5470                56.0139
 Red. masses --     15.9675                 6.9082                13.9656
 Frc consts  --      0.0039                 0.0092                 0.0258
 IR Inten    --      2.4493                 4.4573                 0.0000

                      4                      5                      6
                      A                      A                      A
 Frequencies --    156.4774               161.7877               195.4678
 Red. masses --      6.7187                11.8894                 4.6211
 Frc consts  --      0.0969                 0.1834                 0.1040
 IR Inten    --      1.5605                 3.2464                 0.0000

                      7                      8                      9
                      A                      A                      A
 Frequencies --    199.9265               208.8395               260.8779
 Red. masses --     22.8802                 5.2465                 6.1318
 Frc consts  --      0.5388                 0.1348                 0.2459
 IR Inten    --      0.0000                 0.1454                 0.0000

                     10                     11                     12
                      A                      A                      A
 Frequencies --    325.3247               332.9400               358.1503
 Red. masses --     11.7677                17.0036                 6.2697
 Frc consts  --      0.7338                 1.1105                 0.4738
 IR Inten    --      0.1336                 0.0000                 0.0000

                     13                     14                     15
                      A                      A                      A
 Frequencies --    401.8807               412.7161               412.8752
 Red. masses --     13.1016                 8.2425                 6.3281
 Frc consts  --      1.2467                 0.8272                 0.6356
 IR Inten    --      4.9585                 0.0001                 0.0000

                     16                     17                     18
                      A                      A                      A
 Frequencies --    414.3517               482.5581               490.0202
 Red. masses --      8.1724                 9.5901                 4.4032
 Frc consts  --      0.8267                 1.3157                 0.6229
 IR Inten    --     11.9086                 0.0000                 2.2434

                     19                     20                     21
                      A                      A                      A
 Frequencies --    504.0154               509.1792               552.8531
 Red. masses --     11.7223                 4.8367                 5.0237
 Frc consts  --      1.7545                 0.7388                 0.9047
 IR Inten    --      0.0000                 0.4094                 0.0000

                     22                     23                     24
                      A                      A                      A
 Frequencies --    613.5651               636.2187               697.4873
 Red. masses --      6.5599                 4.9902                 7.1623
 Frc consts  --      1.4550                 1.1901                 2.0529
 IR Inten    --     15.3215                 0.0000                 0.0000

                     25                     26                     27
                      A                      A                      A
 Frequencies --    708.8165               709.9235               744.2122
 Red. masses --      8.4731                 2.5499                 7.1193
 Frc consts  --      2.5082                 0.7572                 2.3232
 IR Inten    --    109.8602                45.8557                12.9248

                     28                     29                     30
                      A                      A                      A
 Frequencies --    764.5600               794.4686               794.5152
 Red. masses --      1.3738                 8.6042                 1.7878
 Frc consts  --      0.4731                 3.1997                 0.6649
 IR Inten    --      0.0000                 0.0000                51.9334

                     31                     32                     33
                      A                      A                      A
 Frequencies --    819.7893               821.2997               894.1610
 Red. masses --      7.0690                 4.9424                 1.3680
 Frc consts  --      2.7991                 1.9642                 0.6444
 IR Inten    --     20.4572                 0.0000                 0.0000

                     34                     35                     36
                      A                      A                      A
 Frequencies --    897.4644               932.4780               973.0929
 Red. masses --      1.3703                 6.7617                 8.4534
 Frc consts  --      0.6503                 3.4640                 4.7162
 IR Inten    --      0.0586                 0.0000                46.2780

                     37                     38                     39
                      A                      A                      A
 Frequencies --    990.2212               991.1225              1083.9944
 Red. masses --      1.3076                 1.3127                 2.2404
 Frc consts  --      0.7554                 0.7598                 1.5511
 IR Inten    --      0.0000                 3.1076                 0.0000

                     40                     41                     42
                      A                      A                      A
 Frequencies --   1088.7676              1118.6254              1125.8020
 Red. masses --      1.9741                 2.8581                 2.8763
 Frc consts  --      1.3787                 2.1072                 2.1479
 IR Inten    --     73.5450                32.8496                 0.0000

                     43                     44                     45
                      A                      A                      A
 Frequencies --   1158.8494              1182.5439              1190.5968
 Red. masses --      2.7070                 1.3711                 2.3355
 Frc consts  --      2.1419                 1.1297                 1.9506
 IR Inten    --     59.9291                 0.0000                 0.0000

                     46                     47                     48
                      A                      A                      A
 Frequencies --   1201.6706              1226.0162              1315.4018
 Red. masses --      2.2782                 2.0596                 2.8593
 Frc consts  --      1.9382                 1.8240                 2.9150
 IR Inten    --     57.1882                23.8667                 0.0001

                     49                     50                     51
                      A                      A                      A
 Frequencies --   1331.2845              1351.5322              1385.8137
 Red. masses --     10.1849                 6.4458                 3.5627
 Frc consts  --     10.6353                 6.9371                 4.0313
 IR Inten    --     36.2341                 0.0000               241.8804

                     52                     53                     54
                      A                      A                      A
 Frequencies --   1425.0561              1435.9497              1469.9877
 Red. masses --      2.3210                 3.9397                 2.8436
 Frc consts  --      2.7771                 4.7863                 3.6203
 IR Inten    --    117.3660                 0.0001                 0.0000

                     55                     56                     57
                      A                      A                      A
 Frequencies --   1527.3192              1536.1037              1548.5000
 Red. masses --      5.3610                 7.6097                 5.2116
 Frc consts  --      7.3682                10.5794                 7.3628
 IR Inten    --    782.2571                 0.0007               116.2339

                     58                     59                     60
                      A                      A                      A
 Frequencies --   1603.6508              1614.4369              1621.8678
 Red. masses --      6.2325                 7.9735                 7.1017
 Frc consts  --      9.4434                12.2446                11.0064
 IR Inten    --      0.0000                 0.0000                22.8703

                     61                     62                     63
                      A                      A                      A
 Frequencies --   3152.2323              3152.4918              3185.9018
 Red. masses --      1.0870                 1.0872                 1.0921
 Frc consts  --      6.3639                 6.3662                 6.5312
 IR Inten    --     51.9028                 0.0104                27.4346

                     64                     65                     66
                      A                      A                      A
 Frequencies --   3185.9943              3197.7749              3198.0434
 Red. masses --      1.0921                 1.0923                 1.0923
 Frc consts  --      6.5311                 6.5807                 6.5821
 IR Inten    --      0.2581                28.7276                 0.0074

 - Thermochemistry -
 -------------------
 Temperature   298.150 Kelvin.  Pressure   1.00000 Atm.
 Atom     1 has atomic number 17 and mass  34.96885

 Molecular mass:   275.97448 amu.
 Principal axes and moments of inertia in atomic units:
                           1         2         3
     Eigenvalues --  2731.284717259.338289990.62299
           X            0.81920  -0.57310  -0.02179
           Y            0.56722   0.80402   0.17833
           Z           -0.08468  -0.15845   0.98373
 This molecule is an asymmetric top.
 Rotational symmetry number  1.
 Warning -- assumption of classical behavior for rotation
           may cause significant error
 Rotational temperatures (Kelvin)      0.03171     0.01193     0.00867
 Rotational constants (GHZ):           0.66077     0.24861     0.18064
 Zero-point vibrational energy     412136.4 (Joules/Mol)
                                   98.50297 (Kcal/Mol)
 Warning -- explicit consideration of  22 degrees of freedom as
           vibrations may cause significant error
 Vibrational temperatures:     29.39    68.41    80.59   225.14   232.78
          (Kelvin)            281.23   287.65   300.47   375.35   468.07
                              479.03   515.30   578.22   593.81   594.04
                              596.16   694.29   705.03   725.17   732.60
                              795.43   882.78   915.38  1003.53  1019.83
                             1021.42  1070.76  1100.03  1143.06  1143.13
                             1179.49  1181.67  1286.50  1291.25  1341.63
                             1400.06  1424.71  1426.00  1559.63  1566.49
                             1609.45  1619.78  1667.33  1701.42  1713.00
                             1728.94  1763.96  1892.57  1915.42  1944.55
                             1993.88  2050.34  2066.01  2114.98  2197.47
                             2210.11  2227.95  2307.30  2322.81  2333.51
                             4535.36  4535.73  4583.80  4583.94  4600.88
                             4601.27

 Zero-point correction=                           0.156974 (Hartree/Particle)
 Thermal correction to Energy=                    0.170839
 Thermal correction to Enthalpy=                  0.171783
 Thermal correction to Gibbs Free Energy=         0.113839
 Sum of electronic and zero-point Energies=          -1608.092575
 Sum of electronic and thermal Energies=             -1608.078711
 Sum of electronic and thermal Enthalpies=           -1608.077766
 Sum of electronic and thermal Free Energies=        -1608.135710

                     E (Thermal)             CV                S
                      KCal/Mol        Cal/Mol-Kelvin    Cal/Mol-Kelvin
 Total                  107.203             54.063            121.953
 Electronic               0.000              0.000              1.377
 Translational            0.889              2.981             42.744
 Rotational               0.889              2.981             33.648
 Vibrational            105.426             48.102             44.183
 Vibration     1          0.593              1.986              6.593
 Vibration     2          0.595              1.979              4.917
 Vibration     3          0.596              1.975              4.593
 Vibration     4          0.620              1.895              2.592
 Vibration     5          0.622              1.889              2.529
 Vibration     6          0.636              1.846              2.175
 Vibration     7          0.638              1.840              2.134
 Vibration     8          0.642              1.827              2.054
 Vibration     9          0.669              1.744              1.656
 Vibration    10          0.709              1.625              1.283
 Vibration    11          0.715              1.610              1.246
 Vibration    12          0.733              1.558              1.130
 Vibration    13          0.767              1.466              0.956
 Vibration    14          0.776              1.443              0.917
 Vibration    15          0.777              1.442              0.917
 Vibration    16          0.778              1.439              0.911
 Vibration    17          0.839              1.289              0.703
 Vibration    18          0.846              1.272              0.684
 Vibration    19          0.859              1.241              0.648
 Vibration    20          0.864              1.230              0.636
 Vibration    21          0.908              1.133              0.538
 Vibration    22          0.973              1.003              0.427

 Optimization completed.
    -- Stationary point found.
 Normal termination of Gaussian 16 at Thu Dec 21 07:34:42 2023.
