 Q-Chem 5.4, Q-Chem, Inc., Pleasanton, CA (2021)
 Q-Chem 5.4.0 for Intel X86 EM64T Linux

User input:
--------------------------------------------------------------
$molecule
0 1
C                 -0.2232580000      3.8392630000     -0.1334010000
C                 -1.4506300000      3.2017420000     -0.2859260000
C                 -1.4965410000      1.8377530000     -0.5800620000
C                  0.9588340000      3.1087100000     -0.2762220000
C                  0.9159230000      1.7363390000     -0.5718420000
C                 -0.3184360000      1.1068310000     -0.7222110000
C                  2.2671490000      3.7692460000     -0.1174410000
C                  3.4983750000      2.9449520000     -0.2860510000
C                  3.4825090000      1.6174470000     -0.5613790000
C                  2.1802090000      0.9384530000     -0.7270400000
O                  2.4081260000      4.9584630000      0.1451680000
O                  2.1227100000     -0.2562120000     -0.9832910000
H                 -0.1619330000      4.8961910000      0.0953360000
H                 -2.3701930000      3.7648520000     -0.1763370000
H                 -2.4538220000      1.3429030000     -0.6986550000
H                 -0.3360830000      0.0482790000     -0.9499250000
O                  4.6404860000      3.6347630000     -0.1326300000
C                  4.7404100000      0.8143400000     -0.7374980000
C                  5.1998460000      0.7378440000     -2.2095510000
C                  6.4756190000     -0.0924740000     -2.3838170000
C                  6.9498640000     -0.1790660000     -3.8389170000
C                  8.2253830000     -1.0097340000     -4.0191860000
H                  4.3765590000      4.5520250000      0.0719380000
H                  4.5583940000     -0.1989380000     -0.3708750000
H                  5.5361290000      1.2579230000     -0.1335960000
H                  5.3677810000      1.7530790000     -2.5865500000
H                  4.3948830000      0.3037010000     -2.8119220000
H                  6.3023440000     -1.1050610000     -1.9979900000
H                  7.2752460000      0.3376440000     -1.7670090000
H                  7.1208550000      0.8343100000     -4.2247140000
H                  6.1489730000     -0.6078930000     -4.4548450000
H                  8.0550610000     -2.0232880000     -3.6331850000
H                  9.0269990000     -0.5815860000     -3.4031180000
C                  8.7014470000     -1.0985970000     -5.4736190000
C                  9.9759540000     -1.9304470000     -5.6443560000
H                  8.8720670000     -0.0860900000     -5.8594980000
H                  7.9009520000     -1.5268670000     -6.0891550000
H                 10.8049630000     -1.5068880000     -5.0684330000
H                 10.2880190000     -1.9741920000     -6.6916100000
H                  9.8264460000     -2.9585200000     -5.2993650000
$end
$rem
MAX_SCF_CYCLES=200
SCF_Guess=core
BASIS  =  6-311++G(d,p)
GUI  =  2
JOB_TYPE  =  SP
METHOD  =  B3LYP
THRESH = 14
SCF_CONVERGENCE = 8
SOLVENT_METHOD = COSMO
$end
$solvent
dielectric 37.219
opticaldielectric 1.43
$end

--------------------------------------------------------------

             Standard Nuclear Orientation (Angstroms)
    I     Atom           X                Y                Z
 ----------------------------------------------------------------
    1      C       4.8167776250    -0.2359298975    -0.7746985892
    2      C       5.4981596563     0.9747918550    -0.8522246672
    3      C       4.8716080412     2.1551129606    -0.4480403530
    4      C       3.5062017540    -0.2631097707    -0.2918951496
    5      C       2.8732691993     0.9225826329     0.1157377800
    6      C       3.5644164468     2.1301742039     0.0346737375
    7      C       2.7707508327    -1.5376518257    -0.2032281049
    8      C       1.3722071964    -1.5103443335     0.3136252512
    9      C       0.7436614596    -0.3806496349     0.7223389741
   10      C       1.4639962062     0.9071701148     0.6380783424
   11      O       3.2375638945    -2.6234362837    -0.5291617647
   12      O       0.9298690677     1.9499193607     0.9896140908
   13      H       5.2816896818    -1.1647645400    -1.0817835191
   14      H       6.5149748803     1.0004592025    -1.2265597038
   15      H       5.4041440327     3.0974367089    -0.5093519049
   16      H       3.0637819018     3.0362551616     0.3526041851
   17      O       0.7811700868    -2.7158526655     0.3485473342
   18      C      -0.6714304137    -0.3819893240     1.2281322882
   19      C      -1.7050969736    -0.1116502451     0.1135366950
   20      C      -3.1446632334    -0.1020502329     0.6378936256
   21      C      -4.1871011389     0.1628275824    -0.4542993338
   22      C      -5.6291675051     0.1747141463     0.0650832451
   23      H       1.4451487515    -3.3517519964     0.0204627746
   24      H      -0.7662301259     0.3922602846     1.9935244176
   25      H      -0.8851468425    -1.3483255256     1.6919769434
   26      H      -1.6025141824    -0.8765428662    -0.6645690590
   27      H      -1.4794844455     0.8518631276    -0.3555447107
   28      H      -3.2380815569     0.6609167070     1.4210753399
   29      H      -3.3613467181    -1.0640412622     1.1200538365
   30      H      -4.0915013710    -0.5995245845    -1.2383197561
   31      H      -3.9685039702     1.1242229019    -0.9366069209
   32      H      -5.7252942379     0.9367783447     0.8495039710
   33      H      -5.8485621848    -0.7865889014     0.5479922706
   34      C      -6.6736950529     0.4401672126    -1.0250570155
   35      C      -8.1113260724     0.4505459148    -0.4972284705
   36      H      -6.5781714489    -0.3212804656    -1.8088024376
   37      H      -6.4550324752     1.4007908734    -1.5072197107
   38      H      -8.3719848239    -0.5094982764    -0.0403722385
   39      H      -8.8304636431     0.6425721612    -1.2984813674
   40      H      -8.2476537781     1.2254514981     0.2638507759
 ----------------------------------------------------------------

   47    -885.7954621155      3.87e-09  Convergence criterion met
 Total energy in the final basis set =     -885.7954621155
   10    -885.8096227741      9.89e-09  Convergence criterion met
 Total energy in the final basis set =     -885.8096227741

                    Orbital Energies (a.u.)
 --------------------------------------------------------------

 Alpha MOs
 -- Occupied --
-19.1781 -19.1501 -19.1303 -10.2941 -10.2817 -10.2672 -10.2103 -10.2091
-10.2034 -10.2002 -10.1981 -10.1965 -10.1963 -10.1750 -10.1660 -10.1598
-10.1589 -10.1580 -10.1570 -10.1522  -1.1084  -1.0677  -1.0641  -0.8922
 -0.8437  -0.8084  -0.7912  -0.7796  -0.7684  -0.7340  -0.7006  -0.6764
 -0.6541  -0.6354  -0.6074  -0.6023  -0.5782  -0.5742  -0.5721  -0.5425
 -0.5185  -0.4976  -0.4809  -0.4764  -0.4716  -0.4688  -0.4580  -0.4518
 -0.4444  -0.4367  -0.4296  -0.4247  -0.4139  -0.4123  -0.4086  -0.3992
 -0.3841  -0.3777  -0.3762  -0.3717  -0.3697  -0.3639  -0.3418  -0.3392
 -0.3244  -0.3237  -0.3182  -0.3136  -0.3033  -0.2897  -0.2800  -0.2798
 -0.2563

          Ground-State Mulliken Net Atomic Charges

     Atom                 Charge (a.u.)
  ----------------------------------------
      1 C                     0.184611
      2 C                    -0.394874
      3 C                    -0.425235
      4 C                     0.503303
      5 C                    -0.132335
      6 C                     0.176255
      7 C                    -0.778421
      8 C                    -0.441041
      9 C                     1.878762
     10 C                    -0.771838
     11 O                    -0.331200
     12 O                    -0.297063
     13 H                     0.205429
     14 H                     0.230168
     15 H                     0.225901
     16 H                     0.204691
     17 O                    -0.238004
     18 C                    -0.389446
     19 C                    -0.616387
     20 C                    -0.094150
     21 C                    -0.108766
     22 C                    -0.282578
     23 H                     0.324470
     24 H                     0.223129
     25 H                     0.236069
     26 H                     0.179650
     27 H                     0.181166
     28 H                     0.124745
     29 H                     0.123234
     30 H                     0.130777
     31 H                     0.130753
     32 H                     0.131927
     33 H                     0.131615
     34 C                    -0.236780
     35 C                    -0.702887
     36 H                     0.136499
     37 H                     0.136371
     38 H                     0.145398
     39 H                     0.150566
     40 H                     0.145516
  ----------------------------------------
  Sum of atomic charges =     0.000000

                    Cartesian Multipole Moments
 -----------------------------------------------------------------
    Charge (ESU x 10^10)
                -0.0000
    Dipole Moment (Debye)
         X       2.8857      Y       0.2853      Z      -1.2813
       Tot       3.1702
    Quadrupole Moments (Debye-Ang)
        XX     -98.9896     XY      11.2907     YY    -124.1982
        XZ      -3.6606     YZ      -4.0551     ZZ    -123.3505

 Total job time:  615.72s(wall), 4871.59s(cpu)
        *  Thank you very much for using Q-Chem.  Have a nice day.  *
