 Gaussian 16, Revision A.03,
 Gaussian 16:  ES64L-G16RevA.03 25-Dec-2016

 ----------------------------------------------------------------
 #P UB3LYP/6-311++G(d,p) SCRF=(PCM,Solvent=n,n-DiMethylFormamide)
 ----------------------------------------------------------------

 ------------------
 Quinone PCM in DMF
 ------------------
 Symbolic Z-matrix:
 Charge =  0 Multiplicity = 1

                         Standard orientation:
 ---------------------------------------------------------------------
 Center     Atomic      Atomic             Coordinates (Angstroms)
 Number     Number       Type             X           Y           Z
 ---------------------------------------------------------------------
      1          6           0       -0.011944    1.420436   -0.000011
      2          6           0        1.293505    0.689603    0.000040
      3          6           0        1.298093   -0.660775    0.000062
      4          6           0        0.011944   -1.420436    0.000036
      5          6           0       -1.293505   -0.689602   -0.000030
      6          6           0       -1.298093    0.660776   -0.000056
      7          8           0       -0.036601    2.643420   -0.000059
      8          8           0        0.036602   -2.643419    0.000035
      9          6           0       -2.540534    1.503658   -0.000122
     10          6           0       -2.539037   -1.537098   -0.000065
     11          6           0        2.539037    1.537098    0.000064
     12          6           0        2.540534   -1.503659    0.000114
     13          1           0       -3.444919    0.898238   -0.000214
     14          1           0       -2.554965    2.162002   -0.873273
     15          1           0       -2.555103    2.161934    0.873080
     16          1           0       -2.272953   -2.592491   -0.000036
     17          1           0       -3.154159   -1.335366   -0.881653
     18          1           0       -3.154229   -1.335334    0.881468
     19          1           0        2.272953    2.592492    0.000032
     20          1           0        3.154224    1.335332   -0.881471
     21          1           0        3.154164    1.335369    0.881650
     22          1           0        3.444920   -0.898237    0.000100
     23          1           0        2.555044   -2.162007   -0.873032
     24          1           0        2.555023   -2.161929    0.873321
 ---------------------------------------------------------------------

 SCF Done:  E(UB3LYP) =  -538.888649648     A.U. after   13 cycles

 The electronic state is 1-A.
 Alpha  occ. eigenvalues --  -19.13446 -19.13446 -10.27835 -10.27834 -10.20893
 Alpha  occ. eigenvalues --  -10.20892 -10.20803 -10.20803 -10.17360 -10.17359
 Alpha  occ. eigenvalues --  -10.17179 -10.17179  -1.06748  -1.06558  -0.86534
 Alpha  occ. eigenvalues --   -0.82776  -0.75001  -0.74670  -0.71990  -0.66538
 Alpha  occ. eigenvalues --   -0.65487  -0.57754  -0.57574  -0.54082  -0.48312
 Alpha  occ. eigenvalues --   -0.46788  -0.46502  -0.44241  -0.43600  -0.43154
 Alpha  occ. eigenvalues --   -0.42018  -0.41784  -0.41231  -0.41223  -0.39822
 Alpha  occ. eigenvalues --   -0.39569  -0.39266  -0.39014  -0.38142  -0.36469
 Alpha  occ. eigenvalues --   -0.29152  -0.28928  -0.27031  -0.26548
 Alpha virt. eigenvalues --   -0.12533  -0.01635  -0.01126   0.00265   0.00577
 Alpha virt. eigenvalues --    0.01006   0.02438   0.02455   0.02888   0.03678
 Alpha virt. eigenvalues --    0.03785   0.04840   0.05354   0.05588   0.06330

  Beta  occ. eigenvalues --  -19.13446 -19.13446 -10.27835 -10.27834 -10.20893
  Beta  occ. eigenvalues --  -10.20892 -10.20803 -10.20803 -10.17360 -10.17359
  Beta  occ. eigenvalues --  -10.17179 -10.17179  -1.06748  -1.06558  -0.86534
  Beta  occ. eigenvalues --   -0.82776  -0.75001  -0.74670  -0.71990  -0.66538
  Beta  occ. eigenvalues --   -0.65487  -0.57754  -0.57574  -0.54082  -0.48312
  Beta  occ. eigenvalues --   -0.46788  -0.46502  -0.44241  -0.43600  -0.43154
  Beta  occ. eigenvalues --   -0.42018  -0.41784  -0.41231  -0.41223  -0.39822
  Beta  occ. eigenvalues --   -0.39569  -0.39266  -0.39014  -0.38142  -0.36469
  Beta  occ. eigenvalues --   -0.29152  -0.28928  -0.27031  -0.26548
  Beta virt. eigenvalues --   -0.12533  -0.01635  -0.01126   0.00265   0.00577
  Beta virt. eigenvalues --    0.01006   0.02438   0.02455   0.02888   0.03678
  Beta virt. eigenvalues --    0.03785   0.04840   0.05354   0.05588   0.06330

 Mulliken charges and spin densities:
               1          2
     1  C   -1.102274   0.000000
     2  C    0.431185   0.000000
     3  C    0.846642  -0.000000
     4  C   -1.102272  -0.000000
     5  C    0.431184  -0.000000
     6  C    0.846641   0.000000
     7  O   -0.269106   0.000000
     8  O   -0.269106  -0.000000
     9  C   -0.459294  -0.000000
    10  C   -0.541097   0.000000
    11  C   -0.541098  -0.000000
    12  C   -0.459297   0.000000
    13  H    0.173800   0.000000
    14  H    0.181837  -0.000000
    15  H    0.181845  -0.000000
    16  H    0.198741   0.000000
    17  H    0.178861  -0.000000
    18  H    0.178864  -0.000000
    19  H    0.198741  -0.000000
    20  H    0.178861   0.000000
    21  H    0.178863   0.000000
    22  H    0.173800  -0.000000
    23  H    0.181839   0.000000
    24  H    0.181843   0.000000
 Sum of Mulliken charges =  -0.00000   0.00000

 Dipole moment (field-independent basis, Debye):
    X=             -0.0000    Y=              0.0000    Z=              0.0001  Tot=              0.0001
 Quadrupole moment (field-independent basis, Debye-Ang):
   XX=            -58.5535   YY=            -91.2200   ZZ=            -70.8200
   XY=              0.0812   XZ=              0.0004   YZ=              0.0004

 Normal termination of Gaussian 16 at Sun Jan 21 07:02:00 2024.
