 Gaussian 16, Revision A.03,
 Gaussian 16:  ES64L-G16RevA.03 25-Dec-2016

 ----------------------------------------------------------------------
 #P UB3LYP/6-311++G(d,p) nosym opt freq SCRF=(PCM,Solvent=n,n-DiMethylF
 ormamide)
 ----------------------------------------------------------------------

 -------
 Reduced
 -------
 Symbolic Z-matrix:
 Charge = -2 Multiplicity = 1

 SCF Done:  E(UB3LYP) =  -767.838242584     A.U. after   18 cycles
 SCF Done:  E(UB3LYP) =  -767.840146893     A.U. after   14 cycles
 SCF Done:  E(UB3LYP) =  -767.840418896     A.U. after   13 cycles
 SCF Done:  E(UB3LYP) =  -767.840417700     A.U. after   11 cycles
 SCF Done:  E(UB3LYP) =  -767.840432345     A.U. after   11 cycles
 SCF Done:  E(UB3LYP) =  -767.840433092     A.U. after   10 cycles
 Optimization completed.
    -- Stationary point found.
 Normal termination of Gaussian 16 at Sat Feb 10 17:44:53 2024.

 ----------------------------------------------------------------------
 #P Geom=AllCheck Guess=TCheck SCRF=Check GenChk UB3LYP/6-311++G(d,p) F
 req
 ----------------------------------------------------------------------

 Structure from the checkpoint file:  "125-an.chk"
 -------
 Reduced
 -------
 Charge = -2 Multiplicity = 1

                          Input orientation:
 ---------------------------------------------------------------------
 Center     Atomic      Atomic             Coordinates (Angstroms)
 Number     Number       Type             X           Y           Z
 ---------------------------------------------------------------------
      1          6           0       -4.811293   -0.182911   -0.458491
      2          6           0       -3.958073   -0.527633    0.775435
      3          6           0       -2.535373   -0.016835    0.695634
      4          6           0       -2.265274    1.379389    0.845156
      5          6           0       -0.978966    1.855872    0.760794
      6          6           0        0.138912    1.005919    0.521592
      7          6           0        1.462239    1.564262    0.448800
      8          8           0        1.691096    2.840128    0.595369
      9          6           0        2.514347    0.614936    0.206494
     10          6           0        3.864685    1.061123    0.114059
     11          6           0        4.913638    0.200551   -0.113660
     12          6           0        4.660438   -1.192931   -0.266124
     13          6           0        3.370513   -1.663813   -0.184934
     14          6           0        2.255157   -0.807016    0.049223
     15          6           0        0.931437   -1.362347    0.123281
     16          8           0        0.700912   -2.639782   -0.021759
     17          6           0       -0.119647   -0.412624    0.366085
     18          6           0       -1.471408   -0.860341    0.465319
     19          1           0       -4.384655   -0.627587   -1.362482
     20          1           0       -5.833861   -0.557167   -0.346680
     21          1           0       -4.865574    0.898641   -0.612578
     22          1           0       -4.447741   -0.112363    1.665701
     23          1           0       -3.943567   -1.614309    0.907856
     24          1           0       -3.087092    2.065605    1.033683
     25          1           0       -0.778359    2.915042    0.881580
     26          1           0        4.042410    2.124320    0.233418
     27          1           0        5.929841    0.577975   -0.177554
     28          1           0        5.484142   -1.877606   -0.445297
     29          1           0        3.163706   -2.722338   -0.299294
     30          1           0       -1.642586   -1.926162    0.351076
 ---------------------------------------------------------------------

 SCF Done:  E(UB3LYP) =  -767.840433092     A.U. after    1 cycles

 Alpha  occ. eigenvalues --  -19.01640 -19.01488 -10.17092 -10.16926 -10.15915
 Alpha  occ. eigenvalues --  -10.15279 -10.15194 -10.14752 -10.14698 -10.14543
 Alpha  occ. eigenvalues --  -10.14513 -10.14479 -10.14478 -10.14048 -10.13514
 Alpha  occ. eigenvalues --  -10.13474 -10.13449 -10.13395  -0.92778  -0.92314
 Alpha  occ. eigenvalues --   -0.82831  -0.82069  -0.77173  -0.74107  -0.72126
 Alpha  occ. eigenvalues --   -0.71633  -0.69769  -0.63954  -0.61910  -0.59947
 Alpha  occ. eigenvalues --   -0.57118  -0.55673  -0.52308  -0.50194  -0.48695
 Alpha  occ. eigenvalues --   -0.44890  -0.43769  -0.43380  -0.42469  -0.41122
 Alpha  occ. eigenvalues --   -0.40031  -0.39593  -0.39078  -0.37791  -0.36971
 Alpha  occ. eigenvalues --   -0.36649  -0.36189  -0.35460  -0.34024  -0.33433
 Alpha  occ. eigenvalues --   -0.33083  -0.31928  -0.31215  -0.30841  -0.29377
 Alpha  occ. eigenvalues --   -0.29281  -0.23260  -0.22167  -0.21922  -0.21027
 Alpha  occ. eigenvalues --   -0.19800  -0.19228  -0.10612
 Alpha virt. eigenvalues --   -0.02564  -0.00225   0.00296   0.00740   0.01423
 Alpha virt. eigenvalues --    0.01960   0.02024   0.02441   0.02502   0.03937
 Alpha virt. eigenvalues --    0.04274   0.04794   0.05285   0.05870   0.06002

  Beta  occ. eigenvalues --  -19.01640 -19.01488 -10.17092 -10.16926 -10.15915
  Beta  occ. eigenvalues --  -10.15279 -10.15194 -10.14752 -10.14698 -10.14543
  Beta  occ. eigenvalues --  -10.14513 -10.14479 -10.14478 -10.14048 -10.13514
  Beta  occ. eigenvalues --  -10.13474 -10.13449 -10.13395  -0.92778  -0.92314
  Beta  occ. eigenvalues --   -0.82831  -0.82069  -0.77173  -0.74107  -0.72126
  Beta  occ. eigenvalues --   -0.71633  -0.69769  -0.63954  -0.61910  -0.59947
  Beta  occ. eigenvalues --   -0.57118  -0.55673  -0.52308  -0.50194  -0.48695
  Beta  occ. eigenvalues --   -0.44890  -0.43769  -0.43380  -0.42469  -0.41122
  Beta  occ. eigenvalues --   -0.40031  -0.39593  -0.39078  -0.37791  -0.36971
  Beta  occ. eigenvalues --   -0.36649  -0.36189  -0.35460  -0.34024  -0.33433
  Beta  occ. eigenvalues --   -0.33083  -0.31928  -0.31215  -0.30841  -0.29377
  Beta  occ. eigenvalues --   -0.29281  -0.23260  -0.22167  -0.21922  -0.21027
  Beta  occ. eigenvalues --   -0.19800  -0.19228  -0.10612
  Beta virt. eigenvalues --   -0.02564  -0.00225   0.00296   0.00740   0.01423
  Beta virt. eigenvalues --    0.01960   0.02024   0.02441   0.02502   0.03937
  Beta virt. eigenvalues --    0.04274   0.04794   0.05285   0.05870   0.06002

 Mulliken charges and spin densities:
               1          2
     1  C   -0.635861   0.000000
     2  C   -0.149460   0.000000
     3  C    0.611146  -0.000000
     4  C   -0.515254   0.000000
     5  C   -0.058006  -0.000000
     6  C    0.202911   0.000000
     7  C   -0.644947  -0.000000
     8  O   -0.677991   0.000000
     9  C    0.231337   0.000000
    10  C   -0.018704  -0.000000
    11  C   -0.494959   0.000000
    12  C   -0.495671  -0.000000
    13  C   -0.069746   0.000000
    14  C    0.397241   0.000000
    15  C   -0.527394  -0.000000
    16  O   -0.682788  -0.000000
    17  C    0.182633  -0.000000
    18  C   -0.408535  -0.000000
    19  H    0.135751  -0.000000
    20  H    0.134998   0.000000
    21  H    0.141532   0.000000
    22  H    0.135323   0.000000
    23  H    0.166191  -0.000000
    24  H    0.160476  -0.000000
    25  H    0.149935   0.000000
    26  H    0.145754   0.000000
    27  H    0.154858   0.000000
    28  H    0.156203  -0.000000
    29  H    0.141458  -0.000000
    30  H    0.131568   0.000000
 Sum of Mulliken charges =  -2.00000  -0.00000

 Dipole moment (field-independent basis, Debye):
    X=            -12.0450    Y=             -0.8618    Z=             -2.6429  Tot=             12.3617
 Quadrupole moment (field-independent basis, Debye-Ang):
   XX=           -145.5192   YY=           -168.9102   ZZ=           -120.9666
   XY=             -8.1130   XZ=             -3.5211   YZ=             -5.9789

  Exact polarizability: 597.550 -21.624 392.112 -43.793  30.506 189.431
 Approx polarizability: 639.367 -21.178 459.867 -50.728  37.007 207.984

                      1                      2                      3
                      A                      A                      A
 Frequencies --     45.5487                59.0791                88.7883
 Red. masses --      3.7734                 3.0985                 4.6913
 Frc consts  --      0.0046                 0.0064                 0.0218
 IR Inten    --      8.2824                 5.1462                 6.8466

                      4                      5                      6
                      A                      A                      A
 Frequencies --    134.6330               165.1343               169.8991
 Red. masses --      4.0625                 3.3613                 3.5343
 Frc consts  --      0.0434                 0.0540                 0.0601
 IR Inten    --      0.9765                 6.2902                 8.0659

                      7                      8                      9
                      A                      A                      A
 Frequencies --    183.7884               230.5819               235.3587
 Red. masses --      3.6778                 1.5367                 4.7152
 Frc consts  --      0.0732                 0.0481                 0.1539
 IR Inten    --      5.0557                 9.5267                 0.4791

                     10                     11                     12
                      A                      A                      A
 Frequencies --    275.3599               315.3426               355.0997
 Red. masses --      4.4285                 5.9945                 3.2428
 Frc consts  --      0.1978                 0.3512                 0.2409
 IR Inten    --      5.5033                 3.8932                 5.6735

                     13                     14                     15
                      A                      A                      A
 Frequencies --    360.4879               389.8174               413.4705
 Red. masses --     10.0233                 5.1551                 4.8912
 Frc consts  --      0.7674                 0.4615                 0.4927
 IR Inten    --      1.5320                 1.5566                 1.4949

                     16                     17                     18
                      A                      A                      A
 Frequencies --    432.3778               449.3575               482.1656
 Red. masses --      4.1896                 4.4923                 2.9556
 Frc consts  --      0.4615                 0.5344                 0.4048
 IR Inten    --      7.2612                 3.0437                 0.4848

                     19                     20                     21
                      A                      A                      A
 Frequencies --    497.5319               538.8760               576.5515
 Red. masses --     10.9999                 4.6279                 4.5098
 Frc consts  --      1.6043                 0.7918                 0.8833
 IR Inten    --      1.0154                17.5913                29.6112

                     22                     23                     24
                      A                      A                      A
 Frequencies --    629.5399               648.8161               658.9417
 Red. masses --      6.5870                 3.7785                 4.9506
 Frc consts  --      1.5381                 0.9371                 1.2665
 IR Inten    --     26.6370                33.7033                18.3911

                     25                     26                     27
                      A                      A                      A
 Frequencies --    689.4319               697.5322               731.7029
 Red. masses --      6.1049                 2.6017                 5.2849
 Frc consts  --      1.7097                 0.7458                 1.6671
 IR Inten    --      3.1485               106.1267                 8.9980

                     28                     29                     30
                      A                      A                      A
 Frequencies --    738.4483               771.3453               789.2449
 Red. masses --      4.1253                 1.8072                 1.2015
 Frc consts  --      1.3254                 0.6335                 0.4409
 IR Inten    --      6.5507                33.8033                 0.9329

                     31                     32                     33
                      A                      A                      A
 Frequencies --    797.4786               821.8785               843.5055
 Red. masses --      2.2663                 1.9505                 5.3336
 Frc consts  --      0.8492                 0.7763                 2.2359
 IR Inten    --     11.0395                32.7733                21.2308

                     34                     35                     36
                      A                      A                      A
 Frequencies --    852.2673               918.8448               926.1960
 Red. masses --      1.7841                 5.0664                 1.4538
 Frc consts  --      0.7635                 2.5202                 0.7348
 IR Inten    --      0.4445                27.0290                19.5103

                     37                     38                     39
                      A                      A                      A
 Frequencies --    951.9902               977.9799               981.0538
 Red. masses --      3.2461                 1.3403                 1.5393
 Frc consts  --      1.7333                 0.7553                 0.8729
 IR Inten    --      6.9900                 2.8766                 3.2301

                     40                     41                     42
                      A                      A                      A
 Frequencies --    983.5671               984.1805              1012.4761
 Red. masses --      1.4801                 1.4694                 2.0452
 Frc consts  --      0.8436                 0.8386                 1.2353
 IR Inten    --      1.1684                 1.1100               110.6963

                     43                     44                     45
                      A                      A                      A
 Frequencies --   1064.0597              1078.5073              1082.2557
 Red. masses --      1.8938                 2.2686                 2.3656
 Frc consts  --      1.2634                 1.5547                 1.6325
 IR Inten    --      1.0019               372.8862               477.2417

                     46                     47                     48
                      A                      A                      A
 Frequencies --   1108.9058              1129.6122              1138.5524
 Red. masses --      1.7976                 1.6195                 1.7702
 Frc consts  --      1.3024                 1.2176                 1.3520
 IR Inten    --    134.0653               162.7878                 6.7553

                     49                     50                     51
                      A                      A                      A
 Frequencies --   1169.2221              1197.4022              1198.4978
 Red. masses --      1.4649                 2.0780                 2.2552
 Frc consts  --      1.1800                 1.7554                 1.9086
 IR Inten    --    571.1332                63.6737               170.7269

                     52                     53                     54
                      A                      A                      A
 Frequencies --   1214.9584              1255.9802              1277.0738
 Red. masses --      2.8176                 2.2040                 1.4351
 Frc consts  --      2.4505                 2.0485                 1.3790
 IR Inten    --    357.0919               228.0412               123.7670

                     55                     56                     57
                      A                      A                      A
 Frequencies --   1308.0287              1333.1869              1348.9768
 Red. masses --      5.2628                 2.2041                 2.1293
 Frc consts  --      5.3052                 2.3082                 2.2830
 IR Inten    --     10.8533              1458.4503               514.4199

                     58                     59                     60
                      A                      A                      A
 Frequencies --   1350.2160              1358.1406              1395.9788
 Red. masses --      4.3108                 2.0942                 1.2254
 Frc consts  --      4.6303                 2.2759                 1.4070
 IR Inten    --    930.1077               490.5726                 7.6725

                     61                     62                     63
                      A                      A                      A
 Frequencies --   1438.0744              1447.5730              1462.6598
 Red. masses --      3.1388                 6.0376                 3.1195
 Frc consts  --      3.8245                 7.4541                 3.9321
 IR Inten    --    203.3697                 1.1538                31.2034

                     64                     65                     66
                      A                      A                      A
 Frequencies --   1472.9738              1481.6312              1484.5163
 Red. masses --      1.1394                 2.2514                 1.0885
 Frc consts  --      1.4565                 2.9119                 1.4133
 IR Inten    --      6.2105                11.9732                15.1368

                     67                     68                     69
                      A                      A                      A
 Frequencies --   1496.0524              1505.1555              1525.1115
 Red. masses --      1.1908                 3.6575                 5.2688
 Frc consts  --      1.5703                 4.8821                 7.2204
 IR Inten    --      5.8969                 0.4760                86.8408

                     70                     71                     72
                      A                      A                      A
 Frequencies --   1575.2875              1604.8751              1621.3471
 Red. masses --      7.8875                 5.2591                 5.9995
 Frc consts  --     11.5322                 7.9807                 9.2921
 IR Inten    --      1.5612                12.0096                28.6525

                     73                     74                     75
                      A                      A                      A
 Frequencies --   2995.6951              3014.1645              3041.7809
 Red. masses --      1.0658                 1.0346                 1.0955
 Frc consts  --      5.6353                 5.5378                 5.9721
 IR Inten    --    133.7299                89.4906                27.5501

                     76                     77                     78
                      A                      A                      A
 Frequencies --   3074.7217              3083.1215              3132.7211
 Red. masses --      1.1014                 1.1027                 1.0871
 Frc consts  --      6.1349                 6.1755                 6.2859
 IR Inten    --    108.3780                76.3069                47.0190

                     79                     80                     81
                      A                      A                      A
 Frequencies --   3136.8251              3152.1564              3155.2735
 Red. masses --      1.0845                 1.0888                 1.0880
 Frc consts  --      6.2871                 6.3740                 6.3820
 IR Inten    --     25.0032                31.7074                37.5177

                     82                     83                     84
                      A                      A                      A
 Frequencies --   3169.8262              3170.3017              3174.5850
 Red. masses --      1.0911                 1.0910                 1.0936
 Frc consts  --      6.4590                 6.4609                 6.4936
 IR Inten    --     49.1141                60.6823                80.8282

 - Thermochemistry -
 -------------------
 Temperature   298.150 Kelvin.  Pressure   1.00000 Atm.
 Atom     1 has atomic number  6 and mass  12.00000

 Molecular mass:   236.08373 amu.
 Principal axes and moments of inertia in atomic units:
                           1         2         3
     Eigenvalues --  1891.359316853.749368574.50323
           X            0.99806   0.03373   0.05226
           Y           -0.02561   0.98851  -0.14896
           Z           -0.05669   0.14733   0.98746
 This molecule is an asymmetric top.
 Rotational symmetry number  1.
 Warning -- assumption of classical behavior for rotation
           may cause significant error
 Rotational temperatures (Kelvin)      0.04579     0.01264     0.01010
 Rotational constants (GHZ):           0.95420     0.26332     0.21048
 Zero-point vibrational energy     605499.8 (Joules/Mol)
                                  144.71792 (Kcal/Mol)
 Warning -- explicit consideration of  21 degrees of freedom as
           vibrations may cause significant error
 Vibrational temperatures:     65.53    85.00   127.75   193.71   237.59
          (Kelvin)            244.45   264.43   331.76   338.63   396.18
                              453.71   510.91   518.66   560.86   594.89
                              622.10   646.53   693.73   715.84   775.32
                              829.53   905.77   933.50   948.07   991.94
                             1003.59  1052.76  1062.46  1109.79  1135.55
                             1147.39  1182.50  1213.62  1226.22  1322.01
                             1332.59  1369.70  1407.09  1411.52  1415.13
                             1416.02  1456.73  1530.94  1551.73  1557.12
                             1595.47  1625.26  1638.12  1682.25  1722.79
                             1724.37  1748.05  1807.08  1837.42  1881.96
                             1918.16  1940.88  1942.66  1954.06  2008.50
                             2069.07  2082.73  2104.44  2119.28  2131.74
                             2135.89  2152.49  2165.58  2194.30  2266.49
                             2309.06  2332.76  4310.14  4336.71  4376.44
                             4423.84  4435.92  4507.29  4513.19  4535.25
                             4539.73  4560.67  4561.36  4567.52

 Zero-point correction=                           0.230623 (Hartree/Particle)
 Thermal correction to Energy=                    0.244914
 Thermal correction to Enthalpy=                  0.245859
 Thermal correction to Gibbs Free Energy=         0.189452
 Sum of electronic and zero-point Energies=           -767.609810
 Sum of electronic and thermal Energies=              -767.595519
 Sum of electronic and thermal Enthalpies=            -767.594574
 Sum of electronic and thermal Free Energies=         -767.650981

                     E (Thermal)             CV                S
                      KCal/Mol        Cal/Mol-Kelvin    Cal/Mol-Kelvin
 Total                  153.686             57.594            118.717
 Electronic               0.000              0.000              0.000
 Translational            0.889              2.981             42.279
 Rotational               0.889              2.981             33.074
 Vibrational            151.909             51.632             43.364
 Vibration     1          0.595              1.979              5.002
 Vibration     2          0.596              1.974              4.488
 Vibration     3          0.602              1.957              3.687
 Vibration     4          0.613              1.919              2.879
 Vibration     5          0.624              1.885              2.490
 Vibration     6          0.625              1.880              2.437
 Vibration     7          0.631              1.862              2.290
 Vibration     8          0.652              1.794              1.874
 Vibration     9          0.655              1.787              1.838
 Vibration    10          0.677              1.719              1.562
 Vibration    11          0.703              1.644              1.334
 Vibration    12          0.731              1.565              1.143
 Vibration    13          0.735              1.554              1.120
 Vibration    14          0.758              1.492              1.001
 Vibration    15          0.777              1.441              0.914
 Vibration    16          0.793              1.400              0.851
 Vibration    17          0.808              1.362              0.798
 Vibration    18          0.838              1.290              0.704
 Vibration    19          0.853              1.255              0.664
 Vibration    20          0.894              1.164              0.568
 Vibration    21          0.933              1.082              0.492

 Optimization completed.
    -- Stationary point found.
 Normal termination of Gaussian 16 at Sat Feb 10 18:25:49 2024.
