 Gaussian 16, Revision A.03,
 Gaussian 16:  ES64L-G16RevA.03 25-Dec-2016

 ----------------------------------------------------------------------
 #P UB3LYP/6-311++G(d,p) nosym opt freq SCRF=(PCM,Solvent=n,n-DiMethylF
 ormamide)
 ----------------------------------------------------------------------

 -------
 Reduced
 -------
 Symbolic Z-matrix:
 Charge = -2 Multiplicity = 1

 SCF Done:  E(UB3LYP) =  -650.073988303     A.U. after   18 cycles
 SCF Done:  E(UB3LYP) =  -650.075754778     A.U. after   14 cycles
 SCF Done:  E(UB3LYP) =  -650.076051417     A.U. after   13 cycles
 SCF Done:  E(UB3LYP) =  -650.076013198     A.U. after   13 cycles
 SCF Done:  E(UB3LYP) =  -650.076119971     A.U. after   13 cycles
 SCF Done:  E(UB3LYP) =  -650.076125924     A.U. after   11 cycles
 SCF Done:  E(UB3LYP) =  -650.076128488     A.U. after   11 cycles
 SCF Done:  E(UB3LYP) =  -650.076130070     A.U. after   10 cycles
 SCF Done:  E(UB3LYP) =  -650.076130501     A.U. after   10 cycles
 SCF Done:  E(UB3LYP) =  -650.076155607     A.U. after   13 cycles
 SCF Done:  E(UB3LYP) =  -650.076201618     A.U. after   12 cycles
 SCF Done:  E(UB3LYP) =  -650.075244327     A.U. after   14 cycles
 SCF Done:  E(UB3LYP) =  -650.076193937     A.U. after   13 cycles
 SCF Done:  E(UB3LYP) =  -650.076204670     A.U. after    8 cycles
 SCF Done:  E(UB3LYP) =  -650.076129262     A.U. after   12 cycles
 SCF Done:  E(UB3LYP) =  -650.076193658     A.U. after   12 cycles
 SCF Done:  E(UB3LYP) =  -650.076205198     A.U. after   12 cycles
 SCF Done:  E(UB3LYP) =  -650.076206606     A.U. after   11 cycles
 SCF Done:  E(UB3LYP) =  -650.076206637     A.U. after    9 cycles
 Optimization completed.
    -- Stationary point found.
 Normal termination of Gaussian 16 at Sun Feb 11 16:45:55 2024.

 ----------------------------------------------------------------------
 #P Geom=AllCheck Guess=TCheck SCRF=Check GenChk UB3LYP/6-311++G(d,p) F
 req
 ----------------------------------------------------------------------

 Structure from the checkpoint file:  "308-an.chk"
 -------
 Reduced
 -------
 Charge = -2 Multiplicity = 1

                          Input orientation:
 ---------------------------------------------------------------------
 Center     Atomic      Atomic             Coordinates (Angstroms)
 Number     Number       Type             X           Y           Z
 ---------------------------------------------------------------------
      1          6           0       -4.052770    3.605702    1.538447
      2          6           0       -4.542315    3.837653    0.275948
      3          6           0       -3.958586    3.171109   -0.824507
      4          6           0       -2.897461    2.299247   -0.642814
      5          6           0       -2.327584    2.036855    0.647974
      6          6           0       -2.964345    2.720625    1.768119
      7          6           0       -2.519352    2.526549    3.133967
      8          6           0       -1.443057    1.636524    3.284522
      9          6           0       -0.798251    0.975655    2.220401
     10          6           0       -1.187216    1.149978    0.865089
     11          8           0       -3.091416    3.140746    4.146500
     12          8           0       -0.537783    0.546279   -0.094235
     13          1           0       -4.481820    4.093715    2.405495
     14          1           0       -4.345087    3.332220   -1.828212
     15          8           0       -2.391033    1.658348   -1.759483
     16          6           0        0.360331    0.053901    2.514536
     17          1           0       -5.372019    4.518681    0.113279
     18          1           0       -1.085233    1.457026    4.298679
     19          1           0       -2.912875    1.950315   -2.517044
     20          1           0        0.546075   -0.012597    3.590846
     21          1           0        1.286673    0.390125    2.031472
     22          1           0        0.181462   -0.960785    2.137843
 ---------------------------------------------------------------------

 SCF Done:  E(UB3LYP) =  -650.076206637     A.U. after    1 cycles

 Alpha  occ. eigenvalues --  -19.13150 -19.00911 -19.00578 -10.21353 -10.16623
 Alpha  occ. eigenvalues --  -10.16250 -10.14786 -10.14371 -10.14321 -10.13693
 Alpha  occ. eigenvalues --  -10.13634 -10.13585 -10.12320 -10.11493  -1.04012
 Alpha  occ. eigenvalues --   -0.91770  -0.91323  -0.81930  -0.76856  -0.72210
 Alpha  occ. eigenvalues --   -0.71337  -0.66725  -0.62706  -0.59659  -0.56464
 Alpha  occ. eigenvalues --   -0.53895  -0.49011  -0.47530  -0.44491  -0.43225
 Alpha  occ. eigenvalues --   -0.41637  -0.39901  -0.39731  -0.38473  -0.37072
 Alpha  occ. eigenvalues --   -0.35740  -0.35107  -0.34452  -0.34196  -0.33578
 Alpha  occ. eigenvalues --   -0.31177  -0.30545  -0.30368  -0.29588  -0.21779
 Alpha  occ. eigenvalues --   -0.20932  -0.20339  -0.19019  -0.18206  -0.10761
 Alpha virt. eigenvalues --   -0.00000   0.00457   0.00832   0.01075   0.01424
 Alpha virt. eigenvalues --    0.02728   0.03174   0.04128   0.04825   0.05626
 Alpha virt. eigenvalues --    0.05897   0.05981   0.07724   0.07840   0.08281

  Beta  occ. eigenvalues --  -19.13150 -19.00911 -19.00578 -10.21353 -10.16623
  Beta  occ. eigenvalues --  -10.16250 -10.14786 -10.14371 -10.14321 -10.13693
  Beta  occ. eigenvalues --  -10.13634 -10.13585 -10.12320 -10.11493  -1.04012
  Beta  occ. eigenvalues --   -0.91770  -0.91323  -0.81930  -0.76856  -0.72210
  Beta  occ. eigenvalues --   -0.71337  -0.66725  -0.62706  -0.59659  -0.56464
  Beta  occ. eigenvalues --   -0.53895  -0.49011  -0.47530  -0.44491  -0.43225
  Beta  occ. eigenvalues --   -0.41637  -0.39901  -0.39731  -0.38473  -0.37072
  Beta  occ. eigenvalues --   -0.35740  -0.35107  -0.34452  -0.34196  -0.33578
  Beta  occ. eigenvalues --   -0.31177  -0.30545  -0.30368  -0.29588  -0.21779
  Beta  occ. eigenvalues --   -0.20932  -0.20339  -0.19019  -0.18206  -0.10761
  Beta virt. eigenvalues --   -0.00000   0.00457   0.00832   0.01075   0.01424
  Beta virt. eigenvalues --    0.02728   0.03174   0.04128   0.04825   0.05626
  Beta virt. eigenvalues --    0.05897   0.05981   0.07724   0.07840   0.08281

 Mulliken charges and spin densities:
               1          2
     1  C   -0.096729  -0.000000
     2  C   -0.401993   0.000000
     3  C   -0.242233   0.000000
     4  C   -0.000463  -0.000000
     5  C   -0.181766   0.000000
     6  C    0.595333  -0.000000
     7  C   -0.786302   0.000000
     8  C   -0.336470  -0.000000
     9  C    0.672341  -0.000000
    10  C   -0.387274  -0.000000
    11  O   -0.736306  -0.000000
    12  O   -0.702213  -0.000000
    13  H    0.136645   0.000000
    14  H    0.125899  -0.000000
    15  O   -0.248396  -0.000000
    16  C   -0.353692   0.000000
    17  H    0.162785   0.000000
    18  H    0.092762   0.000000
    19  H    0.278008   0.000000
    20  H    0.134342   0.000000
    21  H    0.137241   0.000000
    22  H    0.138481   0.000000
 Sum of Mulliken charges =  -2.00000  -0.00000

 Dipole moment (field-independent basis, Debye):
    X=             18.2573    Y=            -18.2351    Z=            -18.9841  Tot=             32.0351
 Quadrupole moment (field-independent basis, Debye-Ang):
   XX=           -141.5953   YY=           -142.1286   ZZ=           -160.3534
   XY=             48.9465   XZ=             59.6560   YZ=            -58.4271

  Exact polarizability: 264.191-102.609 218.865  32.084  -3.449 308.300
 Approx polarizability: 291.317-116.089 242.081  31.553   0.827 350.211

                      1                      2                      3
                      A                      A                      A
 Frequencies --     80.6276               102.2663               155.1752
 Red. masses --      5.1819                 2.0090                 2.0303
 Frc consts  --      0.0198                 0.0124                 0.0288
 IR Inten    --      6.9280                16.7269                 7.4286

                      4                      5                      6
                      A                      A                      A
 Frequencies --    173.8540               209.5015               242.9881
 Red. masses --      3.2699                 3.6698                 4.4492
 Frc consts  --      0.0582                 0.0949                 0.1548
 IR Inten    --      9.0256                 4.4027                32.3641

                      7                      8                      9
                      A                      A                      A
 Frequencies --    273.7428               311.6829               358.3429
 Red. masses --      3.5288                 4.3082                 8.8188
 Frc consts  --      0.1558                 0.2466                 0.6672
 IR Inten    --      7.9001                 0.5648                 6.3093

                     10                     11                     12
                      A                      A                      A
 Frequencies --    365.3157               376.6470               383.0785
 Red. masses --      4.1302                 8.2636                 1.3928
 Frc consts  --      0.3248                 0.6907                 0.1204
 IR Inten    --     14.1281                 7.7180                92.3462

                     13                     14                     15
                      A                      A                      A
 Frequencies --    418.6048               487.6007               489.9157
 Red. masses --      5.7446                 7.2737                 3.8683
 Frc consts  --      0.5931                 1.0189                 0.5470
 IR Inten    --      4.7815                 2.2154                 0.8832

                     16                     17                     18
                      A                      A                      A
 Frequencies --    528.5362               549.3175               572.4871
 Red. masses --      7.6305                 4.2331                 5.4639
 Frc consts  --      1.2559                 0.7526                 1.0551
 IR Inten    --     13.5053                 0.8497                15.2481

                     19                     20                     21
                      A                      A                      A
 Frequencies --    662.4027               666.0682               695.3213
 Red. masses --      4.1554                 3.2502                 2.7311
 Frc consts  --      1.0743                 0.8496                 0.7780
 IR Inten    --      9.8478                29.1721                23.1133

                     22                     23                     24
                      A                      A                      A
 Frequencies --    703.3748               743.6001               796.3776
 Red. masses --      6.7064                 1.7879                 5.8292
 Frc consts  --      1.9549                 0.5825                 2.1782
 IR Inten    --    143.1919                76.1188                22.5889

                     25                     26                     27
                      A                      A                      A
 Frequencies --    802.2032               830.8119               857.5057
 Red. masses --      4.8343                 1.5239                 1.5407
 Frc consts  --      1.8329                 0.6198                 0.6675
 IR Inten    --      5.0634                 4.5342                46.5043

                     28                     29                     30
                      A                      A                      A
 Frequencies --    901.0371               953.4536               973.4796
 Red. masses --      5.3275                 1.2582                 5.8697
 Frc consts  --      2.5483                 0.6739                 3.2774
 IR Inten    --     69.4914                 2.3470               478.4938

                     31                     32                     33
                      A                      A                      A
 Frequencies --   1008.2619              1039.9703              1075.1065
 Red. masses --      1.5949                 1.4729                 2.2947
 Frc consts  --      0.9553                 0.9385                 1.5627
 IR Inten    --    122.1778                10.2123               199.3959

                     34                     35                     36
                      A                      A                      A
 Frequencies --   1122.9903              1148.7334              1174.8424
 Red. masses --      2.1958                 1.8558                 2.0920
 Frc consts  --      1.6315                 1.4429                 1.7013
 IR Inten    --    217.3724                34.8121               146.6364

                     37                     38                     39
                      A                      A                      A
 Frequencies --   1199.1112              1221.0443              1243.0639
 Red. masses --      2.4783                 2.1804                 2.2709
 Frc consts  --      2.0996                 1.9154                 2.0675
 IR Inten    --    268.4981                20.2853                37.9395

                     40                     41                     42
                      A                      A                      A
 Frequencies --   1290.2871              1300.7875              1351.0864
 Red. masses --      2.4672                 4.4463                 4.2950
 Frc consts  --      2.4201                 4.4326                 4.6194
 IR Inten    --    462.7273               115.9596              1849.4707

                     43                     44                     45
                      A                      A                      A
 Frequencies --   1373.5905              1398.5935              1425.4398
 Red. masses --      5.2791                 1.4489                 3.0275
 Frc consts  --      5.8685                 1.6698                 3.6244
 IR Inten    --     15.7243               214.2183                59.9858

                     46                     47                     48
                      A                      A                      A
 Frequencies --   1456.5955              1458.4023              1474.5942
 Red. masses --      1.4254                 1.5353                 1.2347
 Frc consts  --      1.7818                 1.9240                 1.5818
 IR Inten    --     37.9854                38.9460                 9.7244

                     49                     50                     51
                      A                      A                      A
 Frequencies --   1510.6945              1530.7870              1590.7239
 Red. masses --      3.1424                 4.6225                 6.6529
 Frc consts  --      4.2253                 6.3819                 9.9186
 IR Inten    --    149.1391               481.7409                32.1789

                     52                     53                     54
                      A                      A                      A
 Frequencies --   1609.2147              2990.2026              3018.7880
 Red. masses --      5.5242                 1.0365                 1.0983
 Frc consts  --      8.4284                 5.4605                 5.8968
 IR Inten    --     37.0026               220.7772                91.6462

                     55                     56                     57
                      A                      A                      A
 Frequencies --   3065.0413              3096.7758              3124.5720
 Red. masses --      1.0990                 1.0868                 1.0875
 Frc consts  --      6.0831                 6.1405                 6.2553
 IR Inten    --     46.1252               162.0381                51.0573

                     58                     59                     60
                      A                      A                      A
 Frequencies --   3151.9850              3179.3441              3786.7669
 Red. masses --      1.0898                 1.0924                 1.0657
 Frc consts  --      6.3793                 6.5060                 9.0041
 IR Inten    --     34.6228                45.0023                48.8352

 - Thermochemistry -
 -------------------
 Temperature   298.150 Kelvin.  Pressure   1.00000 Atm.
 Atom     1 has atomic number  6 and mass  12.00000

 Molecular mass:   188.04734 amu.
 Principal axes and moments of inertia in atomic units:
                           1         2         3
     Eigenvalues --  1929.558402446.708074363.76644
           X            0.64199  -0.43335   0.63250
           Y           -0.44118   0.46590   0.76700
           Z            0.62706   0.77146  -0.10792
 This molecule is an asymmetric top.
 Rotational symmetry number  1.
 Warning -- assumption of classical behavior for rotation
           may cause significant error
 Rotational temperatures (Kelvin)      0.04489     0.03540     0.01985
 Rotational constants (GHZ):           0.93531     0.73762     0.41357
 Zero-point vibrational energy     419187.7 (Joules/Mol)
                                  100.18827 (Kcal/Mol)
 Warning -- explicit consideration of  18 degrees of freedom as
           vibrations may cause significant error
 Vibrational temperatures:    116.01   147.14   223.26   250.14   301.43
          (Kelvin)            349.61   393.85   448.44   515.58   525.61
                              541.91   551.16   602.28   701.55   704.88
                              760.45   790.35   823.68   953.05   958.32
                             1000.41  1012.00  1069.87  1145.81  1154.19
                             1195.35  1233.76  1296.39  1371.81  1400.62
                             1450.66  1496.29  1546.84  1615.73  1652.77
                             1690.34  1725.25  1756.81  1788.49  1856.44
                             1871.54  1943.91  1976.29  2012.26  2050.89
                             2095.72  2098.32  2121.61  2173.55  2202.46
                             2288.70  2315.30  4302.23  4343.36  4409.91
                             4455.57  4495.56  4535.00  4574.37  5448.31

 Zero-point correction=                           0.159660 (Hartree/Particle)
 Thermal correction to Energy=                    0.171114
 Thermal correction to Enthalpy=                  0.172058
 Thermal correction to Gibbs Free Energy=         0.122802
 Sum of electronic and zero-point Energies=           -649.916546
 Sum of electronic and thermal Energies=              -649.905092
 Sum of electronic and thermal Enthalpies=            -649.904148
 Sum of electronic and thermal Free Energies=         -649.953405

                     E (Thermal)             CV                S
                      KCal/Mol        Cal/Mol-Kelvin    Cal/Mol-Kelvin
 Total                  107.376             45.704            103.669
 Electronic               0.000              0.000              0.000
 Translational            0.889              2.981             41.600
 Rotational               0.889              2.981             31.400
 Vibrational            105.598             39.742             30.669
 Vibration     1          0.600              1.962              3.876
 Vibration     2          0.604              1.947              3.411
 Vibration     3          0.620              1.897              2.608
 Vibration     4          0.627              1.875              2.393
 Vibration     5          0.642              1.826              2.048
 Vibration     6          0.659              1.774              1.781
 Vibration     7          0.676              1.722              1.572
 Vibration     8          0.700              1.651              1.353
 Vibration     9          0.733              1.558              1.129
 Vibration    10          0.739              1.544              1.099
 Vibration    11          0.747              1.520              1.053
 Vibration    12          0.752              1.506              1.027
 Vibration    13          0.781              1.430              0.897
 Vibration    14          0.844              1.278              0.690
 Vibration    15          0.846              1.272              0.684
 Vibration    16          0.883              1.187              0.590
 Vibration    17          0.905              1.141              0.546
 Vibration    18          0.929              1.091              0.499

 Optimization completed.
    -- Stationary point found.
 Normal termination of Gaussian 16 at Sun Feb 11 17:13:37 2024.
