 Gaussian 16, Revision A.03,
 Gaussian 16:  ES64L-G16RevA.03 25-Dec-2016

 --------------------------------------
 #P UB3LYP/6-311++G(d,p) nosym opt freq
 --------------------------------------

 -------
 Reduced
 -------
 Symbolic Z-matrix:
 Charge = -2 Multiplicity = 1

 SCF Done:  E(UB3LYP) =  -460.156285647     A.U. after   52 cycles
 SCF Done:  E(UB3LYP) =  -460.180427285     A.U. after   35 cycles
 SCF Done:  E(UB3LYP) =  -460.183429644     A.U. after   35 cycles
 SCF Done:  E(UB3LYP) =  -460.183684978     A.U. after   33 cycles
 SCF Done:  E(UB3LYP) =  -460.183842158     A.U. after   31 cycles
 SCF Done:  E(UB3LYP) =  -460.183919880     A.U. after   35 cycles
 SCF Done:  E(UB3LYP) =  -460.183985665     A.U. after   38 cycles
 SCF Done:  E(UB3LYP) =  -460.184093867     A.U. after   40 cycles
 SCF Done:  E(UB3LYP) =  -460.184191598     A.U. after   35 cycles
 SCF Done:  E(UB3LYP) =  -460.184226966     A.U. after   31 cycles
 SCF Done:  E(UB3LYP) =  -460.184235040     A.U. after   31 cycles
 SCF Done:  E(UB3LYP) =  -460.184244350     A.U. after   31 cycles
 SCF Done:  E(UB3LYP) =  -460.184246400     A.U. after   32 cycles
 SCF Done:  E(UB3LYP) =  -460.184247257     A.U. after   29 cycles
 SCF Done:  E(UB3LYP) =  -460.184247274     A.U. after   26 cycles
 Optimization completed.
    -- Stationary point found.
 Normal termination of Gaussian 16 at Sun Dec 17 21:27:23 2023.

 ----------------------------------------------------------------------
 #P Geom=AllCheck Guess=TCheck SCRF=Check GenChk UB3LYP/6-311++G(d,p) F
 req
 ----------------------------------------------------------------------

 Structure from the checkpoint file:  "039-an.chk"
 -------
 Reduced
 -------
 Charge = -2 Multiplicity = 1

                          Input orientation:
 ---------------------------------------------------------------------
 Center     Atomic      Atomic             Coordinates (Angstroms)
 Number     Number       Type             X           Y           Z
 ---------------------------------------------------------------------
      1          6           0       -2.570813   -0.664011   -0.204146
      2          6           0       -1.216163   -0.019958   -0.050180
      3          6           0       -1.101566    1.335994    0.274412
      4          6           0        0.149506    2.011355    0.463277
      5          8           0        0.244166    3.276809    0.744307
      6          6           0        1.285512    1.151199    0.292406
      7          6           0        1.199468   -0.204820   -0.039231
      8          6           0        2.444448   -1.046088   -0.175496
      9          6           0       -0.065682   -0.863734   -0.221218
     10          8           0       -0.165125   -2.130263   -0.509733
     11          1           0       -2.714691   -1.481461    0.520852
     12          1           0       -3.375372    0.070220   -0.065002
     13          1           0       -2.684193   -1.132414   -1.192061
     14          1           0       -2.005351    1.938512    0.390431
     15          1           0        2.268677    1.612272    0.403638
     16          1           0        3.347388   -0.475329    0.077160
     17          1           0        2.557601   -1.448150   -1.190965
     18          1           0        2.402191   -1.930130    0.481550
 ---------------------------------------------------------------------

 SCF Done:  E(UB3LYP) =  -460.184247274     A.U. after    5 cycles

 Alpha  occ. eigenvalues --  -18.74906 -18.74432  -9.90287  -9.90254  -9.89897
 Alpha  occ. eigenvalues --   -9.89582  -9.87063  -9.86934  -9.85781  -9.85635
 Alpha  occ. eigenvalues --   -0.65699  -0.65045  -0.52224  -0.48934  -0.43496
 Alpha  occ. eigenvalues --   -0.38474  -0.36215  -0.27575  -0.25415  -0.18557
 Alpha  occ. eigenvalues --   -0.15789  -0.15003  -0.13970  -0.13904  -0.12740
 Alpha  occ. eigenvalues --   -0.11019  -0.09126  -0.08032  -0.06799  -0.05137
 Alpha  occ. eigenvalues --   -0.04882  -0.03132   0.05028   0.05818   0.07656
 Alpha  occ. eigenvalues --    0.08093   0.15655
 Alpha virt. eigenvalues --    0.17628   0.18041   0.20649   0.21020   0.21941
 Alpha virt. eigenvalues --    0.22643   0.23041   0.23756   0.27328   0.28090
 Alpha virt. eigenvalues --    0.28574   0.28745   0.29506   0.30487   0.31080

  Beta  occ. eigenvalues --  -18.74906 -18.74432  -9.90287  -9.90254  -9.89897
  Beta  occ. eigenvalues --   -9.89582  -9.87063  -9.86934  -9.85781  -9.85635
  Beta  occ. eigenvalues --   -0.65699  -0.65045  -0.52224  -0.48934  -0.43496
  Beta  occ. eigenvalues --   -0.38474  -0.36215  -0.27575  -0.25415  -0.18557
  Beta  occ. eigenvalues --   -0.15789  -0.15003  -0.13970  -0.13904  -0.12740
  Beta  occ. eigenvalues --   -0.11019  -0.09126  -0.08032  -0.06799  -0.05137
  Beta  occ. eigenvalues --   -0.04882  -0.03132   0.05028   0.05818   0.07656
  Beta  occ. eigenvalues --    0.08093   0.15655
  Beta virt. eigenvalues --    0.17628   0.18041   0.20649   0.21020   0.21941
  Beta virt. eigenvalues --    0.22643   0.23041   0.23756   0.27328   0.28090
  Beta virt. eigenvalues --    0.28574   0.28745   0.29506   0.30487   0.31080

 Mulliken charges and spin densities:
               1          2
     1  C   -0.479432   0.000000
     2  C    1.749146  -0.000000
     3  C   -0.174366   0.000000
     4  C   -0.764250  -0.000000
     5  O   -0.573735  -0.000000
     6  C    0.252358   0.000000
     7  C    0.132311   0.000000
     8  C    1.354088  -0.000000
     9  C   -2.477694   0.000000
    10  O   -0.556564  -0.000000
    11  H   -0.025086  -0.000000
    12  H    0.064717  -0.000000
    13  H    0.124763   0.000000
    14  H    0.005739   0.000000
    15  H    0.003803  -0.000000
    16  H   -0.575509   0.000000
    17  H    0.140136  -0.000000
    18  H   -0.200424   0.000000
 Sum of Mulliken charges =  -2.00000  -0.00000

 Dipole moment (field-independent basis, Debye):
    X=             -3.3782    Y=             -3.0571    Z=             -2.3029  Tot=              5.1050
 Quadrupole moment (field-independent basis, Debye-Ang):
   XX=           -103.1258   YY=           -134.0166   ZZ=            -77.0650
   XY=              0.7073   XZ=             -3.5716   YZ=            -10.7146

  Exact polarizability:3327.525   5.648 504.001-441.779-120.726 296.112
 Approx polarizability:1756.141-439.476 646.736 129.731 -97.129 225.375

                      1                      2                      3
                      A                      A                      A
 Frequencies --     82.9475               118.5400               148.7634
 Red. masses --      1.0876                 3.3192                 1.2617
 Frc consts  --      0.0044                 0.0275                 0.0165
 IR Inten    --     51.3645                 3.1910                24.4362

                      4                      5                      6
                      A                      A                      A
 Frequencies --    174.6643               234.6291               271.3792
 Red. masses --      3.0408                 2.8775                 2.5620
 Frc consts  --      0.0547                 0.0933                 0.1112
 IR Inten    --     90.6015                 2.6130                 0.4680

                      7                      8                      9
                      A                      A                      A
 Frequencies --    291.4347               325.5808               355.7497
 Red. masses --      3.6205                 7.7592                 9.3252
 Frc consts  --      0.1812                 0.4846                 0.6953
 IR Inten    --     78.3386               709.3356               133.8335

                     10                     11                     12
                      A                      A                      A
 Frequencies --    432.6300               488.9835               509.7371
 Red. masses --      8.8534                 3.5728                 4.9452
 Frc consts  --      0.9763                 0.5033                 0.7571
 IR Inten    --    671.1679                18.7524                83.8019

                     13                     14                     15
                      A                      A                      A
 Frequencies --    575.5619               605.2842               619.3421
 Red. masses --      5.1147                 1.9239                 3.7689
 Frc consts  --      0.9983                 0.4153                 0.8518
 IR Inten    --     29.0345              1409.0115                 7.0163

                     16                     17                     18
                      A                      A                      A
 Frequencies --    750.0984               774.6872               794.2614
 Red. masses --      4.7263                 1.3563                 4.3218
 Frc consts  --      1.5668                 0.4796                 1.6064
 IR Inten    --     45.8590              4024.6476                37.7461

                     19                     20                     21
                      A                      A                      A
 Frequencies --    832.9725               945.0357               947.8256
 Red. masses --      1.9916                 2.4869                 2.8185
 Frc consts  --      0.8142                 1.3086                 1.4919
 IR Inten    --     51.5998               139.0725                 7.6103

                     22                     23                     24
                      A                      A                      A
 Frequencies --   1004.8221              1017.5609              1031.9615
 Red. masses --      1.9638                 1.7024                 1.4413
 Frc consts  --      1.1682                 1.0386                 0.9043
 IR Inten    --    755.4439               335.4129               256.3591

                     25                     26                     27
                      A                      A                      A
 Frequencies --   1049.0744              1163.5861              1193.2598
 Red. masses --      1.4854                 2.4091                 3.3095
 Frc consts  --      0.9632                 1.9218                 2.7764
 IR Inten    --     36.1098               282.7632               157.0940

                     28                     29                     30
                      A                      A                      A
 Frequencies --   1228.9919              1303.9646              1331.1198
 Red. masses --      1.7602                 2.9384                 5.6537
 Frc consts  --      1.5664                 2.9437                 5.9022
 IR Inten    --      2.8062               157.5634              1580.0430

                     31                     32                     33
                      A                      A                      A
 Frequencies --   1365.1251              1376.6658              1407.3565
 Red. masses --      1.2793                 1.6319                 4.4842
 Frc consts  --      1.4046                 1.8222                 5.2329
 IR Inten    --   3257.0816               150.4125               178.0669

                     34                     35                     36
                      A                      A                      A
 Frequencies --   1430.4076              1438.6874              1455.2222
 Red. masses --      1.4401                 1.5871                 1.0845
 Frc consts  --      1.7361                 1.9355                 1.3532
 IR Inten    --   1346.5588              1931.8102               144.5756

                     37                     38                     39
                      A                      A                      A
 Frequencies --   1480.3053              1484.8150              1494.1565
 Red. masses --      1.7367                 1.3065                 2.0565
 Frc consts  --      2.2422                 1.6970                 2.7050
 IR Inten    --     55.5225               387.3868               138.5765

                     40                     41                     42
                      A                      A                      A
 Frequencies --   1576.6573              2919.1163              2940.2297
 Red. masses --      4.4202                 1.0909                 1.0473
 Frc consts  --      6.4739                 5.4770                 5.3343
 IR Inten    --   1391.6471             20625.2438               194.6142

                     43                     44                     45
                      A                      A                      A
 Frequencies --   2948.3829              2979.3914              3017.0220
 Red. masses --      1.0400                 1.0840                 1.0993
 Frc consts  --      5.3265                 5.6695                 5.8956
 IR Inten    --   1092.7272              1243.5414                75.7618

                     46                     47                     48
                      A                      A                      A
 Frequencies --   3023.6473              3065.1552              3074.3289
 Red. masses --      1.1001                 1.0869                 1.0864
 Frc consts  --      5.9256                 6.0165                 6.0497
 IR Inten    --     43.3139               112.8291               567.0104

 - Thermochemistry -
 -------------------
 Temperature   298.150 Kelvin.  Pressure   1.00000 Atm.
 Atom     1 has atomic number  6 and mass  12.00000

 Molecular mass:   136.05243 amu.
 Principal axes and moments of inertia in atomic units:
                           1         2         3
     Eigenvalues --  1013.758141383.363652375.01050
           X            0.07284   0.99709  -0.02269
           Y            0.97172  -0.07608  -0.22355
           Z            0.22462   0.00577   0.97443
 This molecule is an asymmetric top.
 Rotational symmetry number  1.
 Warning -- assumption of classical behavior for rotation
           may cause significant error
 Rotational temperatures (Kelvin)      0.08544     0.06261     0.03647
 Rotational constants (GHZ):           1.78025     1.30460     0.75989
 Zero-point vibrational energy     353383.6 (Joules/Mol)
                                   84.46070 (Kcal/Mol)
 Warning -- explicit consideration of  15 degrees of freedom as
           vibrations may cause significant error
 Vibrational temperatures:    119.34   170.55   214.04   251.30   337.58
          (Kelvin)            390.45   419.31   468.44   511.84   622.46
                              703.54   733.40   828.11   870.87   891.10
                             1079.22  1114.60  1142.76  1198.46  1359.70
                             1363.71  1445.71  1464.04  1484.76  1509.38
                             1674.14  1716.83  1768.25  1876.11  1915.18
                             1964.11  1980.72  2024.87  2058.04  2069.95
                             2093.74  2129.83  2136.32  2149.76  2268.46
                             4199.96  4230.33  4242.07  4286.68  4340.82
                             4350.35  4410.07  4423.27

 Zero-point correction=                           0.134597 (Hartree/Particle)
 Thermal correction to Energy=                    0.144181
 Thermal correction to Enthalpy=                  0.145126
 Thermal correction to Gibbs Free Energy=         0.100057
 Sum of electronic and zero-point Energies=           -460.049651
 Sum of electronic and thermal Energies=              -460.040066
 Sum of electronic and thermal Enthalpies=            -460.039122
 Sum of electronic and thermal Free Energies=         -460.084190

                     E (Thermal)             CV                S
                      KCal/Mol        Cal/Mol-Kelvin    Cal/Mol-Kelvin
 Total                   90.475             35.803             94.855
 Electronic               0.000              0.000              0.000
 Translational            0.889              2.981             40.636
 Rotational               0.889              2.981             29.589
 Vibrational             88.698             29.842             24.630
 Vibration     1          0.600              1.961              3.820
 Vibration     2          0.609              1.934              3.124
 Vibration     3          0.618              1.904              2.688
 Vibration     4          0.627              1.874              2.385
 Vibration     5          0.654              1.788              1.843
 Vibration     6          0.675              1.726              1.587
 Vibration     7          0.687              1.690              1.466
 Vibration     8          0.710              1.624              1.282
 Vibration     9          0.731              1.563              1.141
 Vibration    10          0.794              1.399              0.850
 Vibration    11          0.845              1.274              0.686
 Vibration    12          0.865              1.228              0.634
 Vibration    13          0.932              1.084              0.494
 Vibration    14          0.964              1.021              0.441
 Vibration    15          0.979              0.991              0.418

 Optimization completed.
    -- Stationary point found.
 Normal termination of Gaussian 16 at Sun Dec 17 21:36:50 2023.
