 Q-Chem 5.4, Q-Chem, Inc., Pleasanton, CA (2021)
 Q-Chem 5.4.0 for Intel X86 EM64T Linux

User input:
--------------------------------------------------------------
$molecule
0 1
C                 -1.3105170000      1.9523290000      0.5582370000
C                 -2.6547000000      1.3410390000      0.2595630000
C                 -2.7133750000      0.0992180000     -0.2521470000
C                 -1.5094180000     -0.6932270000     -0.5722760000
C                 -0.1841340000     -0.0801650000     -0.3085850000
C                 -0.0885030000      1.1502800000      0.2125340000
O                 -1.2231100000      3.0491280000      1.0715190000
O                 -1.5906020000     -1.8168050000     -1.0435820000
H                  0.6774970000     -0.6858860000     -0.5610370000
I                  1.7651060000      2.0509610000      0.6067340000
C                 -3.8607080000      2.2060010000      0.5605820000
C                 -4.0367370000      3.2730490000     -0.5433330000
C                 -5.1537730000      1.4078200000      0.7629000000
H                 -3.6544650000     -0.3938810000     -0.4655230000
H                 -3.6318280000      2.7402310000      1.4879740000
H                 -4.2588410000      2.8010160000     -1.5050140000
H                 -3.1415920000      3.8867510000     -0.6544100000
H                 -4.8687000000      3.9354010000     -0.2902450000
H                 -5.4821300000      0.9196270000     -0.1595670000
H                 -5.9557360000      2.0813530000      1.0746470000
H                 -5.0406150000      0.6409600000      1.5335880000
$end
$rem
MAX_SCF_CYCLES=200
BASIS  =  6-311++G(d,p)
GUI  =  2
JOB_TYPE  =  SP
METHOD  =  B3LYP
SOLVENT_METHOD = COSMO
$end
$solvent
dielectric 37.219
opticaldielectric 1.43
$end

--------------------------------------------------------------

             Standard Nuclear Orientation (Angstroms)
    I     Atom           X                Y                Z
 ----------------------------------------------------------------
    1      C      -0.5312704251    -0.5785631624    -0.1613476590
    2      C      -1.9483040640    -0.0677127468    -0.1338325906
    3      C      -2.1689180688     1.2540657293    -0.0259419201
    4      C      -1.0780204741     2.2406180117     0.1029810973
    5      C       0.3174344837     1.7362045157     0.1082844547
    6      C       0.5744217046     0.4267528596    -0.0100334523
    7      O      -0.2958619803    -1.7599266030    -0.3131031429
    8      O      -1.3062062700     3.4357143597     0.2070179712
    9      H       1.0924652960     2.4857360824     0.2110832527
   10      I       2.5324795270    -0.3272248668    -0.0136914331
   11      C      -3.0359592670    -1.1176321529    -0.2227280111
   12      C      -3.2035653637    -1.8242709552     1.1413745400
   13      C      -4.3770908697    -0.5714401101    -0.7258014181
   14      H      -3.1675915072     1.6747373913    -0.0223300513
   15      H      -2.6783437897    -1.8712075002    -0.9313033671
   16      H      -3.5514728999    -1.1187657641     1.9017681599
   17      H      -2.2668225205    -2.2689208505     1.4805678951
   18      H      -3.9437165164    -2.6242283338     1.0566951167
   19      H      -4.8285453321     0.1254078054    -0.0132791786
   20      H      -5.0813846882    -1.3958086517    -0.8613162594
   21      H      -4.2718229039    -0.0584662246    -1.6852884863
 ----------------------------------------------------------------

    9   -7418.4530061036      6.98e-06  Convergence criterion met
 Total energy in the final basis set =    -7418.4530061036
    5   -7418.4657859539      3.78e-06  Convergence criterion met
 Total energy in the final basis set =    -7418.4657859539

                    Orbital Energies (a.u.)
 --------------------------------------------------------------

 Alpha MOs
 -- Occupied --
********-176.3133-165.7170-165.7150-165.7148 -35.8098 -31.3029 -31.2972
-31.2967 -22.9535 -22.9521 -22.9518 -22.9478 -22.9478 -19.1540 -19.1469
-10.3021 -10.2922 -10.2567 -10.2235 -10.2192 -10.2063 -10.1926 -10.1638
-10.1622  -6.3591  -4.7713  -4.7573  -4.7562  -2.0375  -2.0327  -2.0320
 -2.0201  -2.0199  -1.0885  -1.0770  -0.8765  -0.8314  -0.7746  -0.7197
 -0.6931  -0.6772  -0.6430  -0.5973  -0.5748  -0.5366  -0.5157  -0.4833
 -0.4701  -0.4604  -0.4521  -0.4422  -0.4336  -0.4295  -0.4088  -0.3929
 -0.3870  -0.3647  -0.3537  -0.3454  -0.3389  -0.3029  -0.2993  -0.2897
 -0.2757  -0.2676

          Ground-State Mulliken Net Atomic Charges

     Atom                 Charge (a.u.)
  ----------------------------------------
      1 C                    -1.905215
      2 C                     1.535269
      3 C                    -0.495064
      4 C                    -0.328056
      5 C                     0.020314
      6 C                     0.985333
      7 O                    -0.190186
      8 O                    -0.305917
      9 H                     0.253389
     10 I                     0.059432
     11 C                     0.183649
     12 C                    -0.717734
     13 C                    -0.556604
     14 H                     0.253301
     15 H                     0.219922
     16 H                     0.161634
     17 H                     0.170788
     18 H                     0.162468
     19 H                     0.155081
     20 H                     0.186640
     21 H                     0.151558
  ----------------------------------------
  Sum of atomic charges =     0.000000

                    Cartesian Multipole Moments
 -----------------------------------------------------------------
    Charge (ESU x 10^10)
                 0.0000
    Dipole Moment (Debye)
         X      -1.7719      Y      -1.0879      Z       0.0263
       Tot       2.0794
    Quadrupole Moments (Debye-Ang)
        XX     -81.1232     XY       7.8607     YY    -112.2197
        XZ       1.0381     YZ      -1.7623     ZZ     -93.3757

 Total job time:  33.48s(wall), 225.79s(cpu)
        *  Thank you very much for using Q-Chem.  Have a nice day.  *
