 Q-Chem 5.4, Q-Chem, Inc., Pleasanton, CA (2021)
 Q-Chem 5.4.0 for Intel X86 EM64T Linux

User input:
--------------------------------------------------------------
$molecule
-2 1
C                 -0.7993500000      2.8581910000      0.3569350000
C                 -1.4906060000      2.9604780000     -0.8326070000
C                 -1.0245820000      2.2836600000     -1.9881100000
C                  0.3879080000      2.0821340000      0.4657370000
C                  0.8611790000      1.3919080000     -0.7110250000
C                  0.1301030000      1.5192860000     -1.9059350000
C                  1.0895120000      1.9894300000      1.7060080000
C                  2.2595060000      1.1855060000      1.7024990000
C                  2.7542590000      0.5019140000      0.5714660000
C                  2.0815260000      0.5658140000     -0.7041330000
O                  0.7520010000      2.5684670000      2.8316000000
O                  2.4777160000     -0.0414460000     -1.7438330000
O                  2.8760270000      1.1424150000      2.9218060000
H                 -1.1389480000      3.3672610000      1.2533710000
H                 -2.3968690000      3.5619000000     -0.8847430000
H                 -1.5681700000      2.3621910000     -2.9268930000
H                  0.5155150000      0.9854170000     -2.7690950000
H                  2.2508140000      1.7223880000      3.4318440000
S                  4.3156010000     -0.3452900000      0.6845600000
C                  3.9425880000     -2.0857440000      0.7873220000
C                  2.6497070000     -2.6131560000      0.6633640000
C                  5.0011720000     -2.9822310000      0.9945920000
C                  2.4367450000     -3.9850660000      0.7516560000
C                  4.7742450000     -4.3548990000      1.0780030000
C                  3.4872200000     -4.8895280000      0.9600190000
C                  3.2365890000     -6.3779970000      1.0497760000
H                  1.8244980000     -1.9331390000      0.4901590000
H                  6.0125700000     -2.5980130000      1.0956390000
H                  1.4218680000     -4.3640350000      0.6494100000
H                  5.6168130000     -5.0237030000      1.2435530000
H                  4.1597440000     -6.9294080000      1.2543040000
H                  2.8181980000     -6.7798160000      0.1184060000
H                  2.5271580000     -6.6264250000      1.8493420000
$end
$rem
MAX_SCF_CYCLES=200
BASIS  =  6-311++G(d,p)
GUI  =  2
JOB_TYPE  =  SP
METHOD  =  B3LYP
SOLVENT_METHOD = COSMO
$end
$solvent
dielectric 37.219
opticaldielectric 1.43
$end

--------------------------------------------------------------

             Standard Nuclear Orientation (Angstroms)
    I     Atom           X                Y                Z
 ----------------------------------------------------------------
    1      C       4.2700389601     0.1992352052     0.9473892519
    2      C       4.8630612356     1.4201734462     0.7005248149
    3      C       4.2007982703     2.3852711406    -0.0997516134
    4      C       2.9923878892    -0.1308406346     0.4160310092
    5      C       2.3177997043     0.8530127075    -0.3976824277
    6      C       2.9530993180     2.0867527196    -0.6274370012
    7      C       2.3956612758    -1.4004866645     0.6825467975
    8      C       1.1176816006    -1.6227071732     0.1058509799
    9      C       0.4318797036    -0.6876282834    -0.6982742769
   10      C       0.9940296711     0.6079403202    -0.9970971598
   11      O       2.9133281695    -2.3628973368     1.4050020265
   12      O       0.4113462885     1.4864120382    -1.7009968900
   13      O       0.6091208269    -2.8559076397     0.4045934893
   14      H       4.7590555222    -0.5533349542     1.5577805409
   15      H       5.8419904560     1.6441099084     1.1215821176
   16      H       4.6659521899     3.3487977056    -0.2952431543
   17      H       2.4153728891     2.8015699989    -1.2426526133
   18      H       1.3538512779    -3.1984269305     0.9662480347
   19      S      -1.0967494091    -1.1671400422    -1.4739644343
   20      C      -2.4033491690    -0.3805224118    -0.5504339129
   21      C      -2.1803856946     0.5304180904     0.4914609830
   22      C      -3.7311298969    -0.6803589164    -0.8885851932
   23      C      -3.2523954080     1.1069157825     1.1650565027
   24      C      -4.7960625693    -0.0931933630    -0.2075376820
   25      C      -4.5829969151     0.8131761461     0.8361476549
   26      C      -5.7353655173     1.4525476573     1.5775401666
   27      H      -1.1598498157     0.7808444213     0.7544936023
   28      H      -3.9302443197    -1.3848822178    -1.6915548356
   29      H      -3.0468883463     1.8119154040     1.9680443320
   30      H      -5.8148574314    -0.3501378208    -0.4915500096
   31      H      -6.7001431074     1.0804475983     1.2185879476
   32      H      -5.7438547250     2.5433487067     1.4590470502
   33      H      -5.6912710737     1.2508977489     2.6553655688
 ----------------------------------------------------------------

   32   -1279.1685937959      4.42e-06  Convergence criterion met
 Total energy in the final basis set =    -1279.1685937959
    6   -1279.4365737365      3.15e-06  Convergence criterion met
 Total energy in the final basis set =    -1279.4365737365

                    Orbital Energies (a.u.)
 --------------------------------------------------------------

 Alpha MOs
 -- Occupied --
-88.8338 -19.1192 -19.0350 -19.0344 -10.1951 -10.1942 -10.1913 -10.1748
-10.1696 -10.1685 -10.1675 -10.1665 -10.1652 -10.1590 -10.1583 -10.1549
-10.1512 -10.1493 -10.1492 -10.1483 -10.1439  -7.9196  -5.8835  -5.8796
 -5.8740  -1.0365  -0.9599  -0.9368  -0.8586  -0.8318  -0.7973  -0.7696
 -0.7412  -0.7340  -0.7285  -0.6954  -0.6604  -0.6376  -0.6042  -0.5930
 -0.5809  -0.5616  -0.5426  -0.5097  -0.4938  -0.4748  -0.4641  -0.4535
 -0.4434  -0.4307  -0.4262  -0.4145  -0.4130  -0.4061  -0.4035  -0.3923
 -0.3815  -0.3791  -0.3736  -0.3633  -0.3587  -0.3548  -0.3499  -0.3364
 -0.3339  -0.3261  -0.3148  -0.3050  -0.3036  -0.2745  -0.2531  -0.2361
 -0.2348  -0.2265  -0.2118  -0.2101  -0.1958  -0.1214

          Ground-State Mulliken Net Atomic Charges

     Atom                 Charge (a.u.)
  ----------------------------------------
      1 C                    -0.163351
      2 C                    -0.572781
      3 C                    -0.537720
      4 C                     0.240498
      5 C                    -0.054104
      6 C                    -0.061111
      7 C                    -0.793054
      8 C                    -0.724644
      9 C                     2.571338
     10 C                    -0.831015
     11 O                    -0.772417
     12 O                    -0.604204
     13 O                    -0.300859
     14 H                     0.178488
     15 H                     0.177142
     16 H                     0.179867
     17 H                     0.174923
     18 H                     0.297547
     19 S                     0.010543
     20 C                    -0.080565
     21 C                    -0.241789
     22 C                    -0.205298
     23 C                    -0.039043
     24 C                    -1.122330
     25 C                     0.493696
     26 C                    -0.539998
     27 H                     0.210711
     28 H                     0.212525
     29 H                     0.224071
     30 H                     0.171612
     31 H                     0.165854
     32 H                     0.170141
     33 H                     0.165326
  ----------------------------------------
  Sum of atomic charges =    -2.000003

                    Cartesian Multipole Moments
 -----------------------------------------------------------------
    Charge (ESU x 10^10)
                -9.6064
    Dipole Moment (Debye)
         X     -13.7739      Y       5.7225      Z       3.0647
       Tot      15.2270
    Quadrupole Moments (Debye-Ang)
        XX    -177.3150     XY      13.5562     YY    -172.8024
        XZ     -14.0147     YZ      19.4258     ZZ    -158.0236

 Total job time:  232.88s(wall), 1767.62s(cpu)
        *  Thank you very much for using Q-Chem.  Have a nice day.  *
