 Q-Chem 5.4, Q-Chem, Inc., Pleasanton, CA (2021)
 Q-Chem 5.4.0 for Intel X86 EM64T Linux

User input:
--------------------------------------------------------------
$molecule
0 1
O                  3.1022000000     -2.1811470000      0.2142240000
C                  2.7805010000     -0.8826250000      0.2560140000
C                  3.8157390000      0.0496190000      0.4188680000
C                  3.5277260000      1.4031740000      0.4673110000
C                  2.2121500000      1.8664570000      0.3561240000
C                  1.1744610000      0.9593030000      0.1944920000
C                 -0.2247360000      1.4920750000      0.0785090000
O                 -0.4213050000      2.6931320000      0.1273740000
C                 -1.3262780000      0.5023220000     -0.0943160000
C                 -2.6775400000      0.9023750000     -0.2125370000
O                 -2.9977330000      2.2159670000     -0.1695730000
C                 -3.6805890000     -0.0625640000     -0.3737690000
C                 -3.3714130000     -1.4138000000     -0.4201430000
C                 -2.0495960000     -1.8295690000     -0.3058820000
C                 -1.0402240000     -0.8823120000     -0.1449090000
C                  0.3576650000     -1.3877190000     -0.0276240000
O                  0.5785180000     -2.6071690000     -0.0753750000
C                  1.4420360000     -0.4272800000      0.1420400000
H                  2.2609650000     -2.6853830000      0.0965430000
H                  4.8303130000     -0.3199780000      0.5038450000
H                  4.3364870000      2.1143380000      0.5935320000
H                  1.9806210000      2.9225890000      0.3931680000
H                 -3.9523660000      2.3128390000     -0.2641250000
H                 -4.7130060000      0.2636870000     -0.4628590000
H                 -4.1644240000     -2.1418690000     -0.5456340000
H                 -1.7801700000     -2.8764610000     -0.3386170000
$end

$rem
BASIS  =  6-311++G(d,p)
GUI  =  2
JOB_TYPE  =  SP
METHOD  =  B3LYP
SCF_CONVERGENCE  = 8
SOLVENT_METHOD = sm12
$end

$smx
solvent dimethylformamide
charges CM5
$end

--------------------------------------------------------------

             Standard Nuclear Orientation (Angstroms)
    I     Atom           X                Y                Z
 ----------------------------------------------------------------
    1      O       3.1022000000    -2.1811470000     0.2142240000
    2      C       2.7805010000    -0.8826250000     0.2560140000
    3      C       3.8157390000     0.0496190000     0.4188680000
    4      C       3.5277260000     1.4031740000     0.4673110000
    5      C       2.2121500000     1.8664570000     0.3561240000
    6      C       1.1744610000     0.9593030000     0.1944920000
    7      C      -0.2247360000     1.4920750000     0.0785090000
    8      O      -0.4213050000     2.6931320000     0.1273740000
    9      C      -1.3262780000     0.5023220000    -0.0943160000
   10      C      -2.6775400000     0.9023750000    -0.2125370000
   11      O      -2.9977330000     2.2159670000    -0.1695730000
   12      C      -3.6805890000    -0.0625640000    -0.3737690000
   13      C      -3.3714130000    -1.4138000000    -0.4201430000
   14      C      -2.0495960000    -1.8295690000    -0.3058820000
   15      C      -1.0402240000    -0.8823120000    -0.1449090000
   16      C       0.3576650000    -1.3877190000    -0.0276240000
   17      O       0.5785180000    -2.6071690000    -0.0753750000
   18      C       1.4420360000    -0.4272800000     0.1420400000
   19      H       2.2609650000    -2.6853830000     0.0965430000
   20      H       4.8303130000    -0.3199780000     0.5038450000
   21      H       4.3364870000     2.1143380000     0.5935320000
   22      H       1.9806210000     2.9225890000     0.3931680000
   23      H      -3.9523660000     2.3128390000    -0.2641250000
   24      H      -4.7130060000     0.2636870000    -0.4628590000
   25      H      -4.1644240000    -2.1418690000    -0.5456340000
   26      H      -1.7801700000    -2.8764610000    -0.3386170000
 ----------------------------------------------------------------

   15    -839.4495284772      3.10e-09  Convergence criterion met
 Total energy in the final basis set =     -839.4789759899

                    Orbital Energies (a.u.)
 --------------------------------------------------------------

 Alpha MOs
 -- Occupied --
-19.1727 -19.1631 -19.1389 -19.1209 -10.2891 -10.2792 -10.2694 -10.2682
-10.2132 -10.2107 -10.2106 -10.2082 -10.2024 -10.2012 -10.1994 -10.1945
-10.1926 -10.1915  -1.0926  -1.0902  -1.0621  -1.0570  -0.8931  -0.8793
 -0.8163  -0.7768  -0.7754  -0.7685  -0.6942  -0.6744  -0.6614  -0.6241
 -0.6142  -0.5753  -0.5658  -0.5406  -0.5267  -0.5114  -0.4949  -0.4896
 -0.4760  -0.4671  -0.4582  -0.4532  -0.4481  -0.4414  -0.4156  -0.4156
 -0.4109  -0.4078  -0.3941  -0.3906  -0.3782  -0.3740  -0.3593  -0.3553
 -0.2928  -0.2927  -0.2802  -0.2673  -0.2540  -0.2497

          Ground-State Mulliken Net Atomic Charges

     Atom                 Charge (a.u.)
  ----------------------------------------
      1 O                    -0.311407
      2 C                    -0.707303
      3 C                     0.381376
      4 C                     0.402373
      5 C                    -0.210194
      6 C                    -0.155867
      7 C                    -1.369427
      8 O                    -0.271781
      9 C                    -1.081211
     10 C                     0.133075
     11 O                    -0.198937
     12 C                     1.496255
     13 C                     0.648564
     14 C                     0.454670
     15 C                     0.314216
     16 C                    -1.323315
     17 O                    -0.290490
     18 C                    -0.225095
     19 H                     0.307284
     20 H                     0.261329
     21 H                     0.356262
     22 H                     0.167135
     23 H                     0.342664
     24 H                     0.335123
     25 H                     0.351196
     26 H                     0.193507
  ----------------------------------------
  Sum of atomic charges =     0.000000

                    Cartesian Multipole Moments
 -----------------------------------------------------------------
    Charge (ESU x 10^10)
                 0.0000
    Dipole Moment (Debye)
         X      -4.0821      Y      -0.0935      Z      -0.4324
       Tot       4.1060
    Quadrupole Moments (Debye-Ang)
        XX     -68.7771     XY       9.4451     YY    -113.3578
        XZ       4.3107     YZ       0.5266     ZZ    -104.8365

 Total job time:  639.79s(wall), 4801.96s(cpu)
        *  Thank you very much for using Q-Chem.  Have a nice day.  *
