 Q-Chem 5.4, Q-Chem, Inc., Pleasanton, CA (2021)
 Q-Chem 5.4.0 for Intel X86 EM64T Linux

User input:
--------------------------------------------------------------
$molecule
-2 1
C                 -0.9438970000      3.9878550000     -0.1320550000
C                 -2.1938430000      3.4058100000     -0.2194740000
C                 -2.3142080000      1.9883260000     -0.2226230000
C                  0.2464100000      3.2187530000     -0.0430600000
C                  0.1227980000      1.7698780000     -0.0559140000
C                 -1.1715530000      1.2100200000     -0.1449490000
C                  1.5249630000      3.8705770000      0.0250310000
C                  2.6407120000      2.9925410000      0.1057540000
C                  2.5116850000      1.5869230000      0.1347030000
C                  1.2793500000      0.8902060000      0.0190860000
O                  1.6982930000      5.1691360000     -0.0041330000
O                  1.1991660000     -0.3974860000     -0.0122820000
N                  3.9151310000      3.6411500000      0.1875110000
S                  3.9662990000      0.5178770000      0.2880870000
H                 -0.8235440000      5.0674310000     -0.1283210000
H                 -3.0851600000      4.0295760000     -0.2837840000
H                 -3.2958620000      1.5210620000     -0.2897280000
H                 -1.2266220000      0.1249820000     -0.1507750000
H                  3.6812960000      4.6350870000      0.0857170000
H                  4.5192590000      3.3611730000     -0.5842590000
H                  4.7744780000      1.4962850000      0.7590480000
$end
$rem
MAX_SCF_CYCLES=200
BASIS  =  6-311++G(d,p)
GUI  =  2
JOB_TYPE  =  SP
METHOD  =  B3LYP
SOLVENT_METHOD = PCM
$end
$pcm
theory = CPCM
$end
$solvent
dielectric 37.219
opticaldielectric 1.43
$end

--------------------------------------------------------------

             Standard Nuclear Orientation (Angstroms)
    I     Atom           X                Y                Z
 ----------------------------------------------------------------
    1      C      -0.9438970000     3.9878550000    -0.1320550000
    2      C      -2.1938430000     3.4058100000    -0.2194740000
    3      C      -2.3142080000     1.9883260000    -0.2226230000
    4      C       0.2464100000     3.2187530000    -0.0430600000
    5      C       0.1227980000     1.7698780000    -0.0559140000
    6      C      -1.1715530000     1.2100200000    -0.1449490000
    7      C       1.5249630000     3.8705770000     0.0250310000
    8      C       2.6407120000     2.9925410000     0.1057540000
    9      C       2.5116850000     1.5869230000     0.1347030000
   10      C       1.2793500000     0.8902060000     0.0190860000
   11      O       1.6982930000     5.1691360000    -0.0041330000
   12      O       1.1991660000    -0.3974860000    -0.0122820000
   13      N       3.9151310000     3.6411500000     0.1875110000
   14      S       3.9662990000     0.5178770000     0.2880870000
   15      H      -0.8235440000     5.0674310000    -0.1283210000
   16      H      -3.0851600000     4.0295760000    -0.2837840000
   17      H      -3.2958620000     1.5210620000    -0.2897280000
   18      H      -1.2266220000     0.1249820000    -0.1507750000
   19      H       3.6812960000     4.6350870000     0.0857170000
   20      H       4.5192590000     3.3611730000    -0.5842590000
   21      H       4.7744780000     1.4962850000     0.7590480000
 ----------------------------------------------------------------

    9    -989.1197004315      5.19e-06  Convergence criterion met
 Total energy in the final basis set =     -989.1197004315

                    Orbital Energies (a.u.)
 --------------------------------------------------------------

 Alpha MOs
 -- Occupied --
-88.8303 -19.0268 -19.0239 -14.2856 -10.1798 -10.1694 -10.1647 -10.1592
-10.1500 -10.1482 -10.1471 -10.1463 -10.1410 -10.1404  -7.9166  -5.8799
 -5.8767  -5.8713  -0.9439  -0.9372  -0.8709  -0.8254  -0.7729  -0.7339
 -0.7243  -0.6744  -0.6385  -0.5801  -0.5709  -0.5289  -0.5035  -0.4771
 -0.4485  -0.4380  -0.4147  -0.4058  -0.3972  -0.3793  -0.3758  -0.3665
 -0.3633  -0.3380  -0.3306  -0.3240  -0.3195  -0.3046  -0.2783  -0.2585
 -0.2309  -0.2261  -0.2116  -0.2042  -0.1848  -0.1163

          Ground-State Mulliken Net Atomic Charges

     Atom                 Charge (a.u.)
  ----------------------------------------
      1 C                     0.024180
      2 C                    -0.414544
      3 C                    -0.418062
      4 C                    -0.188198
      5 C                     0.646245
      6 C                     0.091051
      7 C                    -0.825592
      8 C                    -0.030102
      9 C                     1.471497
     10 C                    -1.104831
     11 O                    -0.748892
     12 O                    -0.660938
     13 N                    -0.469084
     14 S                    -0.657092
     15 H                     0.149676
     16 H                     0.170090
     17 H                     0.174411
     18 H                     0.139222
     19 H                     0.283756
     20 H                     0.257539
     21 H                     0.109669
  ----------------------------------------
  Sum of atomic charges =    -2.000000

                    Cartesian Multipole Moments
 -----------------------------------------------------------------
    Charge (ESU x 10^10)
                -9.6064
    Dipole Moment (Debye)
         X     -12.8931      Y     -20.6300      Z      -1.3624
       Tot      24.3656
    Quadrupole Moments (Debye-Ang)
        XX    -126.8188     XY     -24.5790     YY    -202.0703
        XZ      -6.1825     YZ      -4.0895     ZZ    -101.6759

 Total job time:  42.80s(wall), 207.30s(cpu)
        *  Thank you very much for using Q-Chem.  Have a nice day.  *
