 Q-Chem 5.4, Q-Chem, Inc., Pleasanton, CA (2021)
 Q-Chem 5.4.0 for Intel X86 EM64T Linux

User input:
--------------------------------------------------------------
$molecule
0 1
O                  2.5429200000     -0.9802570000     -0.2511560000
C                  1.3521900000     -0.4204030000     -0.1256240000
C                  1.1545980000      0.9136500000     -0.0067770000
Cl                 2.4612190000      2.0465710000     -0.0069760000
C                 -0.2034900000      1.4158100000      0.1260840000
O                 -0.5146140000      2.5901530000      0.2388780000
C                 -1.3521540000      0.4203690000      0.1256920000
C                 -1.1545710000     -0.9136980000      0.0069470000
Cl                -2.4612220000     -2.0465600000      0.0066430000
C                  0.2035560000     -1.4159180000     -0.1253400000
O                  0.5145070000     -2.5902260000     -0.2390530000
O                 -2.5428870000      0.9803720000      0.2507880000
H                  2.3853430000     -1.9452640000     -0.3162290000
H                 -2.3853960000      1.9454000000      0.3161240000
$end

$rem
BASIS  =  6-311++G(d,p)
GUI  =  2
JOB_TYPE  =  SP
METHOD  =  B3LYP
SCF_CONVERGENCE  = 8
SOLVENT_METHOD = sm12
$end

$smx
solvent dimethylformamide
charges CM5
$end

--------------------------------------------------------------

             Standard Nuclear Orientation (Angstroms)
    I     Atom           X                Y                Z
 ----------------------------------------------------------------
    1      O       2.5429200000    -0.9802570000    -0.2511560000
    2      C       1.3521900000    -0.4204030000    -0.1256240000
    3      C       1.1545980000     0.9136500000    -0.0067770000
    4      Cl      2.4612190000     2.0465710000    -0.0069760000
    5      C      -0.2034900000     1.4158100000     0.1260840000
    6      O      -0.5146140000     2.5901530000     0.2388780000
    7      C      -1.3521540000     0.4203690000     0.1256920000
    8      C      -1.1545710000    -0.9136980000     0.0069470000
    9      Cl     -2.4612220000    -2.0465600000     0.0066430000
   10      C       0.2035560000    -1.4159180000    -0.1253400000
   11      O       0.5145070000    -2.5902260000    -0.2390530000
   12      O      -2.5428870000     0.9803720000     0.2507880000
   13      H       2.3853430000    -1.9452640000    -0.3162290000
   14      H      -2.3853960000     1.9454000000     0.3161240000
 ----------------------------------------------------------------

   15   -1451.3145865116      9.71e-09  Convergence criterion met
 Total energy in the final basis set =    -1451.3319250661

                    Orbital Energies (a.u.)
 --------------------------------------------------------------

 Alpha MOs
 -- Occupied --
********-101.5803 -19.2087 -19.2087 -19.1697 -19.1697 -10.3198 -10.3198
-10.3056 -10.3056 -10.2715 -10.2715  -9.4948  -9.4948  -7.2600  -7.2600
 -7.2496  -7.2496  -7.2487  -7.2487  -1.1426  -1.1399  -1.0938  -1.0925
 -0.9235  -0.9056  -0.8454  -0.7778  -0.7302  -0.6758  -0.6396  -0.6251
 -0.5754  -0.5671  -0.5099  -0.4996  -0.4977  -0.4822  -0.4820  -0.4712
 -0.4465  -0.4319  -0.4178  -0.4151  -0.3763  -0.3716  -0.3483  -0.3418
 -0.3270  -0.3225  -0.2981  -0.2658

          Ground-State Mulliken Net Atomic Charges

     Atom                 Charge (a.u.)
  ----------------------------------------
      1 O                    -0.137729
      2 C                    -1.081200
      3 C                     1.890037
      4 Cl                    0.205755
      5 C                    -0.925638
      6 O                    -0.262842
      7 C                    -1.081436
      8 C                     1.890009
      9 Cl                    0.205750
     10 C                    -0.925478
     11 O                    -0.262818
     12 O                    -0.137780
     13 H                     0.311677
     14 H                     0.311692
  ----------------------------------------
  Sum of atomic charges =     0.000000

                    Cartesian Multipole Moments
 -----------------------------------------------------------------
    Charge (ESU x 10^10)
                -0.0000
    Dipole Moment (Debye)
         X       0.0003      Y      -0.0000      Z       0.0015
       Tot       0.0016
    Quadrupole Moments (Debye-Ang)
        XX     -83.3558     XY      -6.1840     YY     -89.3361
        XZ      -0.2401     YZ      -0.3274     ZZ     -79.7668

 Total job time:  138.85s(wall), 962.84s(cpu)
        *  Thank you very much for using Q-Chem.  Have a nice day.  *
