 Gaussian 16, Revision A.03,
 Gaussian 16:  ES64L-G16RevA.03 25-Dec-2016

 --------------------------------------
 #P UB3LYP/6-311++G(d,p) nosym opt freq
 --------------------------------------

 --------
 Oxidized
 --------
 Symbolic Z-matrix:
 Charge =  0 Multiplicity = 1

 SCF Done:  E(UB3LYP) =  -1451.31494222     A.U. after   16 cycles
 SCF Done:  E(UB3LYP) =  -1451.31494218     A.U. after   11 cycles
 Optimization completed.
    -- Stationary point found.
 Normal termination of Gaussian 16 at Wed Jan 10 16:50:16 2024.

 ----------------------------------------------------------------------
 #P Geom=AllCheck Guess=TCheck SCRF=Check GenChk UB3LYP/6-311++G(d,p) F
 req
 ----------------------------------------------------------------------

 Structure from the checkpoint file:  "112.chk"
 --------
 Oxidized
 --------
 Charge =  0 Multiplicity = 1

                          Input orientation:
 ---------------------------------------------------------------------
 Center     Atomic      Atomic             Coordinates (Angstroms)
 Number     Number       Type             X           Y           Z
 ---------------------------------------------------------------------
      1          8           0        2.542920   -0.980257   -0.251156
      2          6           0        1.352190   -0.420403   -0.125624
      3          6           0        1.154598    0.913650   -0.006777
      4         17           0        2.461219    2.046571   -0.006976
      5          6           0       -0.203490    1.415810    0.126084
      6          8           0       -0.514614    2.590153    0.238878
      7          6           0       -1.352154    0.420369    0.125692
      8          6           0       -1.154571   -0.913698    0.006947
      9         17           0       -2.461222   -2.046560    0.006643
     10          6           0        0.203556   -1.415918   -0.125340
     11          8           0        0.514507   -2.590226   -0.239053
     12          8           0       -2.542887    0.980372    0.250788
     13          1           0        2.385343   -1.945264   -0.316229
     14          1           0       -2.385396    1.945400    0.316124
 ---------------------------------------------------------------------

 SCF Done:  E(UB3LYP) =  -1451.31494218     A.U. after    2 cycles

 Alpha  occ. eigenvalues -- -101.58331-101.58330 -19.21420 -19.21418 -19.17472
 Alpha  occ. eigenvalues --  -19.17471 -10.32432 -10.32431 -10.30995 -10.30994
 Alpha  occ. eigenvalues --  -10.27593 -10.27592  -9.49753  -9.49753  -7.26267
 Alpha  occ. eigenvalues --   -7.26267  -7.25229  -7.25229  -7.25154  -7.25153
 Alpha  occ. eigenvalues --   -1.14796  -1.14535  -1.09874  -1.09748  -0.92766
 Alpha  occ. eigenvalues --   -0.90927  -0.84912  -0.78211  -0.73477  -0.68110
 Alpha  occ. eigenvalues --   -0.64406  -0.63036  -0.58036  -0.57216  -0.51485
 Alpha  occ. eigenvalues --   -0.50343  -0.50171  -0.48682  -0.48544  -0.47634
 Alpha  occ. eigenvalues --   -0.45097  -0.43735  -0.42287  -0.41985  -0.37906
 Alpha  occ. eigenvalues --   -0.37459  -0.35108  -0.34397  -0.33073  -0.32666
 Alpha  occ. eigenvalues --   -0.30195  -0.26991
 Alpha virt. eigenvalues --   -0.15713  -0.03750  -0.03151  -0.02583  -0.00851
 Alpha virt. eigenvalues --   -0.00140   0.00408   0.02308   0.02779   0.03519
 Alpha virt. eigenvalues --    0.05096   0.05727   0.06717   0.07450   0.07607

  Beta  occ. eigenvalues -- -101.58331-101.58330 -19.21420 -19.21418 -19.17472
  Beta  occ. eigenvalues --  -19.17471 -10.32432 -10.32431 -10.30995 -10.30994
  Beta  occ. eigenvalues --  -10.27593 -10.27592  -9.49753  -9.49753  -7.26267
  Beta  occ. eigenvalues --   -7.26267  -7.25229  -7.25229  -7.25154  -7.25153
  Beta  occ. eigenvalues --   -1.14796  -1.14535  -1.09874  -1.09748  -0.92766
  Beta  occ. eigenvalues --   -0.90927  -0.84912  -0.78211  -0.73477  -0.68110
  Beta  occ. eigenvalues --   -0.64406  -0.63036  -0.58036  -0.57216  -0.51485
  Beta  occ. eigenvalues --   -0.50343  -0.50171  -0.48682  -0.48544  -0.47634
  Beta  occ. eigenvalues --   -0.45097  -0.43735  -0.42287  -0.41985  -0.37906
  Beta  occ. eigenvalues --   -0.37459  -0.35108  -0.34397  -0.33073  -0.32666
  Beta  occ. eigenvalues --   -0.30195  -0.26991
  Beta virt. eigenvalues --   -0.15713  -0.03750  -0.03151  -0.02583  -0.00851
  Beta virt. eigenvalues --   -0.00140   0.00408   0.02308   0.02779   0.03519
  Beta virt. eigenvalues --    0.05096   0.05727   0.06717   0.07450   0.07607

 Mulliken charges and spin densities:
               1          2
     1  O   -0.130206   0.000000
     2  C   -1.306538  -0.000000
     3  C    1.999319   0.000000
     4  Cl   0.301354  -0.000000
     5  C   -0.921488   0.000000
     6  O   -0.234752  -0.000000
     7  C   -1.306656   0.000000
     8  C    1.999297  -0.000000
     9  Cl   0.301351   0.000000
    10  C   -0.921412  -0.000000
    11  O   -0.234723   0.000000
    12  O   -0.130255  -0.000000
    13  H    0.292345  -0.000000
    14  H    0.292364   0.000000
 Sum of Mulliken charges =  -0.00000   0.00000

 Dipole moment (field-independent basis, Debye):
    X=              0.0002    Y=             -0.0000    Z=              0.0015  Tot=              0.0015
 Quadrupole moment (field-independent basis, Debye-Ang):
   XX=            -83.1424   YY=            -88.8432   ZZ=            -79.7865
   XY=             -5.5911   XZ=             -0.2113   YZ=             -0.3293

  Exact polarizability: 126.761   2.986 157.293  -4.610   7.790  56.752
 Approx polarizability: 183.650 -32.279 320.038  -9.264  20.699  87.500

                      1                      2                      3
                      A                      A                      A
 Frequencies --     70.4034                99.4761               122.1017
 Red. masses --     19.1097                13.0736                15.3273
 Frc consts  --      0.0558                 0.0762                 0.1346
 IR Inten    --      0.0086                 1.8216                 0.0000

                      4                      5                      6
                      A                      A                      A
 Frequencies --    189.4772               192.1924               212.2802
 Red. masses --     20.5943                 9.6133                14.0806
 Frc consts  --      0.4356                 0.2092                 0.3738
 IR Inten    --      0.0647                 1.7134                 0.0000

                      7                      8                      9
                      A                      A                      A
 Frequencies --    278.7404               308.2420               322.6722
 Red. masses --     13.6452                11.8342                 6.7386
 Frc consts  --      0.6246                 0.6625                 0.4134
 IR Inten    --      0.0000                 0.0000                23.6923

                     10                     11                     12
                      A                      A                      A
 Frequencies --    378.8023               394.8405               412.8871
 Red. masses --      7.7902                11.1408                13.3508
 Frc consts  --      0.6586                 1.0233                 1.3410
 IR Inten    --      0.0002                40.8135                 0.0001

                     13                     14                     15
                      A                      A                      A
 Frequencies --    500.0391               529.6574               557.8789
 Red. masses --     12.4493                12.8932                15.6902
 Frc consts  --      1.8340                 2.1311                 2.8771
 IR Inten    --      0.0001                 0.0000                14.1085

                     16                     17                     18
                      A                      A                      A
 Frequencies --    588.6780               692.2606               702.3653
 Red. masses --     12.0018                 1.2322                 1.0807
 Frc consts  --      2.4505                 0.3479                 0.3141
 IR Inten    --     18.6865               153.3582                 0.0124

                     19                     20                     21
                      A                      A                      A
 Frequencies --    724.4273               749.3420               783.3826
 Red. masses --     10.2127                 4.9788                 7.3478
 Frc consts  --      3.1578                 1.6471                 2.6568
 IR Inten    --      0.0000                51.3640                 0.0000

                     22                     23                     24
                      A                      A                      A
 Frequencies --    850.2459               905.4799               983.4124
 Red. masses --      8.6962                11.9615                 8.1406
 Frc consts  --      3.7040                 5.7782                 4.6385
 IR Inten    --    104.8365                 0.0000               156.5026

                     25                     26                     27
                      A                      A                      A
 Frequencies --   1236.7440              1239.6400              1268.9384
 Red. masses --      3.2539                 3.9300                 5.8817
 Frc consts  --      2.9324                 3.5582                 5.5800
 IR Inten    --      0.0078               110.8701                 0.0001

                     28                     29                     30
                      A                      A                      A
 Frequencies --   1326.7902              1377.8913              1403.2933
 Red. masses --      4.4743                 2.3391                 2.1204
 Frc consts  --      4.6406                 2.6166                 2.4601
 IR Inten    --    249.3201               950.9098                 0.0019

                     31                     32                     33
                      A                      A                      A
 Frequencies --   1675.2505              1683.0427              1718.1189
 Red. masses --      6.8969                10.4862                12.7301
 Frc consts  --     11.4042                17.5008                22.1405
 IR Inten    --    304.4074                 0.0023               457.5086

                     34                     35                     36
                      A                      A                      A
 Frequencies --   1727.6557              3558.4967              3564.5139
 Red. masses --      9.7593                 1.0638                 1.0641
 Frc consts  --     17.1626                 7.9369                 7.9656
 IR Inten    --      0.0031                 0.2026               332.8420

 - Thermochemistry -
 -------------------
 Temperature   298.150 Kelvin.  Pressure   1.00000 Atm.
 Atom     1 has atomic number  8 and mass  15.99491

 Molecular mass:   207.93301 amu.
 Principal axes and moments of inertia in atomic units:
                           1         2         3
     Eigenvalues --  1591.966163230.532104822.49819
           X            0.78615  -0.61429   0.06793
           Y            0.61801   0.78225  -0.07836
           Z           -0.00500   0.10358   0.99461
 This molecule is an asymmetric top.
 Rotational symmetry number  1.
 Warning -- assumption of classical behavior for rotation
           may cause significant error
 Rotational temperatures (Kelvin)      0.05441     0.02681     0.01796
 Rotational constants (GHZ):           1.13366     0.55865     0.37423
 Zero-point vibrational energy     199355.6 (Joules/Mol)
                                   47.64714 (Kcal/Mol)
 Warning -- explicit consideration of  16 degrees of freedom as
           vibrations may cause significant error
 Vibrational temperatures:    101.29   143.12   175.68   272.62   276.52
          (Kelvin)            305.42   401.05   443.49   464.25   545.01
                              568.09   594.05   719.44   762.06   802.66
                              846.98   996.01  1010.55  1042.29  1078.14
                             1127.11  1223.31  1302.78  1414.91  1779.40
                             1783.57  1825.72  1908.96  1982.48  2019.03
                             2410.31  2421.52  2471.99  2485.71  5119.88
                             5128.54

 Zero-point correction=                           0.075931 (Hartree/Particle)
 Thermal correction to Energy=                    0.086388
 Thermal correction to Enthalpy=                  0.087332
 Thermal correction to Gibbs Free Energy=         0.038879
 Sum of electronic and zero-point Energies=          -1451.239012
 Sum of electronic and thermal Energies=             -1451.228554
 Sum of electronic and thermal Enthalpies=           -1451.227610
 Sum of electronic and thermal Free Energies=        -1451.276063

                     E (Thermal)             CV                S
                      KCal/Mol        Cal/Mol-Kelvin    Cal/Mol-Kelvin
 Total                   54.209             37.745            101.978
 Electronic               0.000              0.000              0.000
 Translational            0.889              2.981             41.900
 Rotational               0.889              2.981             31.584
 Vibrational             52.432             31.783             28.494
 Vibration     1          0.598              1.968              4.142
 Vibration     2          0.604              1.949              3.465
 Vibration     3          0.610              1.931              3.067
 Vibration     4          0.633              1.854              2.233
 Vibration     5          0.634              1.851              2.207
 Vibration     6          0.643              1.822              2.024
 Vibration     7          0.679              1.713              1.541
 Vibration     8          0.698              1.658              1.372
 Vibration     9          0.708              1.630              1.297
 Vibration    10          0.749              1.515              1.044
 Vibration    11          0.762              1.481              0.982
 Vibration    12          0.777              1.442              0.916
 Vibration    13          0.855              1.250              0.658
 Vibration    14          0.885              1.184              0.588
 Vibration    15          0.913              1.122              0.528
 Vibration    16          0.946              1.056              0.470

 Optimization completed.
    -- Stationary point found.
 Normal termination of Gaussian 16 at Wed Jan 10 16:55:15 2024.
