 Gaussian 16, Revision A.03,
 Gaussian 16:  ES64L-G16RevA.03 25-Dec-2016

 --------------------------------------
 #P UB3LYP/6-311++G(d,p) nosym opt freq
 --------------------------------------

 -------
 Reduced
 -------
 Symbolic Z-matrix:
 Charge = -2 Multiplicity = 1

 SCF Done:  E(UB3LYP) =  -778.624433647     A.U. after   16 cycles
 Optimization completed.
    -- Stationary point found.
 Normal termination of Gaussian 16 at Sat Jan  6 05:50:05 2024.

 ----------------------------------------------------------------------
 #P Geom=AllCheck Guess=TCheck SCRF=Check GenChk UB3LYP/6-311++G(d,p) F
 req
 ----------------------------------------------------------------------

 Structure from the checkpoint file:  "028-an.chk"
 -------
 Reduced
 -------
 Charge = -2 Multiplicity = 1

                          Input orientation:
 ---------------------------------------------------------------------
 Center     Atomic      Atomic             Coordinates (Angstroms)
 Number     Number       Type             X           Y           Z
 ---------------------------------------------------------------------
      1          9           0       -2.682113    0.568585   -0.015672
      2          6           0       -1.336671    0.234439   -0.007205
      3          6           0       -0.424587    1.288983   -0.017064
      4          9           0       -0.948958    2.571981   -0.034400
      5          6           0        0.995103    1.150334   -0.010726
      6          8           0        1.842133    2.129567   -0.019922
      7          6           0        1.336642   -0.234447    0.007217
      8          6           0        0.424579   -1.288955    0.017076
      9          9           0        0.948999   -2.571934    0.034363
     10          6           0       -0.995034   -1.150297    0.010783
     11          8           0       -1.842174   -2.129613    0.019914
     12          9           0        2.682082   -0.568644    0.015636
 ---------------------------------------------------------------------

 SCF Done:  E(UB3LYP) =  -778.624433647     A.U. after    3 cycles

 Alpha  occ. eigenvalues --  -24.39739 -24.39739 -24.39735 -24.39734 -18.74682
 Alpha  occ. eigenvalues --  -18.74680  -9.94470  -9.94468  -9.94418  -9.94416
 Alpha  occ. eigenvalues --   -9.91794  -9.91792  -0.93234  -0.93181  -0.91852
 Alpha  occ. eigenvalues --   -0.91813  -0.66050  -0.65674  -0.53602  -0.44272
 Alpha  occ. eigenvalues --   -0.40747  -0.32740  -0.31702  -0.25009  -0.24976
 Alpha  occ. eigenvalues --   -0.24423  -0.21197  -0.19387  -0.18048  -0.17992
 Alpha  occ. eigenvalues --   -0.16048  -0.15569  -0.13368  -0.12992  -0.10234
 Alpha  occ. eigenvalues --   -0.09111  -0.08908  -0.06899  -0.06725  -0.03887
 Alpha  occ. eigenvalues --    0.04485   0.06103   0.06965   0.07114   0.14565
 Alpha virt. eigenvalues --    0.24251   0.25850   0.27029   0.28118   0.28204
 Alpha virt. eigenvalues --    0.29515   0.30358   0.30801   0.33074   0.33919
 Alpha virt. eigenvalues --    0.34480   0.34655   0.34758   0.35057   0.36157

  Beta  occ. eigenvalues --  -24.39739 -24.39739 -24.39735 -24.39734 -18.74682
  Beta  occ. eigenvalues --  -18.74680  -9.94470  -9.94468  -9.94418  -9.94416
  Beta  occ. eigenvalues --   -9.91794  -9.91792  -0.93234  -0.93181  -0.91852
  Beta  occ. eigenvalues --   -0.91813  -0.66050  -0.65674  -0.53602  -0.44272
  Beta  occ. eigenvalues --   -0.40747  -0.32740  -0.31702  -0.25009  -0.24976
  Beta  occ. eigenvalues --   -0.24423  -0.21197  -0.19387  -0.18048  -0.17992
  Beta  occ. eigenvalues --   -0.16048  -0.15569  -0.13368  -0.12992  -0.10234
  Beta  occ. eigenvalues --   -0.09111  -0.08908  -0.06899  -0.06725  -0.03887
  Beta  occ. eigenvalues --    0.04485   0.06103   0.06965   0.07114   0.14565
  Beta virt. eigenvalues --    0.24251   0.25850   0.27029   0.28118   0.28204
  Beta virt. eigenvalues --    0.29515   0.30358   0.30801   0.33074   0.33919
  Beta virt. eigenvalues --    0.34480   0.34655   0.34758   0.35057   0.36157

 Mulliken charges and spin densities:
               1          2
     1  F   -0.280057  -0.000000
     2  C    0.197483  -0.000000
     3  C    0.198013   0.000000
     4  F   -0.279951   0.000000
     5  C   -0.216247   0.000000
     6  O   -0.619322   0.000000
     7  C    0.197938   0.000000
     8  C    0.197659  -0.000000
     9  F   -0.279952   0.000000
    10  C   -0.216082  -0.000000
    11  O   -0.619412   0.000000
    12  F   -0.280069  -0.000000
 Sum of Mulliken charges =  -2.00000  -0.00000

 Dipole moment (field-independent basis, Debye):
    X=              0.0009    Y=              0.0012    Z=              0.0000  Tot=              0.0015
 Quadrupole moment (field-independent basis, Debye-Ang):
   XX=           -112.3052   YY=           -117.6639   ZZ=            -69.2978
   XY=            -18.4596   XZ=              0.0845   YZ=              0.5285

  Exact polarizability: 116.350  18.015 121.583  -0.018  -0.755  54.718
 Approx polarizability: 184.789  29.216 193.287  -0.009  -1.304  78.360

                      1                      2                      3
                      A                      A                      A
 Frequencies --    118.8633               132.6900               163.3970
 Red. masses --     16.4906                18.6119                17.4094
 Frc consts  --      0.1373                 0.1931                 0.2739
 IR Inten    --     11.2072                 0.0001                 0.0000

                      4                      5                      6
                      A                      A                      A
 Frequencies --    198.2624               232.9896               287.2107
 Red. masses --     13.7452                12.6943                18.5400
 Frc consts  --      0.3183                 0.4060                 0.9011
 IR Inten    --      5.2832                 0.0001                 0.0000

                      7                      8                      9
                      A                      A                      A
 Frequencies --    296.2557               298.8887               318.3687
 Red. masses --     16.7637                18.4830                17.2225
 Frc consts  --      0.8669                 0.9728                 1.0285
 IR Inten    --      0.0000                 0.0562                 1.3534

                     10                     11                     12
                      A                      A                      A
 Frequencies --    321.3271               354.9459               437.6703
 Red. masses --     16.2385                12.6006                16.1843
 Frc consts  --      0.9878                 0.9353                 1.8266
 IR Inten    --      0.8406                 0.0000                 0.0000

                     13                     14                     15
                      A                      A                      A
 Frequencies --    440.4998               548.6537               585.5415
 Red. masses --     15.7605                15.5353                16.9354
 Frc consts  --      1.8018                 2.7553                 3.4211
 IR Inten    --      0.0000                 0.0000                 6.1333

                     16                     17                     18
                      A                      A                      A
 Frequencies --    593.5058               706.4689               736.0837
 Red. masses --     12.1595                12.2314                12.1370
 Frc consts  --      2.5236                 3.5968                 3.8745
 IR Inten    --      0.0000                 0.9280                 0.0000

                     19                     20                     21
                      A                      A                      A
 Frequencies --    788.3984               915.7056               997.2367
 Red. masses --     12.5998                14.1898                13.5230
 Frc consts  --      4.6143                 7.0103                 7.9236
 IR Inten    --      0.0000               350.5575               332.7295

                     22                     23                     24
                      A                      A                      A
 Frequencies --   1002.1987              1158.0171              1159.2865
 Red. masses --     13.5099                12.0854                13.2613
 Frc consts  --      7.9949                 9.5487                10.5007
 IR Inten    --      0.0000               329.4406                 0.0550

                     25                     26                     27
                      A                      A                      A
 Frequencies --   1254.1103              1443.0026              1452.5472
 Red. masses --     12.5012                12.8547                12.1633
 Frc consts  --     11.5844                15.7705                15.1204
 IR Inten    --      4.6642                 0.1461                92.6346

                     28                     29                     30
                      A                      A                      A
 Frequencies --   1458.8446              1463.0510              1643.2294
 Red. masses --     12.4895                12.0221                12.0720
 Frc consts  --     15.6607                15.1617                19.2054
 IR Inten    --   1466.2290                 0.1146                 0.0004

 - Thermochemistry -
 -------------------
 Temperature   298.150 Kelvin.  Pressure   1.00000 Atm.
 Atom     1 has atomic number  9 and mass  18.99840

 Molecular mass:   179.98344 amu.
 Principal axes and moments of inertia in atomic units:
                           1         2         3
     Eigenvalues --  1663.480721796.249263459.72999
           X            0.75629   0.65423  -0.00326
           Y           -0.65416   0.75626   0.01217
           Z            0.01042  -0.00707   0.99992
 This molecule is an asymmetric top.
 Rotational symmetry number  1.
 Warning -- assumption of classical behavior for rotation
           may cause significant error
 Rotational temperatures (Kelvin)      0.05207     0.04822     0.02503
 Rotational constants (GHZ):           1.08492     1.00473     0.52164
 Zero-point vibrational energy     128641.9 (Joules/Mol)
                                   30.74616 (Kcal/Mol)
 Warning -- explicit consideration of  16 degrees of freedom as
           vibrations may cause significant error
 Vibrational temperatures:    171.02   190.91   235.09   285.26   335.22
          (Kelvin)            413.23   426.25   430.03   458.06   462.32
                              510.69   629.71   633.78   789.39   842.46
                              853.92  1016.45  1059.06  1134.33  1317.50
                             1434.80  1441.94  1666.13  1667.95  1804.38
                             2076.16  2089.89  2098.95  2105.00  2364.24

 Zero-point correction=                           0.048997 (Hartree/Particle)
 Thermal correction to Energy=                    0.058892
 Thermal correction to Enthalpy=                  0.059836
 Thermal correction to Gibbs Free Energy=         0.013615
 Sum of electronic and zero-point Energies=           -778.575437
 Sum of electronic and thermal Energies=              -778.565542
 Sum of electronic and thermal Enthalpies=            -778.564598
 Sum of electronic and thermal Free Energies=         -778.610818

                     E (Thermal)             CV                S
                      KCal/Mol        Cal/Mol-Kelvin    Cal/Mol-Kelvin
 Total                   36.955             35.765             97.279
 Electronic               0.000              0.000              0.000
 Translational            0.889              2.981             41.470
 Rotational               0.889              2.981             30.714
 Vibrational             35.178             29.803             25.095
 Vibration     1          0.609              1.934              3.119
 Vibration     2          0.613              1.921              2.907
 Vibration     3          0.623              1.887              2.510
 Vibration     4          0.637              1.842              2.149
 Vibration     5          0.654              1.790              1.856
 Vibration     6          0.684              1.697              1.490
 Vibration     7          0.690              1.681              1.438
 Vibration     8          0.692              1.676              1.423
 Vibration     9          0.705              1.638              1.318
 Vibration    10          0.707              1.633              1.303
 Vibration    11          0.731              1.565              1.144
 Vibration    12          0.798              1.388              0.834
 Vibration    13          0.800              1.382              0.825
 Vibration    14          0.904              1.143              0.547
 Vibration    15          0.943              1.063              0.475
 Vibration    16          0.951              1.046              0.461

 Optimization completed.
    -- Stationary point found.
 Normal termination of Gaussian 16 at Sat Jan  6 05:57:51 2024.
