 Q-Chem 5.4, Q-Chem, Inc., Pleasanton, CA (2021)
 Q-Chem 5.4.0 for Intel X86 EM64T Linux

User input:
--------------------------------------------------------------
$molecule
-2 1
F                 -2.6821130000      0.5685850000     -0.0156720000
C                 -1.3366710000      0.2344390000     -0.0072050000
C                 -0.4245870000      1.2889830000     -0.0170640000
F                 -0.9489580000      2.5719810000     -0.0344000000
C                  0.9951030000      1.1503340000     -0.0107260000
O                  1.8421330000      2.1295670000     -0.0199220000
C                  1.3366420000     -0.2344470000      0.0072170000
C                  0.4245790000     -1.2889550000      0.0170760000
F                  0.9489990000     -2.5719340000      0.0343630000
C                 -0.9950340000     -1.1502970000      0.0107830000
O                 -1.8421740000     -2.1296130000      0.0199140000
F                  2.6820820000     -0.5686440000      0.0156360000
$end

$rem
BASIS  =  6-311++G(d,p)
GUI  =  2
JOB_TYPE  =  SP
METHOD  =  B3LYP
SCF_CONVERGENCE  = 8
SOLVENT_METHOD = sm12
$end

$smx
solvent dimethylformamide
charges CM5
$end

--------------------------------------------------------------

             Standard Nuclear Orientation (Angstroms)
    I     Atom           X                Y                Z
 ----------------------------------------------------------------
    1      F      -2.6821130000     0.5685850000    -0.0156720000
    2      C      -1.3366710000     0.2344390000    -0.0072050000
    3      C      -0.4245870000     1.2889830000    -0.0170640000
    4      F      -0.9489580000     2.5719810000    -0.0344000000
    5      C       0.9951030000     1.1503340000    -0.0107260000
    6      O       1.8421330000     2.1295670000    -0.0199220000
    7      C       1.3366420000    -0.2344470000     0.0072170000
    8      C       0.4245790000    -1.2889550000     0.0170760000
    9      F       0.9489990000    -2.5719340000     0.0343630000
   10      C      -0.9950340000    -1.1502970000     0.0107830000
   11      O      -1.8421740000    -2.1296130000     0.0199140000
   12      F       2.6820820000    -0.5686440000     0.0156360000
 ----------------------------------------------------------------

   14    -778.6235756605      7.35e-09  Convergence criterion met
 Total energy in the final basis set =     -778.8743815219

                    Orbital Energies (a.u.)
 --------------------------------------------------------------

 Alpha MOs
 -- Occupied --
-24.6390 -24.6390 -24.6390 -24.6390 -18.9978 -18.9977 -10.1922 -10.1922
-10.1917 -10.1917 -10.1672 -10.1671  -1.1740  -1.1738  -1.1598  -1.1596
 -0.9108  -0.9073  -0.7842  -0.6882  -0.6554  -0.5712  -0.5620  -0.4949
 -0.4918  -0.4877  -0.4555  -0.4367  -0.4243  -0.4205  -0.4006  -0.3950
 -0.3774  -0.3691  -0.3438  -0.3419  -0.3324  -0.3161  -0.3152  -0.2891
 -0.2045  -0.1858  -0.1808  -0.1794  -0.1043

          Ground-State Mulliken Net Atomic Charges

     Atom                 Charge (a.u.)
  ----------------------------------------
      1 F                    -0.191237
      2 C                     0.348798
      3 C                     0.341908
      4 F                    -0.190710
      5 C                    -0.723188
      6 O                    -0.585353
      7 C                     0.349314
      8 C                     0.341501
      9 F                    -0.190718
     10 C                    -0.723588
     11 O                    -0.585481
     12 F                    -0.191245
  ----------------------------------------
  Sum of atomic charges =    -2.000000

                    Cartesian Multipole Moments
 -----------------------------------------------------------------
    Charge (ESU x 10^10)
                -9.6064
    Dipole Moment (Debye)
         X       0.0011      Y       0.0014      Z       0.0000
       Tot       0.0017
    Quadrupole Moments (Debye-Ang)
        XX    -111.6556     XY     -19.2422     YY    -117.2348
        XZ       0.0970     YZ       0.5193     ZZ     -69.4428

 Total job time:  111.60s(wall), 674.07s(cpu)
        *  Thank you very much for using Q-Chem.  Have a nice day.  *
