 Gaussian 16, Revision A.03,
 Gaussian 16:  ES64L-G16RevA.03 25-Dec-2016

 ----------------------------------------------------------------------
 #P UB3LYP/6-311++G(d,p) nosym opt freq SCRF=(PCM,Solvent=n,n-DiMethylF
 ormamide)
 ----------------------------------------------------------------------

 -------
 Radical
 -------
 Symbolic Z-matrix:
 Charge = -1 Multiplicity = 2

 SCF Done:  E(UB3LYP) =  -838.210582630     A.U. after   21 cycles
 SCF Done:  E(UB3LYP) =  -838.210971854     A.U. after   16 cycles
 SCF Done:  E(UB3LYP) =  -838.210325389     A.U. after   18 cycles
 SCF Done:  E(UB3LYP) =  -838.211320911     A.U. after   15 cycles
 SCF Done:  E(UB3LYP) =  -838.211457327     A.U. after   14 cycles
 SCF Done:  E(UB3LYP) =  -838.211506314     A.U. after   15 cycles
 SCF Done:  E(UB3LYP) =  -838.211524374     A.U. after   13 cycles
 SCF Done:  E(UB3LYP) =  -838.211531711     A.U. after   14 cycles
 SCF Done:  E(UB3LYP) =  -838.211533539     A.U. after   14 cycles
 SCF Done:  E(UB3LYP) =  -838.211534169     A.U. after   10 cycles
 SCF Done:  E(UB3LYP) =  -838.211534339     A.U. after   10 cycles
 Optimization completed.
    -- Stationary point found.
 Normal termination of Gaussian 16 at Sun Feb 11 02:35:45 2024.

 ----------------------------------------------------------------------
 #P Geom=AllCheck Guess=TCheck SCRF=Check GenChk UB3LYP/6-311++G(d,p) F
 req
 ----------------------------------------------------------------------

 Structure from the checkpoint file:  "272-rad.chk"
 -------
 Radical
 -------
 Charge = -1 Multiplicity = 2

                          Input orientation:
 ---------------------------------------------------------------------
 Center     Atomic      Atomic             Coordinates (Angstroms)
 Number     Number       Type             X           Y           Z
 ---------------------------------------------------------------------
      1          6           0       -0.876219    3.836822   -0.019671
      2          6           0       -1.971112    3.093175    0.383318
      3          6           0       -1.847624    1.703521    0.576170
      4          6           0        0.376976    3.225787   -0.241440
      5          6           0        0.500396    1.822709   -0.044186
      6          6           0       -0.627737    1.084114    0.361767
      7          6           0        1.517113    4.020746   -0.673574
      8          6           0        2.782821    3.334394   -0.888283
      9          6           0        2.904920    1.969119   -0.632320
     10          6           0        1.782294    1.150231   -0.256646
     11          8           0        1.441700    5.272475   -0.882175
     12          8           0        1.912637   -0.107861   -0.138505
     13          7           0        3.799272    4.106895   -1.415366
     14          1           0       -0.960306    4.905643   -0.174972
     15          1           0       -2.926001    3.579948    0.550372
     16          1           0       -2.706229    1.120990    0.891860
     17          1           0       -0.515854    0.016048    0.505053
     18          1           0        3.568610    5.093553   -1.371246
     19          1           0        4.730720    3.869416   -1.082865
     20          7           0        4.081983    1.208643   -0.864129
     21          1           0        3.851652    0.227039   -0.987708
     22          6           0        5.380490    1.487566   -0.583377
     23          6           0        6.361715    0.365018   -0.892560
     24          6           0        7.399291    0.164627    0.216296
     25          8           0        5.769949    2.576072   -0.139964
     26          1           0        6.868234    0.640395   -1.824881
     27          1           0        5.826897   -0.566959   -1.092461
     28          1           0        7.947940    1.088518    0.406502
     29          1           0        8.116484   -0.606864   -0.072830
     30          1           0        6.923919   -0.148156    1.149902
 ---------------------------------------------------------------------

 SCF Done:  E(UB3LYP) =  -838.211534339     A.U. after    1 cycles

 Alpha  occ. eigenvalues --  -19.09861 -19.07909 -19.07702 -14.34889 -14.30591
 Alpha  occ. eigenvalues --  -10.28027 -10.22625 -10.22153 -10.20977 -10.19980
 Alpha  occ. eigenvalues --  -10.18007 -10.17418 -10.17371 -10.17215 -10.17136
 Alpha  occ. eigenvalues --  -10.17051 -10.17001 -10.16234  -1.04651  -1.00454
 Alpha  occ. eigenvalues --   -1.00074  -0.93526  -0.90275  -0.85772  -0.79513
 Alpha  occ. eigenvalues --   -0.77728  -0.75080  -0.73265  -0.68347  -0.65373
 Alpha  occ. eigenvalues --   -0.61776  -0.61653  -0.58318  -0.56453  -0.53618
 Alpha  occ. eigenvalues --   -0.51720  -0.50338  -0.49531  -0.47456  -0.46424
 Alpha  occ. eigenvalues --   -0.45153  -0.44159  -0.43447  -0.42818  -0.42393
 Alpha  occ. eigenvalues --   -0.42139  -0.41140  -0.40830  -0.39076  -0.38176
 Alpha  occ. eigenvalues --   -0.37235  -0.36865  -0.36061  -0.35500  -0.34778
 Alpha  occ. eigenvalues --   -0.33864  -0.32495  -0.29647  -0.27201  -0.26402
 Alpha  occ. eigenvalues --   -0.25738  -0.25345  -0.24494  -0.21015  -0.14879
 Alpha virt. eigenvalues --   -0.03570  -0.01536  -0.00697   0.00181   0.01115
 Alpha virt. eigenvalues --    0.01453   0.01678   0.02270   0.02549   0.03613
 Alpha virt. eigenvalues --    0.03876   0.04456   0.04751   0.05221   0.05648

  Beta  occ. eigenvalues --  -19.09853 -19.07253 -19.07230 -14.34886 -14.30502
  Beta  occ. eigenvalues --  -10.28027 -10.22452 -10.21897 -10.20838 -10.19974
  Beta  occ. eigenvalues --  -10.18007 -10.17370 -10.17284 -10.17194 -10.17097
  Beta  occ. eigenvalues --  -10.17034 -10.16966 -10.16234  -1.04632  -0.99611
  Beta  occ. eigenvalues --   -0.99011  -0.93392  -0.90001  -0.85561  -0.79219
  Beta  occ. eigenvalues --   -0.77597  -0.74857  -0.73127  -0.67743  -0.65014
  Beta  occ. eigenvalues --   -0.61632  -0.61486  -0.58137  -0.56248  -0.53446
  Beta  occ. eigenvalues --   -0.51598  -0.50170  -0.49470  -0.47129  -0.46377
  Beta  occ. eigenvalues --   -0.45082  -0.43933  -0.43057  -0.42692  -0.42183
  Beta  occ. eigenvalues --   -0.41993  -0.40464  -0.40133  -0.38760  -0.37260
  Beta  occ. eigenvalues --   -0.36851  -0.36122  -0.35556  -0.35298  -0.34513
  Beta  occ. eigenvalues --   -0.33732  -0.31046  -0.29195  -0.27115  -0.24998
  Beta  occ. eigenvalues --   -0.24839  -0.24683  -0.23958  -0.20216
  Beta virt. eigenvalues --   -0.08495  -0.02824  -0.01041  -0.00355   0.00260
  Beta virt. eigenvalues --    0.01139   0.01553   0.01869   0.02302   0.02625
  Beta virt. eigenvalues --    0.03623   0.03901   0.04597   0.04788   0.05408

 Mulliken charges and spin densities:
               1          2
     1  C    0.102612   0.060680
     2  C   -0.329762   0.014084
     3  C   -0.401518   0.061252
     4  C    0.492634   0.013895
     5  C    0.010602   0.052455
     6  C    0.061203   0.020330
     7  C   -0.692723   0.164428
     8  C    0.292950   0.059933
     9  C    0.458001   0.002059
    10  C   -0.833145   0.100343
    11  O   -0.494964   0.242634
    12  O   -0.485990   0.175332
    13  N   -0.434824   0.047075
    14  H    0.164094  -0.003713
    15  H    0.178401  -0.001373
    16  H    0.180429  -0.004490
    17  H    0.164909  -0.000502
    18  H    0.292902  -0.002689
    19  H    0.286076   0.000116
    20  N   -0.021639  -0.002286
    21  H    0.346075  -0.001398
    22  C    0.115016  -0.000172
    23  C   -0.244841  -0.000856
    24  C   -0.560178   0.000138
    25  O   -0.440430   0.002117
    26  H    0.185115   0.000373
    27  H    0.135642   0.000276
    28  H    0.167201  -0.000063
    29  H    0.157369  -0.000170
    30  H    0.148783   0.000190
 Sum of Mulliken charges =  -1.00000   1.00000

 Dipole moment (field-independent basis, Debye):
    X=             -9.1727    Y=            -15.1185    Z=              1.5922  Tot=             17.7550
 Quadrupole moment (field-independent basis, Debye-Ang):
   XX=           -131.0940   YY=           -178.1637   ZZ=           -114.7482
   XY=            -36.2402   XZ=             -3.0558   YZ=             11.2595

  Exact polarizability: 398.719  -7.654 341.935 -44.858 -30.313 169.781
 Approx polarizability: 401.325   6.404 406.195 -45.307 -35.444 191.546

                      1                      2                      3
                      A                      A                      A
 Frequencies --     30.6896                49.2364                61.8181
 Red. masses --      2.7345                 5.0856                 4.0258
 Frc consts  --      0.0015                 0.0073                 0.0091
 IR Inten    --      0.7872                 4.6575                 5.6343

                      4                      5                      6
                      A                      A                      A
 Frequencies --     91.4739               116.3741               138.6678
 Red. masses --      5.6416                 5.0886                 4.7152
 Frc consts  --      0.0278                 0.0406                 0.0534
 IR Inten    --     11.9165                 5.0447                 2.4246

                      7                      8                      9
                      A                      A                      A
 Frequencies --    171.3102               185.9564               214.4005
 Red. masses --      4.9037                 6.4994                 1.1933
 Frc consts  --      0.0848                 0.1324                 0.0323
 IR Inten    --      2.1732                 1.4071                 1.0383

                     10                     11                     12
                      A                      A                      A
 Frequencies --    252.3245               266.3827               290.6284
 Red. masses --      5.2019                 4.5660                 4.3993
 Frc consts  --      0.1951                 0.1909                 0.2189
 IR Inten    --      3.4463                 8.0630                19.9800

                     13                     14                     15
                      A                      A                      A
 Frequencies --    312.8563               346.9252               372.4505
 Red. masses --      4.5625                 5.1925                 4.0157
 Frc consts  --      0.2631                 0.3682                 0.3282
 IR Inten    --      2.4401                 8.3925                11.7333

                     16                     17                     18
                      A                      A                      A
 Frequencies --    382.6583               420.9083               431.1435
 Red. masses --      9.6002                 7.2687                 6.4145
 Frc consts  --      0.8282                 0.7587                 0.7025
 IR Inten    --     38.5048                 3.1686                 0.9603

                     19                     20                     21
                      A                      A                      A
 Frequencies --    455.3560               482.5170               525.8835
 Red. masses --      3.4733                 6.5667                 5.4761
 Frc consts  --      0.4243                 0.9008                 0.8923
 IR Inten    --      3.3996                10.3207                 9.7679

                     22                     23                     24
                      A                      A                      A
 Frequencies --    549.0736               555.8518               590.4380
 Red. masses --      3.4208                 1.1395                 4.4447
 Frc consts  --      0.6076                 0.2074                 0.9129
 IR Inten    --     10.4933                69.6586                20.6678

                     25                     26                     27
                      A                      A                      A
 Frequencies --    644.5179               657.6173               678.5851
 Red. masses --      3.0475                 1.5461                 4.8895
 Frc consts  --      0.7459                 0.3940                 1.3266
 IR Inten    --     51.9827               185.6443                 5.6726

                     28                     29                     30
                      A                      A                      A
 Frequencies --    693.5048               697.1472               706.9322
 Red. masses --      2.5081                 4.5402                 4.4294
 Frc consts  --      0.7107                 1.3001                 1.3042
 IR Inten    --    241.3029                17.3307                27.3948

                     31                     32                     33
                      A                      A                      A
 Frequencies --    736.0607               742.0167               770.8451
 Red. masses --      2.5499                 2.0585                 4.8761
 Frc consts  --      0.8140                 0.6678                 1.7071
 IR Inten    --    162.7560               233.6325                41.2801

                     34                     35                     36
                      A                      A                      A
 Frequencies --    784.4049               801.8921               859.2668
 Red. masses --      1.8702                 1.3838                 5.0811
 Frc consts  --      0.6780                 0.5243                 2.2104
 IR Inten    --     60.6531                17.8360                 7.1461

                     37                     38                     39
                      A                      A                      A
 Frequencies --    881.1144               928.9008               955.0776
 Red. masses --      1.3995                 4.4045                 3.5376
 Frc consts  --      0.6402                 2.2392                 1.9012
 IR Inten    --      0.1066                50.9910                15.1454

                     40                     41                     42
                      A                      A                      A
 Frequencies --    981.6758               996.8092              1026.4335
 Red. masses --      1.3669                 1.2822                 3.0890
 Frc consts  --      0.7761                 0.7506                 1.9175
 IR Inten    --      2.9357                 0.0282                16.2127

                     43                     44                     45
                      A                      A                      A
 Frequencies --   1040.8513              1061.9235              1087.6441
 Red. masses --      2.1517                 2.6283                 2.0829
 Frc consts  --      1.3734                 1.7462                 1.4518
 IR Inten    --     30.9546                20.8802                 3.3371

                     46                     47                     48
                      A                      A                      A
 Frequencies --   1094.6314              1114.3209              1156.0653
 Red. masses --      1.6953                 1.9024                 1.2540
 Frc consts  --      1.1968                 1.3918                 0.9875
 IR Inten    --      7.0948                34.5391                 3.2959

                     49                     50                     51
                      A                      A                      A
 Frequencies --   1190.4544              1201.2271              1227.2580
 Red. masses --      3.0153                 2.1937                 2.0668
 Frc consts  --      2.5177                 1.8650                 1.8341
 IR Inten    --     15.4494                43.0426                40.8211

                     52                     53                     54
                      A                      A                      A
 Frequencies --   1261.4596              1267.4595              1296.0378
 Red. masses --      1.8284                 2.9493                 1.4301
 Frc consts  --      1.7142                 2.7915                 1.4154
 IR Inten    --     93.4299               113.0340                77.8947

                     55                     56                     57
                      A                      A                      A
 Frequencies --   1313.7383              1354.4252              1376.7516
 Red. masses --      2.4005                 9.1102                 1.6169
 Frc consts  --      2.4410                 9.8466                 1.8057
 IR Inten    --     64.9189                26.0525                35.2256

                     58                     59                     60
                      A                      A                      A
 Frequencies --   1400.5012              1419.5735              1456.5048
 Red. masses --      1.2439                 2.8767                 4.9449
 Frc consts  --      1.4375                 3.4156                 6.1806
 IR Inten    --      6.8329               277.7755              1088.2284

                     61                     62                     63
                      A                      A                      A
 Frequencies --   1462.9037              1464.4179              1485.6999
 Red. masses --      2.0599                 1.3582                 1.0406
 Frc consts  --      2.5974                 1.7161                 1.3533
 IR Inten    --    190.4295                93.9095                19.6687

                     64                     65                     66
                      A                      A                      A
 Frequencies --   1497.1708              1499.1632              1520.0654
 Red. masses --      1.5152                 1.9064                 5.7731
 Frc consts  --      2.0011                 2.5244                 7.8593
 IR Inten    --    421.4592               373.5905                15.5906

                     67                     68                     69
                      A                      A                      A
 Frequencies --   1528.4556              1559.5628              1598.2280
 Red. masses --      2.4665                 4.2346                 1.9481
 Frc consts  --      3.3949                 6.0683                 2.9318
 IR Inten    --    989.3044                47.5985                40.7718

                     70                     71                     72
                      A                      A                      A
 Frequencies --   1621.2641              1623.9768              1666.7621
 Red. masses --      3.9082                 3.9035                 3.8105
 Frc consts  --      6.0525                 6.0655                 6.2371
 IR Inten    --    172.7993                70.8256               314.9185

                     73                     74                     75
                      A                      A                      A
 Frequencies --   3026.7949              3033.2379              3069.0467
 Red. masses --      1.0640                 1.0359                 1.0980
 Frc consts  --      5.7434                 5.6156                 6.0932
 IR Inten    --     15.9275                50.5854                20.4912

                     76                     77                     78
                      A                      A                      A
 Frequencies --   3095.3198              3111.1508              3159.2856
 Red. masses --      1.1023                 1.1020                 1.0859
 Frc consts  --      6.2225                 6.2848                 6.3860
 IR Inten    --     50.0031                43.0303                 9.8203

                     79                     80                     81
                      A                      A                      A
 Frequencies --   3173.1564              3188.2300              3192.2513
 Red. masses --      1.0901                 1.0922                 1.0944
 Frc consts  --      6.4669                 6.5410                 6.5710
 IR Inten    --     21.1464                20.5559                35.7215

                     82                     83                     84
                      A                      A                      A
 Frequencies --   3443.1035              3518.7404              3572.7173
 Red. masses --      1.0528                 1.0754                 1.0939
 Frc consts  --      7.3535                 7.8453                 8.2263
 IR Inten    --    178.9536               133.3975               161.7048

 - Thermochemistry -
 -------------------
 Temperature   298.150 Kelvin.  Pressure   1.00000 Atm.
 Atom     1 has atomic number  6 and mass  12.00000

 Molecular mass:   244.08479 amu.
 Principal axes and moments of inertia in atomic units:
                           1         2         3
     Eigenvalues --  2043.878187129.055768904.64619
           X            0.96696   0.22034   0.12826
           Y           -0.24355   0.94707   0.20913
           Z           -0.07539  -0.23346   0.96944
 This molecule is an asymmetric top.
 Rotational symmetry number  1.
 Warning -- assumption of classical behavior for rotation
           may cause significant error
 Rotational temperatures (Kelvin)      0.04238     0.01215     0.00973
 Rotational constants (GHZ):           0.88300     0.25315     0.20267
 Zero-point vibrational energy     605727.1 (Joules/Mol)
                                  144.77225 (Kcal/Mol)
 Warning -- explicit consideration of  24 degrees of freedom as
           vibrations may cause significant error
 Vibrational temperatures:     44.16    70.84    88.94   131.61   167.44
          (Kelvin)            199.51   246.48   267.55   308.47   363.04
                              383.27   418.15   450.13   499.15   535.87
                              550.56   605.59   620.32   655.16   694.23
                              756.63   789.99   799.75   849.51   927.32
                              946.16   976.33   997.80  1003.04  1017.12
                             1059.03  1067.60  1109.07  1128.58  1153.74
                             1236.29  1267.73  1336.48  1374.14  1412.41
                             1434.19  1476.81  1497.55  1527.87  1564.88
                             1574.93  1603.26  1663.32  1712.80  1728.30
                             1765.75  1814.96  1823.59  1864.71  1890.18
                             1948.72  1980.84  2015.01  2042.45  2095.59
                             2104.79  2106.97  2137.59  2154.09  2156.96
                             2187.04  2199.11  2243.86  2299.49  2332.64
                             2336.54  2398.10  4354.88  4364.15  4415.67
                             4453.47  4476.25  4545.51  4565.46  4587.15
                             4592.94  4953.86  5062.68  5140.34

 Zero-point correction=                           0.230709 (Hartree/Particle)
 Thermal correction to Energy=                    0.246373
 Thermal correction to Enthalpy=                  0.247317
 Thermal correction to Gibbs Free Energy=         0.186517
 Sum of electronic and zero-point Energies=           -837.980825
 Sum of electronic and thermal Energies=              -837.965161
 Sum of electronic and thermal Enthalpies=            -837.964217
 Sum of electronic and thermal Free Energies=         -838.025017

                     E (Thermal)             CV                S
                      KCal/Mol        Cal/Mol-Kelvin    Cal/Mol-Kelvin
 Total                  154.602             60.817            127.965
 Electronic               0.000              0.000              1.377
 Translational            0.889              2.981             42.378
 Rotational               0.889              2.981             33.228
 Vibrational            152.824             54.855             50.981
 Vibration     1          0.594              1.984              5.784
 Vibration     2          0.595              1.978              4.848
 Vibration     3          0.597              1.973              4.398
 Vibration     4          0.602              1.955              3.628
 Vibration     5          0.608              1.936              3.160
 Vibration     6          0.614              1.915              2.822
 Vibration     7          0.626              1.878              2.421
 Vibration     8          0.632              1.859              2.268
 Vibration     9          0.644              1.819              2.006
 Vibration    10          0.664              1.759              1.714
 Vibration    11          0.672              1.735              1.620
 Vibration    12          0.687              1.691              1.470
 Vibration    13          0.701              1.649              1.347
 Vibration    14          0.725              1.582              1.180
 Vibration    15          0.744              1.529              1.070
 Vibration    16          0.752              1.507              1.029
 Vibration    17          0.783              1.425              0.889
 Vibration    18          0.792              1.402              0.855
 Vibration    19          0.814              1.349              0.780
 Vibration    20          0.839              1.289              0.703
 Vibration    21          0.881              1.193              0.596
 Vibration    22          0.904              1.142              0.546
 Vibration    23          0.911              1.127              0.532
 Vibration    24          0.948              1.052              0.466

                           ! Non-Optimized Parameters !
 Normal termination of Gaussian 16 at Sun Feb 11 03:37:35 2024.
