 Q-Chem 5.4, Q-Chem, Inc., Pleasanton, CA (2021)
 Q-Chem 5.4.0 for Intel X86 EM64T Linux

User input:
--------------------------------------------------------------
$molecule
-2 1
O                 -0.0187140000     -2.5513460000     -0.5995570000
C                 -0.0199610000     -1.3024690000     -0.2401890000
C                  1.2030120000     -0.5985380000      0.0433800000
C                  2.4365900000     -1.3262050000      0.0861200000
C                  3.6119710000     -0.7700500000      0.5378140000
C                  3.6624600000      0.5836580000      0.9796210000
C                  2.5076680000      1.3527020000      0.8795460000
C                  1.3193840000      0.8039350000      0.3931950000
S                 -0.0201460000      1.8817110000      0.0407370000
O                 -0.0132180000      2.2768620000     -1.4000390000
C                 -1.3637060000      0.8048920000      0.3805580000
C                 -2.5561130000      1.3545060000      0.8557300000
C                 -3.7123420000      0.5862860000      0.9449410000
C                 -3.6586700000     -0.7674540000      0.5036060000
C                 -2.4794950000     -1.3244460000      0.0629680000
C                 -1.2450470000     -0.5976640000      0.0318490000
H                  2.3815080000     -2.3622540000     -0.2314450000
H                  4.5159370000     -1.3776270000      0.5678340000
H                  4.5844340000      1.0157470000      1.3584110000
H                  2.5106440000      2.4009510000      1.1640240000
H                 -2.5610090000      2.4027550000      1.1401810000
H                 -4.6375260000      1.0190300000      1.3150570000
H                 -4.5633150000     -1.3743820000      0.5251100000
H                 -2.4221740000     -2.3605290000     -0.2540900000
O                 -0.0241140000      3.0537140000      0.9717190000
$end

$rem
BASIS  =  6-311++G(d,p)
GUI  =  2
JOB_TYPE  =  SP
METHOD  =  B3LYP
SCF_CONVERGENCE  = 8
SOLVENT_METHOD = sm12
$end

$smx
solvent dimethylformamide
charges CM5
$end

--------------------------------------------------------------

             Standard Nuclear Orientation (Angstroms)
    I     Atom           X                Y                Z
 ----------------------------------------------------------------
    1      O      -0.0187140000    -2.5513460000    -0.5995570000
    2      C      -0.0199610000    -1.3024690000    -0.2401890000
    3      C       1.2030120000    -0.5985380000     0.0433800000
    4      C       2.4365900000    -1.3262050000     0.0861200000
    5      C       3.6119710000    -0.7700500000     0.5378140000
    6      C       3.6624600000     0.5836580000     0.9796210000
    7      C       2.5076680000     1.3527020000     0.8795460000
    8      C       1.3193840000     0.8039350000     0.3931950000
    9      S      -0.0201460000     1.8817110000     0.0407370000
   10      O      -0.0132180000     2.2768620000    -1.4000390000
   11      C      -1.3637060000     0.8048920000     0.3805580000
   12      C      -2.5561130000     1.3545060000     0.8557300000
   13      C      -3.7123420000     0.5862860000     0.9449410000
   14      C      -3.6586700000    -0.7674540000     0.5036060000
   15      C      -2.4794950000    -1.3244460000     0.0629680000
   16      C      -1.2450470000    -0.5976640000     0.0318490000
   17      H       2.3815080000    -2.3622540000    -0.2314450000
   18      H       4.5159370000    -1.3776270000     0.5678340000
   19      H       4.5844340000     1.0157470000     1.3584110000
   20      H       2.5106440000     2.4009510000     1.1640240000
   21      H      -2.5610090000     2.4027550000     1.1401810000
   22      H      -4.6375260000     1.0190300000     1.3150570000
   23      H      -4.5633150000    -1.3743820000     0.5251100000
   24      H      -2.4221740000    -2.3605290000    -0.2540900000
   25      O      -0.0241140000     3.0537140000     0.9717190000
 ----------------------------------------------------------------

   18   -1124.1739440107      7.49e-09  Convergence criterion met
 Total energy in the final basis set =    -1124.4514984531

                    Orbital Energies (a.u.)
 --------------------------------------------------------------

 Alpha MOs
 -- Occupied --
-89.0278 -19.0954 -19.0917 -19.0149 -10.1858 -10.1858 -10.1852 -10.1852
-10.1795 -10.1786 -10.1786 -10.1701 -10.1701 -10.1675 -10.1675 -10.1650
-10.1650  -8.0912  -6.0542  -6.0528  -6.0522  -1.0781  -0.9682  -0.9303
 -0.8562  -0.8493  -0.7850  -0.7532  -0.7529  -0.7355  -0.6835  -0.6407
 -0.6194  -0.5906  -0.5689  -0.5439  -0.5335  -0.4905  -0.4753  -0.4658
 -0.4528  -0.4503  -0.4364  -0.4343  -0.4289  -0.4151  -0.3877  -0.3852
 -0.3713  -0.3681  -0.3523  -0.3513  -0.3343  -0.3224  -0.3105  -0.3043
 -0.2932  -0.2792  -0.2585  -0.2583  -0.2398  -0.2324  -0.1982  -0.1146

          Ground-State Mulliken Net Atomic Charges

     Atom                 Charge (a.u.)
  ----------------------------------------
      1 O                    -0.441473
      2 C                    -2.670095
      3 C                    -1.553624
      4 C                    -0.782324
      5 C                     1.211145
      6 C                     1.282097
      7 C                     0.741660
      8 C                    -1.530381
      9 S                     0.451154
     10 O                    -0.058801
     11 C                    -1.530606
     12 C                     0.741515
     13 C                     1.281944
     14 C                     1.211026
     15 C                    -0.781649
     16 C                    -1.553865
     17 H                     0.099067
     18 H                     0.371197
     19 H                     0.387097
     20 H                     0.210602
     21 H                     0.210585
     22 H                     0.387086
     23 H                     0.371179
     24 H                     0.099088
     25 O                    -0.153624
  ----------------------------------------
  Sum of atomic charges =    -2.000000

                    Cartesian Multipole Moments
 -----------------------------------------------------------------
    Charge (ESU x 10^10)
                -9.6064
    Dipole Moment (Debye)
         X       0.1934      Y      -0.0323      Z       1.1017
       Tot       1.1190
    Quadrupole Moments (Debye-Ang)
        XX    -144.9147     XY       0.0092     YY    -164.6540
        XZ      -0.0912     YZ      -3.2373     ZZ    -130.6888

 Total job time:  571.65s(wall), 4458.63s(cpu)
        *  Thank you very much for using Q-Chem.  Have a nice day.  *
