 Gaussian 16, Revision A.03,
 Gaussian 16:  ES64L-G16RevA.03 25-Dec-2016

 ----------------------------------------------------------------------
 #P UB3LYP/6-311++G(d,p) nosym opt freq SCRF=(PCM,Solvent=n,n-DiMethylF
 ormamide)
 ----------------------------------------------------------------------

 -------
 Radical
 -------
 Symbolic Z-matrix:
 Charge = -2 Multiplicity = 2

 SCF Done:  E(UB3LYP) =  -1317.12849255     A.U. after   19 cycles
 SCF Done:  E(UB3LYP) =  -1317.12982289     A.U. after   17 cycles
 SCF Done:  E(UB3LYP) =  -1317.13013116     A.U. after   15 cycles
 SCF Done:  E(UB3LYP) =  -1317.13017899     A.U. after   15 cycles
 SCF Done:  E(UB3LYP) =  -1317.13018938     A.U. after   15 cycles
 SCF Done:  E(UB3LYP) =  -1317.13019950     A.U. after   15 cycles
 SCF Done:  E(UB3LYP) =  -1317.12999234     A.U. after   19 cycles
 SCF Done:  E(UB3LYP) =  -1317.13022430     A.U. after   16 cycles
 SCF Done:  E(UB3LYP) =  -1317.13020633     A.U. after   16 cycles
 SCF Done:  E(UB3LYP) =  -1317.13023702     A.U. after   15 cycles
 SCF Done:  E(UB3LYP) =  -1317.13024574     A.U. after   13 cycles
 SCF Done:  E(UB3LYP) =  -1317.13025271     A.U. after   15 cycles
 SCF Done:  E(UB3LYP) =  -1317.13025435     A.U. after   13 cycles
 SCF Done:  E(UB3LYP) =  -1317.13025461     A.U. after   12 cycles
 SCF Done:  E(UB3LYP) =  -1317.13025467     A.U. after   12 cycles
 SCF Done:  E(UB3LYP) =  -1317.13025469     A.U. after    9 cycles
 Optimization completed.
    -- Stationary point found.
 Normal termination of Gaussian 16 at Sun Feb 11 19:00:55 2024.

 ----------------------------------------------------------------------
 #P Geom=AllCheck Guess=TCheck SCRF=Check GenChk UB3LYP/6-311++G(d,p) F
 req
 ----------------------------------------------------------------------

 Structure from the checkpoint file:  "342-rad.chk"
 -------
 Radical
 -------
 Charge = -2 Multiplicity = 2

                          Input orientation:
 ---------------------------------------------------------------------
 Center     Atomic      Atomic             Coordinates (Angstroms)
 Number     Number       Type             X           Y           Z
 ---------------------------------------------------------------------
      1          6           0       -3.496535    2.406808    1.105602
      2          6           0       -4.220430    2.288418    2.281956
      3          6           0       -3.824005    1.362049    3.251785
      4          6           0       -2.350550    1.608101    0.851574
      5          6           0       -1.948250    0.666795    1.837224
      6          6           0       -2.696349    0.567707    3.012730
      7          6           0       -1.633001    1.782884   -0.402912
      8          6           0       -0.459345    0.959684   -0.629599
      9          6           0       -0.003295   -0.002951    0.312541
     10          6           0       -0.725291   -0.245444    1.647015
     11          6           0        0.265647    1.119311   -1.842277
     12          6           0        1.387492    0.357261   -2.110742
     13          6           0        1.842685   -0.592417   -1.189067
     14          6           0        1.133801   -0.752699    0.005815
     15          8           0       -2.024900    2.640089   -1.276681
     16         16           0        2.331770    0.634401   -3.630172
     17          8           0        1.422390    1.344171   -4.576801
     18          8           0        3.512161    1.467818   -3.238923
     19          8           0        2.735985   -0.718628   -4.120171
     20          6           0        0.274940    0.008179    2.808524
     21          6           0       -1.196719   -1.725485    1.695697
     22          1           0       -3.789053    3.118379    0.343380
     23          1           0       -5.092410    2.913653    2.448255
     24          1           0       -4.378344    1.255241    4.177680
     25          1           0       -2.403809   -0.146979    3.774308
     26          1           0       -0.088546    1.849177   -2.556426
     27          1           0        2.715425   -1.197651   -1.398001
     28          1           0        1.492491   -1.495167    0.710057
     29          1           0        0.621131    1.045033    2.796849
     30          1           0        1.148521   -0.642338    2.724430
     31          1           0       -0.191661   -0.183186    3.777538
     32          1           0       -0.352192   -2.410759    1.591198
     33          1           0       -1.902289   -1.929702    0.886033
     34          1           0       -1.693506   -1.947314    2.643152
 ---------------------------------------------------------------------

 SCF Done:  E(UB3LYP) =  -1317.13025469     A.U. after    2 cycles

 Alpha  occ. eigenvalues --  -89.03359 -19.07953 -19.07903 -19.07859 -19.04684
 Alpha  occ. eigenvalues --  -10.19161 -10.18976 -10.18282 -10.17178 -10.16967
 Alpha  occ. eigenvalues --  -10.16302 -10.16183 -10.16097 -10.16024 -10.15904
 Alpha  occ. eigenvalues --  -10.15879 -10.15872 -10.15782 -10.15430 -10.15418
 Alpha  occ. eigenvalues --  -10.15283  -8.09274  -6.05554  -6.05544  -6.05422
 Alpha  occ. eigenvalues --   -1.09518  -0.96357  -0.95925  -0.95662  -0.86243
 Alpha  occ. eigenvalues --   -0.84204  -0.80465  -0.75716  -0.74258  -0.73136
 Alpha  occ. eigenvalues --   -0.71868  -0.68223  -0.64011  -0.63780  -0.61114
 Alpha  occ. eigenvalues --   -0.58599  -0.57087  -0.54913  -0.52100  -0.51028
 Alpha  occ. eigenvalues --   -0.47807  -0.46401  -0.45706  -0.44664  -0.44157
 Alpha  occ. eigenvalues --   -0.43528  -0.42901  -0.42510  -0.42341  -0.40956
 Alpha  occ. eigenvalues --   -0.40195  -0.39553  -0.39235  -0.38557  -0.38154
 Alpha  occ. eigenvalues --   -0.36573  -0.35592  -0.35375  -0.34436  -0.34112
 Alpha  occ. eigenvalues --   -0.33141  -0.32365  -0.32292  -0.31749  -0.30425
 Alpha  occ. eigenvalues --   -0.28920  -0.28295  -0.27936  -0.24685  -0.24436
 Alpha  occ. eigenvalues --   -0.24370  -0.24081  -0.23811  -0.21960  -0.10852
 Alpha virt. eigenvalues --   -0.01667  -0.00844  -0.00338  -0.00094   0.00760
 Alpha virt. eigenvalues --    0.01180   0.02145   0.02206   0.02553   0.03349
 Alpha virt. eigenvalues --    0.04431   0.04479   0.04677   0.05171   0.05455

  Beta  occ. eigenvalues --  -89.03358 -19.07953 -19.07906 -19.07865 -19.04113
  Beta  occ. eigenvalues --  -10.18994 -10.18733 -10.18375 -10.17017 -10.16824
  Beta  occ. eigenvalues --  -10.16251 -10.16139 -10.16104 -10.16047 -10.15956
  Beta  occ. eigenvalues --  -10.15936 -10.15690 -10.15575 -10.15401 -10.15390
  Beta  occ. eigenvalues --  -10.15107  -8.09273  -6.05553  -6.05543  -6.05419
  Beta  occ. eigenvalues --   -1.09522  -0.95928  -0.95672  -0.95261  -0.86003
  Beta  occ. eigenvalues --   -0.84012  -0.80312  -0.75281  -0.74085  -0.72895
  Beta  occ. eigenvalues --   -0.71726  -0.68167  -0.63749  -0.63139  -0.60960
  Beta  occ. eigenvalues --   -0.58396  -0.56993  -0.54728  -0.51880  -0.50923
  Beta  occ. eigenvalues --   -0.47599  -0.46317  -0.45639  -0.44491  -0.44127
  Beta  occ. eigenvalues --   -0.43498  -0.42771  -0.42441  -0.42036  -0.40899
  Beta  occ. eigenvalues --   -0.40069  -0.39449  -0.39120  -0.38138  -0.37049
  Beta  occ. eigenvalues --   -0.36512  -0.35132  -0.35096  -0.34018  -0.33931
  Beta  occ. eigenvalues --   -0.32413  -0.32361  -0.31698  -0.31643  -0.30328
  Beta  occ. eigenvalues --   -0.28709  -0.28288  -0.27952  -0.24435  -0.23965
  Beta  occ. eigenvalues --   -0.23511  -0.23218  -0.22546  -0.21453
  Beta virt. eigenvalues --   -0.04773  -0.01086  -0.00338  -0.00233   0.00711
  Beta virt. eigenvalues --    0.00755   0.01182   0.02158   0.02214   0.02539
  Beta virt. eigenvalues --    0.03353   0.04430   0.04474   0.04755   0.05228

 Mulliken charges and spin densities:
               1          2
     1  C   -0.108762   0.171095
     2  C   -0.406325  -0.065522
     3  C   -0.515884   0.170834
     4  C    0.560274  -0.072765
     5  C    0.361849   0.128175
     6  C   -0.250032  -0.058050
     7  C   -0.711858   0.271049
     8  C    0.855778  -0.040014
     9  C    0.278847   0.145395
    10  C    0.401405  -0.103563
    11  C    0.213043   0.168503
    12  C   -1.029278  -0.083001
    13  C   -0.739913   0.185819
    14  C   -0.393756  -0.056806
    15  O   -0.560541   0.216849
    16  S    0.812996   0.005117
    17  O   -0.428325  -0.000914
    18  O   -0.386792  -0.002028
    19  O   -0.424924  -0.000419
    20  C   -0.813428   0.020963
    21  C   -0.810091   0.020026
    22  H    0.177276  -0.010955
    23  H    0.167023   0.003898
    24  H    0.172286  -0.012575
    25  H    0.121207   0.002811
    26  H    0.209477  -0.011790
    27  H    0.198868  -0.014537
    28  H    0.125608   0.002729
    29  H    0.168506   0.000566
    30  H    0.148820   0.004314
    31  H    0.145494   0.004824
    32  H    0.149014   0.004646
    33  H    0.165875   0.000894
    34  H    0.146259   0.004432
 Sum of Mulliken charges =  -2.00000   1.00000

 Dipole moment (field-independent basis, Debye):
    X=             -6.2635    Y=            -13.5969    Z=             25.7326  Tot=             29.7704
 Quadrupole moment (field-independent basis, Debye-Ang):
   XX=           -203.3023   YY=           -171.4302   ZZ=           -240.6012
   XY=              6.5075   XZ=             53.6738   YZ=             19.6409

  Exact polarizability: 465.983-108.644 309.333-159.222  -9.257 438.444
 Approx polarizability: 467.275-111.659 349.580-122.645 -27.826 447.673

                      1                      2                      3
                      A                      A                      A
 Frequencies --     30.0021                38.0925                55.8458
 Red. masses --      8.4575                 7.1456                 4.9870
 Frc consts  --      0.0045                 0.0061                 0.0092
 IR Inten    --      0.2987                 2.8896                 0.3803

                      4                      5                      6
                      A                      A                      A
 Frequencies --    103.8230               108.5979               143.8565
 Red. masses --      3.7921                 8.7072                 6.3528
 Frc consts  --      0.0241                 0.0605                 0.0775
 IR Inten    --      2.1837                 1.5107                 2.6631

                      7                      8                      9
                      A                      A                      A
 Frequencies --    162.0576               192.7656               205.8713
 Red. masses --      5.7091                 2.0112                 7.3979
 Frc consts  --      0.0883                 0.0440                 0.1847
 IR Inten    --      2.0889                 0.1549                 9.8897

                     10                     11                     12
                      A                      A                      A
 Frequencies --    229.2130               254.4290               271.8727
 Red. masses --      6.1038                 1.6342                 1.0777
 Frc consts  --      0.1889                 0.0623                 0.0469
 IR Inten    --      3.4807                 0.1784                 0.0120

                     13                     14                     15
                      A                      A                      A
 Frequencies --    286.6020               303.0143               306.1976
 Red. masses --      4.0179                 3.7469                 3.2677
 Frc consts  --      0.1944                 0.2027                 0.1805
 IR Inten    --      6.1980                 0.4003                 6.1382

                     16                     17                     18
                      A                      A                      A
 Frequencies --    346.9029               349.2636               383.1722
 Red. masses --      3.6077                 4.3078                 6.9916
 Frc consts  --      0.2558                 0.3096                 0.6048
 IR Inten    --      0.2841                 0.6017                 9.5575

                     19                     20                     21
                      A                      A                      A
 Frequencies --    387.4682               408.6863               412.4962
 Red. masses --      4.1155                 6.1099                 4.9302
 Frc consts  --      0.3640                 0.6013                 0.4943
 IR Inten    --      0.4814                18.1387                 4.1408

                     22                     23                     24
                      A                      A                      A
 Frequencies --    447.9757               475.9699               502.9516
 Red. masses --      6.8624                 3.7191                 8.3696
 Frc consts  --      0.8114                 0.4964                 1.2474
 IR Inten    --      0.5258                 1.6174                30.1536

                     25                     26                     27
                      A                      A                      A
 Frequencies --    507.9284               515.7988               567.5345
 Red. masses --      4.7725                12.3769                 3.7598
 Frc consts  --      0.7254                 1.9401                 0.7135
 IR Inten    --      4.7618                47.9443                 0.9703

                     28                     29                     30
                      A                      A                      A
 Frequencies --    590.7468               599.4744               622.9153
 Red. masses --     10.8875                 3.4087                 5.2179
 Frc consts  --      2.2386                 0.7217                 1.1929
 IR Inten    --    374.4592               103.7591                21.8858

                     31                     32                     33
                      A                      A                      A
 Frequencies --    643.2898               652.5879               663.9376
 Red. masses --      6.7950                 5.0145                 5.0387
 Frc consts  --      1.6567                 1.2582                 1.3086
 IR Inten    --     41.7822                 6.4006                37.3290

                     34                     35                     36
                      A                      A                      A
 Frequencies --    695.2411               741.8469               750.8769
 Red. masses --      6.4860                 2.3339                 1.7338
 Frc consts  --      1.8471                 0.7568                 0.5760
 IR Inten    --     21.1086                33.9979                66.4514

                     37                     38                     39
                      A                      A                      A
 Frequencies --    773.4882               791.8359               796.6392
 Red. masses --      3.1179                 1.6051                 4.6075
 Frc consts  --      1.0990                 0.5930                 1.7228
 IR Inten    --      7.8326                32.9750                29.2915

                     40                     41                     42
                      A                      A                      A
 Frequencies --    820.6279               863.0769               893.5827
 Red. masses --      3.3538                 1.4875                 1.4113
 Frc consts  --      1.3307                 0.6528                 0.6640
 IR Inten    --     94.9919                 2.2308                22.3806

                     43                     44                     45
                      A                      A                      A
 Frequencies --    914.8743               928.3028               939.9003
 Red. masses --      2.8302                 1.6071                 1.3343
 Frc consts  --      1.3957                 0.8160                 0.6945
 IR Inten    --     13.8385                 0.5071                10.3395

                     46                     47                     48
                      A                      A                      A
 Frequencies --    941.9480               945.2619               978.2619
 Red. masses --      1.3608                 8.7019                 1.2794
 Frc consts  --      0.7114                 4.5811                 0.7214
 IR Inten    --      2.0901               202.3226                 0.5169

                     49                     50                     51
                      A                      A                      A
 Frequencies --    987.7873              1030.8156              1043.9321
 Red. masses --      7.6147                 1.2824                 2.5993
 Frc consts  --      4.3775                 0.8029                 1.6690
 IR Inten    --    322.9833                 0.0427               250.8372

                     52                     53                     54
                      A                      A                      A
 Frequencies --   1071.6917              1093.6763              1094.3115
 Red. masses --      2.7978                 6.4071                 3.2766
 Frc consts  --      1.8932                 4.5154                 2.3118
 IR Inten    --    178.6866               448.4806               168.0984

                     55                     56                     57
                      A                      A                      A
 Frequencies --   1104.6650              1108.9638              1119.9682
 Red. masses --      2.3106                 2.9558                 2.2893
 Frc consts  --      1.6612                 2.1417                 1.6919
 IR Inten    --    162.7276               358.3992               132.4161

                     58                     59                     60
                      A                      A                      A
 Frequencies --   1134.8070              1141.3238              1160.6494
 Red. masses --      3.4002                 1.9446                 1.2573
 Frc consts  --      2.5799                 1.4924                 0.9979
 IR Inten    --      6.5259                 6.0335                94.7189

                     61                     62                     63
                      A                      A                      A
 Frequencies --   1187.2402              1201.2685              1216.7131
 Red. masses --      2.5780                 2.0731                 2.9787
 Frc consts  --      2.1410                 1.7626                 2.5981
 IR Inten    --    111.0968               636.9684                11.7521

                     64                     65                     66
                      A                      A                      A
 Frequencies --   1266.5040              1276.6770              1306.9733
 Red. masses --      2.1656                 1.7907                 2.2992
 Frc consts  --      2.0466                 1.7197                 2.3139
 IR Inten    --    272.5486               141.7597                58.0799

                     67                     68                     69
                      A                      A                      A
 Frequencies --   1328.1167              1338.8931              1390.3331
 Red. masses --      7.8616                 6.9716                 1.1922
 Frc consts  --      8.1702                 7.3633                 1.3578
 IR Inten    --     55.3161                 4.6306                 8.7240

                     70                     71                     72
                      A                      A                      A
 Frequencies --   1394.9867              1412.7751              1447.0467
 Red. masses --      3.6314                 1.2361                 3.5134
 Frc consts  --      4.1636                 1.4537                 4.3345
 IR Inten    --    437.6089                16.4633               393.7074

                     73                     74                     75
                      A                      A                      A
 Frequencies --   1454.0801              1477.3881              1479.1492
 Red. masses --      2.8696                 1.0467                 2.0249
 Frc consts  --      3.5747                 1.3460                 2.6103
 IR Inten    --    368.2168                 0.0300                42.9969

                     76                     77                     78
                      A                      A                      A
 Frequencies --   1483.4877              1493.3345              1499.9228
 Red. masses --      1.0493                 1.0612                 1.2707
 Frc consts  --      1.3606                 1.3943                 1.6844
 IR Inten    --      3.5024                33.1027                58.0067

                     79                     80                     81
                      A                      A                      A
 Frequencies --   1514.5592              1545.4519              1573.0314
 Red. masses --      2.9525                 4.9356                 6.2813
 Frc consts  --      3.9904                 6.9454                 9.1575
 IR Inten    --    169.9265                14.3703                27.1745

                     82                     83                     84
                      A                      A                      A
 Frequencies --   1576.9075              1620.6408              3025.6083
 Red. masses --      4.7562                 6.0373                 1.0336
 Frc consts  --      6.9682                 9.3426                 5.5749
 IR Inten    --    533.0047                 4.1665                57.2311

                     85                     86                     87
                      A                      A                      A
 Frequencies --   3029.7350              3093.8713              3094.6461
 Red. masses --      1.0344                 1.1027                 1.1019
 Frc consts  --      5.5946                 6.2186                 6.2176
 IR Inten    --     46.0601                30.0520                 5.1500

                     88                     89                     90
                      A                      A                      A
 Frequencies --   3095.3604              3098.1985              3147.7271
 Red. masses --      1.1022                 1.1014                 1.0856
 Frc consts  --      6.2218                 6.2288                 6.3377
 IR Inten    --     65.0858                71.2045                32.5441

                     91                     92                     93
                      A                      A                      A
 Frequencies --   3159.1990              3164.9353              3176.4324
 Red. masses --      1.0880                 1.0871                 1.0940
 Frc consts  --      6.3976                 6.4160                 6.5037
 IR Inten    --     32.3586                36.8935                56.0093

                     94                     95                     96
                      A                      A                      A
 Frequencies --   3188.5399              3196.1298              3216.6560
 Red. masses --      1.0919                 1.0918                 1.0880
 Frc consts  --      6.5405                 6.5713                 6.6329
 IR Inten    --     23.0535                 8.9041                 1.6947

 - Thermochemistry -
 -------------------
 Temperature   298.150 Kelvin.  Pressure   1.00000 Atm.
 Atom     1 has atomic number  6 and mass  12.00000

 Molecular mass:   301.05346 amu.
 Principal axes and moments of inertia in atomic units:
                           1         2         3
     Eigenvalues --  2637.28017********************
           X           -0.66466  -0.48141   0.57138
           Y            0.07401   0.71857   0.69151
           Z            0.74347  -0.50190   0.44198
 This molecule is an asymmetric top.
 Rotational symmetry number  1.
 Warning -- assumption of classical behavior for rotation
           may cause significant error
 Rotational temperatures (Kelvin)      0.03284     0.00766     0.00656
 Rotational constants (GHZ):           0.68432     0.15954     0.13666
 Zero-point vibrational energy     662804.2 (Joules/Mol)
                                  158.41402 (Kcal/Mol)
 Warning -- explicit consideration of  29 degrees of freedom as
           vibrations may cause significant error
 Vibrational temperatures:     43.17    54.81    80.35   149.38   156.25
          (Kelvin)            206.98   233.16   277.35   296.20   329.79
                              366.07   391.16   412.36   435.97   440.55
                              499.12   502.51   551.30   557.48   588.01
                              593.49   644.54   684.81   723.64   730.80
                              742.12   816.56   849.95   862.51   896.24
                              925.55   938.93   955.26  1000.30  1067.35
                             1080.34  1112.88  1139.28  1146.19  1180.70
                             1241.78  1285.67  1316.30  1335.62  1352.31
                             1355.25  1360.02  1407.50  1421.21  1483.11
                             1501.99  1541.93  1573.56  1574.47  1589.37
                             1595.55  1611.38  1632.73  1642.11  1669.92
                             1708.17  1728.36  1750.58  1822.22  1836.85
                             1880.44  1910.86  1926.37  2000.38  2007.07
                             2032.67  2081.98  2092.10  2125.63  2128.17
                             2134.41  2148.58  2158.05  2179.11  2223.56
                             2263.24  2268.82  2331.74  4353.18  4359.11
                             4451.39  4452.51  4453.53  4457.62  4528.88
                             4545.38  4553.64  4570.18  4587.60  4598.52
                             4628.05

 Zero-point correction=                           0.252449 (Hartree/Particle)
 Thermal correction to Energy=                    0.270111
 Thermal correction to Enthalpy=                  0.271056
 Thermal correction to Gibbs Free Energy=         0.206102
 Sum of electronic and zero-point Energies=          -1316.877806
 Sum of electronic and thermal Energies=             -1316.860143
 Sum of electronic and thermal Enthalpies=           -1316.859199
 Sum of electronic and thermal Free Energies=        -1316.924153

                     E (Thermal)             CV                S
                      KCal/Mol        Cal/Mol-Kelvin    Cal/Mol-Kelvin
 Total                  169.497             70.642            136.707
 Electronic               0.000              0.000              1.377
 Translational            0.889              2.981             43.003
 Rotational               0.889              2.981             34.332
 Vibrational            167.720             64.680             57.994
 Vibration     1          0.594              1.984              5.829
 Vibration     2          0.594              1.982              5.356
 Vibration     3          0.596              1.975              4.599
 Vibration     4          0.605              1.946              3.381
 Vibration     5          0.606              1.942              3.294
 Vibration     6          0.616              1.909              2.752
 Vibration     7          0.622              1.889              2.526
 Vibration     8          0.635              1.850              2.201
 Vibration     9          0.640              1.832              2.080
 Vibration    10          0.652              1.796              1.885
 Vibration    11          0.665              1.755              1.700
 Vibration    12          0.675              1.725              1.584
 Vibration    13          0.684              1.699              1.494
 Vibration    14          0.694              1.668              1.400
 Vibration    15          0.697              1.662              1.383
 Vibration    16          0.725              1.582              1.180
 Vibration    17          0.727              1.577              1.170
 Vibration    18          0.752              1.506              1.027
 Vibration    19          0.756              1.497              1.010
 Vibration    20          0.773              1.451              0.931
 Vibration    21          0.776              1.443              0.918
 Vibration    22          0.807              1.365              0.802
 Vibration    23          0.833              1.303              0.721
 Vibration    24          0.858              1.243              0.651
 Vibration    25          0.863              1.232              0.639
 Vibration    26          0.871              1.215              0.620
 Vibration    27          0.923              1.101              0.509
 Vibration    28          0.948              1.052              0.466
 Vibration    29          0.958              1.033              0.451

 Optimization completed.
    -- Stationary point found.
 Normal termination of Gaussian 16 at Sun Feb 11 21:23:49 2024.
