 Gaussian 16, Revision A.03,
 Gaussian 16:  ES64L-G16RevA.03 25-Dec-2016

 ----------------------------------------------------------------
 #P UB3LYP/6-311++G(d,p) SCRF=(PCM,Solvent=n,n-DiMethylFormamide)
 ----------------------------------------------------------------

 -------
 Reduced
 -------
 Symbolic Z-matrix:
 Charge = -2 Multiplicity = 1

                         Standard orientation:
 ---------------------------------------------------------------------
 Center     Atomic      Atomic             Coordinates (Angstroms)
 Number     Number       Type             X           Y           Z
 ---------------------------------------------------------------------
      1          6           0        5.407422   -1.155440   -0.387959
      2          6           0        4.112643   -1.287003    0.198550
      3          6           0        3.388027   -0.152093    0.584288
      4          6           0        3.910076    1.188960    0.397262
      5          6           0        5.226680    1.319192   -0.198238
      6          6           0        5.912848    0.185187   -0.562600
      7          8           0        6.173368   -2.128865   -0.778784
      8          8           0        3.243805    2.225412    0.744943
      9          6           0        2.020781   -0.253192    1.219494
     10          6           0        0.849083   -0.090044    0.227943
     11          6           0       -0.527977   -0.152670    0.901504
     12          6           0       -1.711230   -0.005689   -0.064078
     13          6           0       -3.083966   -0.077218    0.618618
     14          6           0       -4.272443    0.053865   -0.342570
     15          6           0       -5.641617   -0.028208    0.345251
     16          6           0       -6.830905    0.093819   -0.616246
     17          6           0       -8.198339    0.005366    0.073678
     18          6           0       -9.386680    0.123513   -0.889798
     19          6           0        5.792147    2.699618   -0.395642
     20          6           0        3.584500   -2.691910    0.384839
     21          8           0        7.165544    0.213923   -1.137773
     22          1           0        1.934565    0.547431    1.963314
     23          1           0        1.906897   -1.210493    1.744077
     24          1           0        0.913932   -0.867940   -0.544265
     25          1           0        0.970771    0.872751   -0.278906
     26          1           0       -0.586571    0.635330    1.664438
     27          1           0       -0.624824   -1.105673    1.441925
     28          1           0       -1.650103   -0.789193   -0.831662
     29          1           0       -1.622216    0.948896   -0.599114
     30          1           0       -3.148208    0.711345    1.380347
     31          1           0       -3.165661   -1.028366    1.162203
     32          1           0       -4.206115   -0.732136   -1.106818
     33          1           0       -4.196551    1.006920   -0.882818
     34          1           0       -5.711143    0.760135    1.106570
     35          1           0       -5.715177   -0.979305    0.889435
     36          1           0       -6.760418   -0.693446   -1.378710
     37          1           0       -6.760987    1.046405   -1.158179
     38          1           0       -8.273238    0.793153    0.834611
     39          1           0       -8.270088   -0.946012    0.616837
     40          6           0      -10.751000    0.032917   -0.199931
     41          1           0       -9.312241   -0.663355   -1.651423
     42          1           0        5.168717    3.288919   -1.080831
     43          1           0        6.807995    2.652972   -0.795395
     44          1           0        5.800689    3.256211    0.549564
     45          1           0        4.278189   -3.393427   -0.083363
     46          1           0        2.591611   -2.829529   -0.062148
     47          1           0        3.493679   -2.965533    1.446273
     48          1           0       -9.316829    1.074728   -1.432985
     49          1           0      -10.875102   -0.923978    0.320028
     50          1           0      -11.574419    0.120500   -0.917108
     51          1           0      -10.880309    0.830454    0.540746
     52          1           0        7.321113   -0.755332   -1.249918
 ---------------------------------------------------------------------

 SCF Done:  E(UB3LYP) =  -968.295817585     A.U. after   18 cycles

 The electronic state is 1-A.
 Alpha  occ. eigenvalues --  -19.10072 -19.01307 -19.00119 -10.16035 -10.15996
 Alpha  occ. eigenvalues --  -10.15769 -10.15741 -10.15695 -10.15618 -10.15502
 Alpha  occ. eigenvalues --  -10.15422 -10.15287 -10.15053 -10.14854 -10.14627
 Alpha  occ. eigenvalues --  -10.13969 -10.13342 -10.13099 -10.12991 -10.11357
 Alpha  occ. eigenvalues --  -10.11065 -10.10184  -1.01421  -0.92248  -0.91961
 Alpha  occ. eigenvalues --   -0.80781  -0.79288  -0.77814  -0.76537  -0.74421
 Alpha  occ. eigenvalues --   -0.72883  -0.70271  -0.67545  -0.66622  -0.63498
 Alpha  occ. eigenvalues --   -0.60705  -0.59418  -0.58012  -0.57323  -0.56737
 Alpha  occ. eigenvalues --   -0.56039  -0.52192  -0.50634  -0.48134  -0.47396
 Alpha  occ. eigenvalues --   -0.46428  -0.44552  -0.43677  -0.42965  -0.41926
 Alpha  occ. eigenvalues --   -0.41807  -0.40705  -0.39982  -0.39465  -0.39101
 Alpha  occ. eigenvalues --   -0.38326  -0.38252  -0.37764  -0.36983  -0.36748
 Alpha  occ. eigenvalues --   -0.36176  -0.35541  -0.35493  -0.34715  -0.34366
 Alpha  occ. eigenvalues --   -0.34012  -0.33482  -0.33029  -0.32865  -0.32196
 Alpha  occ. eigenvalues --   -0.32084  -0.31732  -0.31526  -0.31446  -0.30915
 Alpha  occ. eigenvalues --   -0.30461  -0.29581  -0.28996  -0.28769  -0.28226
 Alpha  occ. eigenvalues --   -0.20606  -0.20176  -0.17893  -0.17176  -0.09668
 Alpha virt. eigenvalues --   -0.00292  -0.00042   0.00655   0.00842   0.00994
 Alpha virt. eigenvalues --    0.01525   0.01793   0.01895   0.02681   0.02776
 Alpha virt. eigenvalues --    0.03298   0.03780   0.04072   0.04284   0.04477

  Beta  occ. eigenvalues --  -19.10072 -19.01307 -19.00119 -10.16035 -10.15996
  Beta  occ. eigenvalues --  -10.15769 -10.15741 -10.15695 -10.15618 -10.15502
  Beta  occ. eigenvalues --  -10.15422 -10.15287 -10.15053 -10.14854 -10.14627
  Beta  occ. eigenvalues --  -10.13969 -10.13342 -10.13099 -10.12991 -10.11357
  Beta  occ. eigenvalues --  -10.11065 -10.10184  -1.01421  -0.92248  -0.91961
  Beta  occ. eigenvalues --   -0.80781  -0.79288  -0.77814  -0.76537  -0.74421
  Beta  occ. eigenvalues --   -0.72883  -0.70271  -0.67545  -0.66622  -0.63498
  Beta  occ. eigenvalues --   -0.60705  -0.59418  -0.58012  -0.57323  -0.56737
  Beta  occ. eigenvalues --   -0.56039  -0.52192  -0.50634  -0.48134  -0.47396
  Beta  occ. eigenvalues --   -0.46428  -0.44552  -0.43677  -0.42965  -0.41926
  Beta  occ. eigenvalues --   -0.41807  -0.40705  -0.39982  -0.39465  -0.39101
  Beta  occ. eigenvalues --   -0.38326  -0.38252  -0.37764  -0.36983  -0.36748
  Beta  occ. eigenvalues --   -0.36176  -0.35541  -0.35493  -0.34715  -0.34366
  Beta  occ. eigenvalues --   -0.34012  -0.33482  -0.33029  -0.32865  -0.32196
  Beta  occ. eigenvalues --   -0.32084  -0.31732  -0.31526  -0.31446  -0.30915
  Beta  occ. eigenvalues --   -0.30461  -0.29581  -0.28996  -0.28769  -0.28226
  Beta  occ. eigenvalues --   -0.20606  -0.20176  -0.17893  -0.17176  -0.09668
  Beta virt. eigenvalues --   -0.00292  -0.00042   0.00655   0.00842   0.00994
  Beta virt. eigenvalues --    0.01525   0.01793   0.01895   0.02681   0.02776
  Beta virt. eigenvalues --    0.03298   0.03780   0.04072   0.04284   0.04477

 Mulliken charges and spin densities:
               1          2
     1  C   -0.870304  -0.000000
     2  C    0.964009  -0.000000
     3  C    0.781348  -0.000000
     4  C   -0.882904  -0.000000
     5  C    1.041463  -0.000000
     6  C   -0.891903   0.000000
     7  O   -0.745898  -0.000000
     8  O   -0.676786  -0.000000
     9  C   -0.362094  -0.000000
    10  C   -0.912729   0.000000
    11  C   -0.372312  -0.000000
    12  C   -0.084147   0.000000
    13  C    0.041517   0.000000
    14  C    0.047203   0.000000
    15  C   -0.049558  -0.000000
    16  C   -0.282028   0.000000
    17  C   -0.481214   0.000000
    18  C   -0.281671  -0.000000
    19  C   -0.441023  -0.000000
    20  C   -0.654684   0.000000
    21  O   -0.373741  -0.000000
    22  H    0.174748  -0.000000
    23  H    0.140075   0.000000
    24  H    0.114156   0.000000
    25  H    0.194274  -0.000000
    26  H    0.116473   0.000000
    27  H    0.096669   0.000000
    28  H    0.124802  -0.000000
    29  H    0.120689  -0.000000
    30  H    0.130427  -0.000000
    31  H    0.129971  -0.000000
    32  H    0.128002  -0.000000
    33  H    0.129638  -0.000000
    34  H    0.128778   0.000000
    35  H    0.127722   0.000000
    36  H    0.126347   0.000000
    37  H    0.126956   0.000000
    38  H    0.124279  -0.000000
    39  H    0.123469  -0.000000
    40  C   -0.698003  -0.000000
    41  H    0.130976  -0.000000
    42  H    0.132915  -0.000000
    43  H    0.154831   0.000000
    44  H    0.132922  -0.000000
    45  H    0.165042   0.000000
    46  H    0.136687  -0.000000
    47  H    0.139256  -0.000000
    48  H    0.131219  -0.000000
    49  H    0.140382   0.000000
    50  H    0.148012  -0.000000
    51  H    0.140284   0.000000
    52  H    0.275455  -0.000000
 Sum of Mulliken charges =  -2.00000   0.00000

 Dipole moment (field-independent basis, Debye):
    X=            -45.5761    Y=             -1.8135    Z=              0.3998  Tot=             45.6139
 Quadrupole moment (field-independent basis, Debye-Ang):
   XX=           -397.1215   YY=           -187.0538   ZZ=           -156.8014
   XY=              9.6245   XZ=             14.7387   YZ=             -9.7819

 Normal termination of Gaussian 16 at Wed Jan 24 23:03:15 2024.
