 Gaussian 16, Revision A.03,
 Gaussian 16:  ES64L-G16RevA.03 25-Dec-2016

 --------------------------------------
 #P UB3LYP/6-311++G(d,p) nosym opt freq
 --------------------------------------

 --------
 Oxidized
 --------
 Symbolic Z-matrix:
 Charge =  0 Multiplicity = 1

 SCF Done:  E(UB3LYP) =  -1760.39508174     A.U. after   23 cycles
 SCF Done:  E(UB3LYP) =  -1760.41294316     A.U. after   21 cycles
 SCF Done:  E(UB3LYP) =  -1760.41496660     A.U. after   20 cycles
 SCF Done:  E(UB3LYP) =  -1760.41509713     A.U. after   13 cycles
 SCF Done:  E(UB3LYP) =  -1760.41510663     A.U. after   12 cycles
 Optimization completed.
    -- Stationary point found.
 Normal termination of Gaussian 16 at Sun Dec 17 20:58:02 2023.

 ----------------------------------------------------------------------
 #P Geom=AllCheck Guess=TCheck SCRF=Check GenChk UB3LYP/6-311++G(d,p) F
 req
 ----------------------------------------------------------------------

 Structure from the checkpoint file:  "026.chk"
 --------
 Oxidized
 --------
 Charge =  0 Multiplicity = 1

                          Input orientation:
 ---------------------------------------------------------------------
 Center     Atomic      Atomic             Coordinates (Angstroms)
 Number     Number       Type             X           Y           Z
 ---------------------------------------------------------------------
      1         17           0       -2.653489   -1.759977   -0.010968
      2          6           0       -1.261327   -0.735028   -0.007470
      3          6           0       -1.359449    0.598388   -0.038716
      4          6           0       -0.163862    1.467040   -0.035443
      5          8           0       -0.272144    2.674554   -0.064070
      6          6           0        1.179799    0.796230    0.004582
      7          6           0        1.281780   -0.549376    0.036166
      8         17           0        2.791748   -1.376477    0.082769
      9          6           0        0.067883   -1.434306    0.032866
     10          8           0        0.157196   -2.636924    0.061098
     11         17           0        2.544061    1.844217    0.007089
     12          1           0       -2.312196    1.111659   -0.067902
 ---------------------------------------------------------------------

 SCF Done:  E(UB3LYP) =  -1760.41510663     A.U. after    2 cycles

 Alpha  occ. eigenvalues -- -101.59492-101.59455-101.59427 -19.17254 -19.16663
 Alpha  occ. eigenvalues --  -10.32711 -10.32008 -10.29843 -10.29769 -10.29655
 Alpha  occ. eigenvalues --  -10.24367  -9.50935  -9.50898  -9.50870  -7.27425
 Alpha  occ. eigenvalues --   -7.27395  -7.27371  -7.26439  -7.26412  -7.26377
 Alpha  occ. eigenvalues --   -7.26328  -7.26271  -7.26244  -1.11071  -1.10139
 Alpha  occ. eigenvalues --   -0.95214  -0.92897  -0.89526  -0.85154  -0.78292
 Alpha  occ. eigenvalues --   -0.73158  -0.65433  -0.63539  -0.57796  -0.53512
 Alpha  occ. eigenvalues --   -0.51073  -0.49737  -0.49554  -0.48064  -0.47077
 Alpha  occ. eigenvalues --   -0.45527  -0.45512  -0.42232  -0.39201  -0.37269
 Alpha  occ. eigenvalues --   -0.36399  -0.35478  -0.34192  -0.32247  -0.31984
 Alpha  occ. eigenvalues --   -0.31205  -0.29481
 Alpha virt. eigenvalues --   -0.16312  -0.06461  -0.03811  -0.03019  -0.01102
 Alpha virt. eigenvalues --   -0.01031   0.01030   0.01722   0.02782   0.03471
 Alpha virt. eigenvalues --    0.04120   0.05723   0.06015   0.06534   0.06972

  Beta  occ. eigenvalues -- -101.59492-101.59455-101.59427 -19.17254 -19.16663
  Beta  occ. eigenvalues --  -10.32711 -10.32008 -10.29843 -10.29769 -10.29655
  Beta  occ. eigenvalues --  -10.24367  -9.50935  -9.50898  -9.50870  -7.27425
  Beta  occ. eigenvalues --   -7.27395  -7.27371  -7.26439  -7.26412  -7.26377
  Beta  occ. eigenvalues --   -7.26328  -7.26271  -7.26244  -1.11071  -1.10139
  Beta  occ. eigenvalues --   -0.95214  -0.92897  -0.89526  -0.85154  -0.78292
  Beta  occ. eigenvalues --   -0.73158  -0.65433  -0.63539  -0.57796  -0.53512
  Beta  occ. eigenvalues --   -0.51073  -0.49737  -0.49554  -0.48064  -0.47077
  Beta  occ. eigenvalues --   -0.45527  -0.45512  -0.42232  -0.39201  -0.37269
  Beta  occ. eigenvalues --   -0.36399  -0.35478  -0.34192  -0.32247  -0.31984
  Beta  occ. eigenvalues --   -0.31205  -0.29481
  Beta virt. eigenvalues --   -0.16312  -0.06461  -0.03811  -0.03019  -0.01102
  Beta virt. eigenvalues --   -0.01031   0.01030   0.01722   0.02782   0.03471
  Beta virt. eigenvalues --    0.04120   0.05723   0.06015   0.06534   0.06972

 Mulliken charges and spin densities:
               1          2
     1  Cl   0.357727  -0.000000
     2  C    1.068425   0.000000
     3  C   -0.249551  -0.000000
     4  C   -1.169802   0.000000
     5  O   -0.162488  -0.000000
     6  C    0.396000   0.000000
     7  C    0.628587  -0.000000
     8  Cl   0.441688   0.000000
     9  C   -1.908082  -0.000000
    10  O   -0.095791  -0.000000
    11  Cl   0.455076  -0.000000
    12  H    0.238211  -0.000000
 Sum of Mulliken charges =  -0.00000  -0.00000

 Dipole moment (field-independent basis, Debye):
    X=             -0.7109    Y=              0.2481    Z=             -0.0189  Tot=              0.7532
 Quadrupole moment (field-independent basis, Debye-Ang):
   XX=            -77.8687   YY=            -96.9751   ZZ=            -80.7281
   XY=              0.2857   XZ=              0.0472   YZ=              0.3637

  Exact polarizability: 128.793  11.415 158.939   1.093  -2.029  57.258
 Approx polarizability: 173.307  10.020 329.424   1.378  -5.133  88.267

                      1                      2                      3
                      A                      A                      A
 Frequencies --     52.9683                76.0185               138.6400
 Red. masses --     19.4418                20.4778                 8.9437
 Frc consts  --      0.0321                 0.0697                 0.1013
 IR Inten    --      2.2871                 0.2681                 6.0961

                      4                      5                      6
                      A                      A                      A
 Frequencies --    197.2316               209.6613               236.1348
 Red. masses --     26.1528                28.3703                 7.4850
 Frc consts  --      0.5994                 0.7348                 0.2459
 IR Inten    --      0.0656                 0.0288                 0.3578

                      7                      8                      9
                      A                      A                      A
 Frequencies --    267.8550               315.0106               359.3267
 Red. masses --     19.6171                20.0424                18.9211
 Frc consts  --      0.8292                 1.1718                 1.4394
 IR Inten    --      0.4954                 0.0005                 1.8210

                     10                     11                     12
                      A                      A                      A
 Frequencies --    378.1162               398.0011               485.1884
 Red. masses --      8.1035                16.7386                14.4245
 Frc consts  --      0.6826                 1.5622                 2.0006
 IR Inten    --      0.0645                 6.1394                 0.5410

                     13                     14                     15
                      A                      A                      A
 Frequencies --    512.1066               597.6170               674.2151
 Red. masses --      7.9275                 8.8437                 6.8555
 Frc consts  --      1.2249                 1.8609                 1.8361
 IR Inten    --      0.0672                53.0614                 4.3459

                     16                     17                     18
                      A                      A                      A
 Frequencies --    710.3077               788.8772               791.6584
 Red. masses --      6.0684                10.5539                11.9030
 Frc consts  --      1.8039                 3.8697                 4.3952
 IR Inten    --      3.4771                 1.2097               110.3624

                     19                     20                     21
                      A                      A                      A
 Frequencies --    869.2481               899.1602               963.0644
 Red. masses --      8.6217                 1.4543                11.2185
 Frc consts  --      3.8382                 0.6927                 6.1305
 IR Inten    --      8.3810                27.2115                 3.1661

                     22                     23                     24
                      A                      A                      A
 Frequencies --   1062.9622              1184.1089              1251.4651
 Red. masses --      5.1700                 4.3374                 8.3401
 Frc consts  --      3.4417                 3.5831                 7.6959
 IR Inten    --    257.5399                66.2407               129.8960

                     25                     26                     27
                      A                      A                      A
 Frequencies --   1311.3488              1596.2138              1662.4313
 Red. masses --      1.8875                11.7137                 9.0545
 Frc consts  --      1.9124                17.5843                14.7436
 IR Inten    --      3.7970               184.5247                34.3372

                     28                     29                     30
                      A                      A                      A
 Frequencies --   1733.8800              1758.3766              3207.4137
 Red. masses --     12.3992                13.2586                 1.0937
 Frc consts  --     21.9625                24.1530                 6.6292
 IR Inten    --    209.3802               226.5833                 1.5161

 - Thermochemistry -
 -------------------
 Temperature   298.150 Kelvin.  Pressure   1.00000 Atm.
 Atom     1 has atomic number 17 and mass  34.96885

 Molecular mass:   209.90421 amu.
 Principal axes and moments of inertia in atomic units:
                           1         2         3
     Eigenvalues --  1690.212523235.813104926.02562
           X            0.86157  -0.50730  -0.01876
           Y            0.50762   0.86130   0.02204
           Z            0.00498  -0.02851   0.99958
 This molecule is an asymmetric top.
 Rotational symmetry number  1.
 Warning -- assumption of classical behavior for rotation
           may cause significant error
 Rotational temperatures (Kelvin)      0.05124     0.02677     0.01758
 Rotational constants (GHZ):           1.06776     0.55774     0.36637
 Zero-point vibrational energy     147670.7 (Joules/Mol)
                                   35.29414 (Kcal/Mol)
 Warning -- explicit consideration of  14 degrees of freedom as
           vibrations may cause significant error
 Vibrational temperatures:     76.21   109.37   199.47   283.77   301.66
          (Kelvin)            339.75   385.38   453.23   516.99   544.02
                              572.63   698.08   736.81   859.84   970.05
                             1021.97  1135.02  1139.02  1250.65  1293.69
                             1385.63  1529.37  1703.67  1800.58  1886.74
                             2296.60  2391.87  2494.67  2529.91  4614.75

 Zero-point correction=                           0.056245 (Hartree/Particle)
 Thermal correction to Energy=                    0.066069
 Thermal correction to Enthalpy=                  0.067013
 Thermal correction to Gibbs Free Energy=         0.019176
 Sum of electronic and zero-point Energies=          -1760.358862
 Sum of electronic and thermal Energies=             -1760.349037
 Sum of electronic and thermal Enthalpies=           -1760.348093
 Sum of electronic and thermal Free Energies=        -1760.395931

                     E (Thermal)             CV                S
                      KCal/Mol        Cal/Mol-Kelvin    Cal/Mol-Kelvin
 Total                   41.459             34.229            100.682
 Electronic               0.000              0.000              0.000
 Translational            0.889              2.981             41.928
 Rotational               0.889              2.981             31.666
 Vibrational             39.682             28.268             27.088
 Vibration     1          0.596              1.976              4.703
 Vibration     2          0.599              1.965              3.991
 Vibration     3          0.614              1.915              2.823
 Vibration     4          0.637              1.844              2.159
 Vibration     5          0.642              1.826              2.047
 Vibration     6          0.655              1.785              1.832
 Vibration     7          0.673              1.732              1.610
 Vibration     8          0.702              1.645              1.336
 Vibration     9          0.734              1.556              1.125
 Vibration    10          0.748              1.517              1.047
 Vibration    11          0.764              1.474              0.970
 Vibration    12          0.841              1.283              0.696
 Vibration    13          0.867              1.223              0.629
 Vibration    14          0.956              1.037              0.454

 Optimization completed.
    -- Stationary point found.
 Normal termination of Gaussian 16 at Sun Dec 17 21:02:01 2023.
