 Q-Chem 5.4, Q-Chem, Inc., Pleasanton, CA (2021)
 Q-Chem 5.4.0 for Intel X86 EM64T Linux

User input:
--------------------------------------------------------------
$molecule
-2 1
C                 -5.0155420000     -1.0223970000     -0.0275940000
O                 -3.6124060000     -1.0874580000      0.0166110000
C                 -2.8912520000      0.0822510000      0.0053450000
C                 -3.5332710000      1.3122140000     -0.0293240000
C                 -2.7758440000      2.5092120000     -0.0420670000
C                 -1.4041360000      2.4512650000     -0.0334380000
C                 -0.7128190000      1.2155760000     -0.0055920000
C                  0.7527840000      1.2988190000     -0.0072190000
O                  1.3237020000      2.4313170000     -0.0436370000
C                  1.4556500000      0.0244680000      0.0402030000
C                  2.8912600000     -0.0825330000      0.0317700000
O                  3.6126190000      1.0842240000     -0.0504860000
C                  5.0160090000      1.0161660000     -0.0793690000
C                  3.5331830000     -1.3108610000      0.1047370000
C                  2.7755300000     -2.5049180000      0.1875150000
C                  1.4038070000     -2.4468400000      0.1821400000
C                  0.7126410000     -1.2133910000      0.1014820000
C                 -0.7529550000     -1.2968890000      0.0969540000
O                 -1.3239340000     -2.4285930000      0.1520500000
C                 -1.4557480000     -0.0232580000      0.0323410000
H                 -5.3644880000     -2.0576850000     -0.0484040000
H                 -5.4432330000     -0.5220330000      0.8545810000
H                 -5.3881860000     -0.5067610000     -0.9262530000
H                 -4.6139850000      1.3704520000     -0.0368930000
H                 -3.2930530000      3.4660610000     -0.0654910000
H                 -0.7903890000      3.3441650000     -0.0499890000
H                  5.3653190000      2.0461840000     -0.1845510000
H                  5.3947550000      0.4271250000     -0.9290290000
H                  5.4374900000      0.5917140000      0.8445940000
H                  4.6139100000     -1.3692100000      0.1091110000
H                  3.2926070000     -3.4602080000      0.2480410000
H                  0.7899730000     -3.3381800000      0.2365370000
$end

$rem
BASIS  =  6-311++G(d,p)
GUI  =  2
JOB_TYPE  =  SP
METHOD  =  B3LYP
SCF_CONVERGENCE  = 8
SOLVENT_METHOD = sm12
$end

$smx
solvent dimethylformamide
charges CM5
$end

--------------------------------------------------------------

             Standard Nuclear Orientation (Angstroms)
    I     Atom           X                Y                Z
 ----------------------------------------------------------------
    1      C      -5.0155420000    -1.0223970000    -0.0275940000
    2      O      -3.6124060000    -1.0874580000     0.0166110000
    3      C      -2.8912520000     0.0822510000     0.0053450000
    4      C      -3.5332710000     1.3122140000    -0.0293240000
    5      C      -2.7758440000     2.5092120000    -0.0420670000
    6      C      -1.4041360000     2.4512650000    -0.0334380000
    7      C      -0.7128190000     1.2155760000    -0.0055920000
    8      C       0.7527840000     1.2988190000    -0.0072190000
    9      O       1.3237020000     2.4313170000    -0.0436370000
   10      C       1.4556500000     0.0244680000     0.0402030000
   11      C       2.8912600000    -0.0825330000     0.0317700000
   12      O       3.6126190000     1.0842240000    -0.0504860000
   13      C       5.0160090000     1.0161660000    -0.0793690000
   14      C       3.5331830000    -1.3108610000     0.1047370000
   15      C       2.7755300000    -2.5049180000     0.1875150000
   16      C       1.4038070000    -2.4468400000     0.1821400000
   17      C       0.7126410000    -1.2133910000     0.1014820000
   18      C      -0.7529550000    -1.2968890000     0.0969540000
   19      O      -1.3239340000    -2.4285930000     0.1520500000
   20      C      -1.4557480000    -0.0232580000     0.0323410000
   21      H      -5.3644880000    -2.0576850000    -0.0484040000
   22      H      -5.4432330000    -0.5220330000     0.8545810000
   23      H      -5.3881860000    -0.5067610000    -0.9262530000
   24      H      -4.6139850000     1.3704520000    -0.0368930000
   25      H      -3.2930530000     3.4660610000    -0.0654910000
   26      H      -0.7903890000     3.3441650000    -0.0499890000
   27      H       5.3653190000     2.0461840000    -0.1845510000
   28      H       5.3947550000     0.4271250000    -0.9290290000
   29      H       5.4374900000     0.5917140000     0.8445940000
   30      H       4.6139100000    -1.3692100000     0.1091110000
   31      H       3.2926070000    -3.4602080000     0.2480410000
   32      H       0.7899730000    -3.3381800000     0.2365370000
 ----------------------------------------------------------------

   17    -917.9848730376      9.93e-09  Convergence criterion met
 Total energy in the final basis set =     -918.2752919795

                    Orbital Energies (a.u.)
 --------------------------------------------------------------

 Alpha MOs
 -- Occupied --
-19.1401 -19.1401 -19.0146 -19.0146 -10.2274 -10.2274 -10.2172 -10.2172
-10.1831 -10.1831 -10.1654 -10.1654 -10.1588 -10.1588 -10.1521 -10.1521
-10.1511 -10.1511 -10.1446 -10.1446  -1.0577  -1.0576  -0.9437  -0.9411
 -0.8363  -0.8323  -0.7627  -0.7453  -0.7444  -0.7230  -0.6908  -0.6850
 -0.6424  -0.6143  -0.6045  -0.5677  -0.5464  -0.5301  -0.5217  -0.4854
 -0.4700  -0.4660  -0.4602  -0.4597  -0.4557  -0.4555  -0.4386  -0.4159
 -0.4081  -0.3957  -0.3908  -0.3803  -0.3774  -0.3653  -0.3552  -0.3511
 -0.3394  -0.3338  -0.3297  -0.3214  -0.3207  -0.3154  -0.3037  -0.2975
 -0.2327  -0.2277  -0.2184  -0.2136  -0.1916  -0.1848  -0.1041

          Ground-State Mulliken Net Atomic Charges

     Atom                 Charge (a.u.)
  ----------------------------------------
      1 C                     0.370568
      2 O                    -0.006877
      3 C                     0.393856
      4 C                     2.110691
      5 C                     1.010052
      6 C                    -1.055834
      7 C                    -1.924859
      8 C                    -2.273497
      9 O                    -0.319441
     10 C                    -0.888463
     11 C                     0.392445
     12 O                    -0.006378
     13 C                     0.370198
     14 C                     2.112499
     15 C                     1.010126
     16 C                    -1.056885
     17 C                    -1.925256
     18 C                    -2.274056
     19 O                    -0.319309
     20 C                    -0.888896
     21 H                     0.343840
     22 H                     0.222900
     23 H                     0.221150
     24 H                     0.401692
     25 H                     0.353576
     26 H                     0.041363
     27 H                     0.343843
     28 H                     0.221170
     29 H                     0.223050
     30 H                     0.401727
     31 H                     0.353675
     32 H                     0.041332
  ----------------------------------------
  Sum of atomic charges =    -2.000000

                    Cartesian Multipole Moments
 -----------------------------------------------------------------
    Charge (ESU x 10^10)
                -9.6064
    Dipole Moment (Debye)
         X       0.0009      Y      -0.0158      Z      -0.5886
       Tot       0.5888
    Quadrupole Moments (Debye-Ang)
        XX    -141.5781     XY      -2.8291     YY    -179.1711
        XZ       0.0854     YZ       2.0053     ZZ    -131.6064

 Total job time:  1014.62s(wall), 7778.88s(cpu)
        *  Thank you very much for using Q-Chem.  Have a nice day.  *
