 Q-Chem 5.4, Q-Chem, Inc., Pleasanton, CA (2021)
 Q-Chem 5.4.0 for Intel X86 EM64T Linux

User input:
--------------------------------------------------------------
$molecule
-2 1
C                 -4.0295130000      0.2879880000      0.2604270000
C                 -2.5593010000      0.0121930000      0.0417150000
C                 -2.1533710000     -1.0646940000     -0.7941800000
C                 -0.8121070000     -1.3254070000     -1.0031740000
C                  0.2081840000     -0.5426160000     -0.4152260000
C                  1.6076350000     -0.8562070000     -0.6818240000
O                  1.9701280000     -1.8304020000     -1.4469590000
C                  2.5469300000     -0.0005770000     -0.0278850000
C                  2.1463990000      1.0523790000      0.8108460000
C                  0.7963840000      1.3981400000      1.1046790000
O                  0.4632450000      2.3762290000      1.8727560000
C                 -0.1899030000      0.5397370000      0.4485880000
C                 -1.5719980000      0.7731430000      0.6451390000
C                  4.0102030000     -0.2738320000     -0.2665350000
H                 -4.5470300000      0.5391600000     -0.6728030000
H                 -4.1818200000      1.1223830000      0.9525320000
H                 -4.5637420000     -0.5841750000      0.6779880000
H                 -2.9112880000     -1.6829680000     -1.2746690000
H                 -0.4910260000     -2.1433440000     -1.6415150000
H                  2.9108690000      1.6741520000      1.2795610000
H                 -1.8314160000      1.5974750000      1.3040380000
H                  4.2813210000     -0.1394790000     -1.3244460000
H                  4.2612160000     -1.3177290000     -0.0327430000
H                  4.6399980000      0.3884510000      0.3404110000
$end

$rem
BASIS  =  6-311++G(d,p)
GUI  =  2
JOB_TYPE  =  SP
METHOD  =  B3LYP
SCF_CONVERGENCE  = 8
SOLVENT_METHOD = sm12
$end

$smx
solvent dimethylformamide
charges CM5
$end

--------------------------------------------------------------

             Standard Nuclear Orientation (Angstroms)
    I     Atom           X                Y                Z
 ----------------------------------------------------------------
    1      C      -4.0295130000     0.2879880000     0.2604270000
    2      C      -2.5593010000     0.0121930000     0.0417150000
    3      C      -2.1533710000    -1.0646940000    -0.7941800000
    4      C      -0.8121070000    -1.3254070000    -1.0031740000
    5      C       0.2081840000    -0.5426160000    -0.4152260000
    6      C       1.6076350000    -0.8562070000    -0.6818240000
    7      O       1.9701280000    -1.8304020000    -1.4469590000
    8      C       2.5469300000    -0.0005770000    -0.0278850000
    9      C       2.1463990000     1.0523790000     0.8108460000
   10      C       0.7963840000     1.3981400000     1.1046790000
   11      O       0.4632450000     2.3762290000     1.8727560000
   12      C      -0.1899030000     0.5397370000     0.4485880000
   13      C      -1.5719980000     0.7731430000     0.6451390000
   14      C       4.0102030000    -0.2738320000    -0.2665350000
   15      H      -4.5470300000     0.5391600000    -0.6728030000
   16      H      -4.1818200000     1.1223830000     0.9525320000
   17      H      -4.5637420000    -0.5841750000     0.6779880000
   18      H      -2.9112880000    -1.6829680000    -1.2746690000
   19      H      -0.4910260000    -2.1433440000    -1.6415150000
   20      H       2.9108690000     1.6741520000     1.2795610000
   21      H      -1.8314160000     1.5974750000     1.3040380000
   22      H       4.2813210000    -0.1394790000    -1.3244460000
   23      H       4.2612160000    -1.3177290000    -0.0327430000
   24      H       4.6399980000     0.3884510000     0.3404110000
 ----------------------------------------------------------------

   18    -613.8731916435      8.78e-09  Convergence criterion met
 Total energy in the final basis set =     -614.1721148338

                    Orbital Energies (a.u.)
 --------------------------------------------------------------

 Alpha MOs
 -- Occupied --
-19.0260 -19.0252 -10.1853 -10.1815 -10.1790 -10.1785 -10.1726 -10.1706
-10.1700 -10.1659 -10.1553 -10.1549 -10.1461 -10.1394  -0.9421  -0.9390
 -0.8496  -0.7941  -0.7654  -0.7432  -0.7045  -0.6813  -0.6347  -0.6076
 -0.5755  -0.5393  -0.4980  -0.4747  -0.4563  -0.4332  -0.4244  -0.4222
 -0.4168  -0.4112  -0.3912  -0.3864  -0.3765  -0.3723  -0.3620  -0.3553
 -0.3324  -0.3272  -0.3190  -0.3182  -0.2478  -0.2319  -0.2283  -0.2037
 -0.1996  -0.1212

          Ground-State Mulliken Net Atomic Charges

     Atom                 Charge (a.u.)
  ----------------------------------------
      1 C                     3.308538
      2 C                     3.444459
      3 C                     2.214529
      4 C                    -0.655607
      5 C                    -2.037028
      6 C                    -2.725990
      7 O                    -0.320658
      8 C                    -0.345427
      9 C                    -1.139437
     10 C                    -2.256248
     11 O                    -0.370254
     12 C                    -3.166228
     13 C                    -1.142393
     14 C                     1.274504
     15 H                     0.285180
     16 H                     0.442736
     17 H                     0.286890
     18 H                     0.343934
     19 H                     0.124824
     20 H                    -0.102775
     21 H                    -0.105402
     22 H                     0.162016
     23 H                     0.182665
     24 H                     0.297173
  ----------------------------------------
  Sum of atomic charges =    -2.000000

                    Cartesian Multipole Moments
 -----------------------------------------------------------------
    Charge (ESU x 10^10)
                -9.6064
    Dipole Moment (Debye)
         X      -9.7937      Y      -2.0090      Z      -1.5979
       Tot      10.1245
    Quadrupole Moments (Debye-Ang)
        XX    -125.7644     XY       5.4919     YY    -128.0173
        XZ       4.7161     YZ     -25.0783     ZZ    -116.0194

 Total job time:  518.77s(wall), 3430.98s(cpu)
        *  Thank you very much for using Q-Chem.  Have a nice day.  *
