 Gaussian 16, Revision A.03,
 Gaussian 16:  ES64L-G16RevA.03 25-Dec-2016

 --------------------------------------
 #P UB3LYP/6-311++G(d,p) nosym opt freq
 --------------------------------------

 -------
 Radical
 -------
 Symbolic Z-matrix:
 Charge = -1 Multiplicity = 2

 SCF Done:  E(UB3LYP) =  -839.464019250     A.U. after   23 cycles
 SCF Done:  E(UB3LYP) =  -839.499695908     A.U. after   19 cycles
 SCF Done:  E(UB3LYP) =  -839.507740930     A.U. after   19 cycles
 SCF Done:  E(UB3LYP) =  -839.518944448     A.U. after   18 cycles
 SCF Done:  E(UB3LYP) =  -839.520145911     A.U. after   17 cycles
 SCF Done:  E(UB3LYP) =  -839.520548407     A.U. after   16 cycles
 SCF Done:  E(UB3LYP) =  -839.520677034     A.U. after   15 cycles
 SCF Done:  E(UB3LYP) =  -839.520696778     A.U. after   14 cycles
 SCF Done:  E(UB3LYP) =  -839.520699658     A.U. after   11 cycles
 SCF Done:  E(UB3LYP) =  -839.520700332     A.U. after   11 cycles
 SCF Done:  E(UB3LYP) =  -839.520700486     A.U. after   11 cycles
 Optimization completed.
    -- Stationary point found.
 Normal termination of Gaussian 16 at Thu Dec 21 20:36:48 2023.

 ----------------------------------------------------------------------
 #P Geom=AllCheck Guess=TCheck SCRF=Check GenChk UB3LYP/6-311++G(d,p) F
 req
 ----------------------------------------------------------------------

 Structure from the checkpoint file:  "186-rad.chk"
 -------
 Radical
 -------
 Charge = -1 Multiplicity = 2

                          Input orientation:
 ---------------------------------------------------------------------
 Center     Atomic      Atomic             Coordinates (Angstroms)
 Number     Number       Type             X           Y           Z
 ---------------------------------------------------------------------
      1          8           0        3.056333   -2.196957    0.208342
      2          6           0        2.774405   -0.878864    0.255576
      3          6           0        3.805763    0.037970    0.416959
      4          6           0        3.520507    1.411894    0.466870
      5          6           0        2.220302    1.873751    0.357417
      6          6           0        1.154893    0.968541    0.193204
      7          6           0       -0.217686    1.504440    0.080612
      8          8           0       -0.414579    2.734581    0.130775
      9          6           0       -1.294627    0.517856   -0.089824
     10          6           0       -2.662583    0.895388   -0.211353
     11          8           0       -3.007677    2.220952   -0.170385
     12          6           0       -3.661514   -0.057291   -0.371624
     13          6           0       -3.348117   -1.427118   -0.418615
     14          6           0       -2.038552   -1.833726   -0.304916
     15          6           0       -1.002014   -0.886616   -0.140894
     16          6           0        0.356106   -1.386773   -0.027341
     17          8           0        0.601503   -2.646169   -0.074708
     18          6           0        1.421620   -0.425854    0.140165
     19          1           0        2.157677   -2.645988    0.087701
     20          1           0        4.821188   -0.333372    0.501754
     21          1           0        4.336375    2.117909    0.593381
     22          1           0        1.984546    2.929656    0.394066
     23          1           0       -3.964835    2.268493   -0.268439
     24          1           0       -4.695072    0.271360   -0.460865
     25          1           0       -4.143758   -2.154944   -0.544526
     26          1           0       -1.760204   -2.879119   -0.336651
 ---------------------------------------------------------------------

 SCF Done:  E(UB3LYP) =  -839.520700486     A.U. after    2 cycles

 Alpha  occ. eigenvalues --  -19.04338 -19.00426 -18.96210 -18.94771 -10.12894
 Alpha  occ. eigenvalues --  -10.11254 -10.10549 -10.10515 -10.06664 -10.06346
 Alpha  occ. eigenvalues --  -10.06082 -10.05908 -10.05785 -10.05246 -10.05201
 Alpha  occ. eigenvalues --  -10.05068 -10.04697 -10.04148  -0.95637  -0.92834
 Alpha  occ. eigenvalues --   -0.87837  -0.87619  -0.74336  -0.72834  -0.67023
 Alpha  occ. eigenvalues --   -0.63285  -0.62740  -0.61745  -0.55143  -0.52867
 Alpha  occ. eigenvalues --   -0.51477  -0.47707  -0.46444  -0.43034  -0.41757
 Alpha  occ. eigenvalues --   -0.38538  -0.38136  -0.36151  -0.35445  -0.34817
 Alpha  occ. eigenvalues --   -0.32625  -0.31503  -0.30428  -0.29901  -0.29528
 Alpha  occ. eigenvalues --   -0.29179  -0.27176  -0.26384  -0.25943  -0.25538
 Alpha  occ. eigenvalues --   -0.25335  -0.24683  -0.23696  -0.22074  -0.21845
 Alpha  occ. eigenvalues --   -0.20545  -0.15073  -0.13363  -0.12988  -0.12087
 Alpha  occ. eigenvalues --   -0.10661  -0.10430  -0.01984
 Alpha virt. eigenvalues --    0.07034   0.07357   0.08875   0.08899   0.09111
 Alpha virt. eigenvalues --    0.10984   0.11173   0.12462   0.12616   0.13271
 Alpha virt. eigenvalues --    0.14882   0.14959   0.15381   0.16049   0.16602

  Beta  occ. eigenvalues --  -19.04343 -19.00398 -18.95671 -18.94218 -10.12940
  Beta  occ. eigenvalues --  -10.11228 -10.10450 -10.10297 -10.06625 -10.06229
  Beta  occ. eigenvalues --  -10.05971 -10.05820 -10.05710 -10.05249 -10.05102
  Beta  occ. eigenvalues --  -10.05043 -10.04651 -10.04160  -0.95645  -0.92696
  Beta  occ. eigenvalues --   -0.86928  -0.86695  -0.74074  -0.72693  -0.66617
  Beta  occ. eigenvalues --   -0.63051  -0.62535  -0.61570  -0.54457  -0.52702
  Beta  occ. eigenvalues --   -0.51262  -0.47598  -0.46288  -0.42819  -0.41611
  Beta  occ. eigenvalues --   -0.38428  -0.38013  -0.35911  -0.35305  -0.34705
  Beta  occ. eigenvalues --   -0.32524  -0.30887  -0.30307  -0.29685  -0.29138
  Beta  occ. eigenvalues --   -0.28844  -0.26857  -0.26279  -0.25208  -0.25096
  Beta  occ. eigenvalues --   -0.24625  -0.23680  -0.23551  -0.21900  -0.20936
  Beta  occ. eigenvalues --   -0.19764  -0.13077  -0.12637  -0.12545  -0.11358
  Beta  occ. eigenvalues --   -0.10151  -0.09766
  Beta virt. eigenvalues --    0.03733   0.07030   0.08325   0.08869   0.08887
  Beta virt. eigenvalues --    0.10193   0.10983   0.11171   0.12617   0.12708
  Beta virt. eigenvalues --    0.13265   0.14893   0.15034   0.15384   0.16436

 Mulliken charges and spin densities:
               1          2
     1  O   -0.361312   0.009435
     2  C   -0.277187   0.040842
     3  C   -0.087071   0.032286
     4  C   -0.352583   0.060109
     5  C   -0.118751   0.014526
     6  C    0.572497   0.084497
     7  C   -0.483871   0.016163
     8  O   -0.334160   0.210011
     9  C   -0.172827   0.062510
    10  C   -0.106295  -0.014448
    11  O   -0.163610  -0.001377
    12  C   -0.224508   0.091710
    13  C   -0.383533   0.033406
    14  C    0.002788   0.054743
    15  C    0.643543   0.029422
    16  C   -0.514960   0.139537
    17  O   -0.421778   0.198086
    18  C    0.423184  -0.035245
    19  H    0.352303  -0.004194
    20  H    0.139170  -0.003099
    21  H    0.131052  -0.004533
    22  H    0.141874  -0.001152
    23  H    0.237956  -0.000546
    24  H    0.071695  -0.008059
    25  H    0.134058  -0.002671
    26  H    0.152324  -0.001958
 Sum of Mulliken charges =  -1.00000   1.00000

 Dipole moment (field-independent basis, Debye):
    X=             -3.6573    Y=              0.2226    Z=             -0.4468  Tot=              3.6912
 Quadrupole moment (field-independent basis, Debye-Ang):
   XX=           -116.7229   YY=           -138.3837   ZZ=           -110.6258
   XY=              7.6490   XZ=             -0.2596   YZ=             -0.8079

  Exact polarizability: 328.408  12.032 227.754  25.148   8.959  98.432
 Approx polarizability: 493.661   8.977 437.707  36.410  17.573 156.327

                      1                      2                      3
                      A                      A                      A
 Frequencies --     44.9600                65.9267               108.4021
 Red. masses --      7.5281                 6.1600                 9.6430
 Frc consts  --      0.0090                 0.0158                 0.0668
 IR Inten    --      6.6608                 0.6865                 0.6463

                      4                      5                      6
                      A                      A                      A
 Frequencies --    168.1763               202.9215               207.1671
 Red. masses --      7.4550                 4.6311                 6.0438
 Frc consts  --      0.1242                 0.1124                 0.1528
 IR Inten    --      0.1475                 0.3597                 4.5161

                      7                      8                      9
                      A                      A                      A
 Frequencies --    233.1970               268.7926               298.7979
 Red. masses --      2.8879                 2.7601                 7.7487
 Frc consts  --      0.0925                 0.1175                 0.4076
 IR Inten    --     12.9696                18.9303                 5.2382

                     10                     11                     12
                      A                      A                      A
 Frequencies --    315.0369               348.2892               380.8132
 Red. masses --      1.7311                 7.9741                 9.0310
 Frc consts  --      0.1012                 0.5699                 0.7716
 IR Inten    --     46.0393                 0.1760                 1.0256

                     13                     14                     15
                      A                      A                      A
 Frequencies --    412.3311               431.6222               440.2819
 Red. masses --      6.3791                11.4478                 7.0028
 Frc consts  --      0.6390                 1.2565                 0.7998
 IR Inten    --      0.0818                24.8494                 0.8437

                     16                     17                     18
                      A                      A                      A
 Frequencies --    465.2291               485.1290               515.6888
 Red. masses --      7.4895                 4.2039                 7.5246
 Frc consts  --      0.9551                 0.5829                 1.1790
 IR Inten    --      9.8725                 1.0862                11.0902

                     19                     20                     21
                      A                      A                      A
 Frequencies --    535.4347               536.8901               574.8993
 Red. masses --      4.9207                 6.3731                 4.6611
 Frc consts  --      0.8312                 1.0824                 0.9077
 IR Inten    --      3.6743                 2.7365                 0.4298

                     22                     23                     24
                      A                      A                      A
 Frequencies --    594.0475               614.2009               648.1602
 Red. masses --      7.3858                 5.8850                 4.0936
 Frc consts  --      1.5356                 1.3080                 1.0133
 IR Inten    --      6.2492                14.1388                 0.6103

                     25                     26                     27
                      A                      A                      A
 Frequencies --    701.4877               707.3321               740.4428
 Red. masses --      2.2600                 6.8581                 1.9343
 Frc consts  --      0.6552                 2.0216                 0.6248
 IR Inten    --     61.3273                 3.5014                 3.5846

                     28                     29                     30
                      A                      A                      A
 Frequencies --    749.2943               776.7867               779.8379
 Red. masses --      3.3478                 2.1184                 7.1068
 Frc consts  --      1.1074                 0.7531                 2.5464
 IR Inten    --      2.0047                70.0781                35.7730

                     31                     32                     33
                      A                      A                      A
 Frequencies --    809.7925               831.1718               862.7762
 Red. masses --      4.0697                 1.4567                 7.5549
 Frc consts  --      1.5724                 0.5929                 3.3134
 IR Inten    --      7.1627                 3.7558                58.2443

                     34                     35                     36
                      A                      A                      A
 Frequencies --    875.6988               909.7223               958.5133
 Red. masses --      1.4497                 7.2297                 1.2473
 Frc consts  --      0.6550                 3.5252                 0.6752
 IR Inten    --      0.7029                 7.8940                10.6986

                     37                     38                     39
                      A                      A                      A
 Frequencies --    962.4499               963.7007               977.5371
 Red. masses --      1.2748                 1.0677                 5.2098
 Frc consts  --      0.6958                 0.5842                 2.9331
 IR Inten    --      0.6861                61.2355                 8.3989

                     40                     41                     42
                      A                      A                      A
 Frequencies --   1053.0081              1072.7894              1091.8705
 Red. masses --      4.7035                 1.8714                 1.9483
 Frc consts  --      3.0728                 1.2689                 1.3685
 IR Inten    --     99.1316                 7.0202                67.1764

                     43                     44                     45
                      A                      A                      A
 Frequencies --   1161.4692              1173.4035              1188.2784
 Red. masses --      1.4938                 1.1581                 1.8385
 Frc consts  --      1.1873                 0.9395                 1.5295
 IR Inten    --     30.8435                 1.6030                28.8787

                     46                     47                     48
                      A                      A                      A
 Frequencies --   1188.7384              1228.5081              1242.7455
 Red. masses --      2.5199                 2.8273                 2.4494
 Frc consts  --      2.0980                 2.5141                 2.2288
 IR Inten    --      6.8514                36.6844                17.5610

                     49                     50                     51
                      A                      A                      A
 Frequencies --   1273.7193              1295.8355              1320.6312
 Red. masses --      3.0895                 3.2903                 3.8567
 Frc consts  --      2.9532                 3.2553                 3.9631
 IR Inten    --     24.0540                29.2789               186.9427

                     52                     53                     54
                      A                      A                      A
 Frequencies --   1352.0574              1375.0712              1410.8065
 Red. masses --      5.7198                 6.8736                 3.3082
 Frc consts  --      6.1605                 7.6575                 3.8795
 IR Inten    --      0.1077                24.6696               323.8777

                     55                     56                     57
                      A                      A                      A
 Frequencies --   1425.2285              1463.2744              1485.5414
 Red. masses --      3.0238                 2.9551                 3.4031
 Frc consts  --      3.6189                 3.7280                 4.4248
 IR Inten    --     53.5711               125.4783                40.7040

                     58                     59                     60
                      A                      A                      A
 Frequencies --   1497.2372              1550.4366              1569.1346
 Red. masses --      2.9914                 4.5584                 5.7544
 Frc consts  --      3.9510                 6.4561                 8.3478
 IR Inten    --    124.2485               214.5684               546.7478

                     61                     62                     63
                      A                      A                      A
 Frequencies --   1575.9456              1610.2679              1625.8476
 Red. masses --      3.0066                 6.2735                 5.1427
 Frc consts  --      4.3996                 9.5842                 8.0094
 IR Inten    --     68.4920                58.3000                 3.8360

                     64                     65                     66
                      A                      A                      A
 Frequencies --   1659.2061              2881.1679              3116.9760
 Red. masses --      2.8136                 1.0749                 1.0868
 Frc consts  --      4.5637                 5.2573                 6.2214
 IR Inten    --     45.2753               483.8463                39.9976

                     67                     68                     69
                      A                      A                      A
 Frequencies --   3139.1946              3152.7417              3171.8788
 Red. masses --      1.0866                 1.0908                 1.0919
 Frc consts  --      6.3090                 6.3879                 6.4722
 IR Inten    --     31.1721                40.0398                35.9110

                     70                     71                     72
                      A                      A                      A
 Frequencies --   3196.3635              3199.9015              3807.9757
 Red. masses --      1.0915                 1.0920                 1.0654
 Frc consts  --      6.5706                 6.5879                 9.1020
 IR Inten    --     16.0207                11.5817                18.1381

 - Thermochemistry -
 -------------------
 Temperature   298.150 Kelvin.  Pressure   1.00000 Atm.
 Atom     1 has atomic number  8 and mass  15.99491

 Molecular mass:   240.04226 amu.
 Principal axes and moments of inertia in atomic units:
                           1         2         3
     Eigenvalues --  2302.355025050.091667352.44661
           X            0.98887   0.10624  -0.10412
           Y           -0.11265   0.99196  -0.05771
           Z            0.09715   0.06879   0.99289
 This molecule is an asymmetric top.
 Rotational symmetry number  1.
 Warning -- assumption of classical behavior for rotation
           may cause significant error
 Rotational temperatures (Kelvin)      0.03762     0.01715     0.01178
 Rotational constants (GHZ):           0.78387     0.35737     0.24546
 Zero-point vibrational energy     484847.6 (Joules/Mol)
                                  115.88136 (Kcal/Mol)
 Warning -- explicit consideration of  23 degrees of freedom as
           vibrations may cause significant error
 Vibrational temperatures:     64.69    94.85   155.97   241.97   291.96
          (Kelvin)            298.07   335.52   386.73   429.90   453.27
                              501.11   547.91   593.25   621.01   633.47
                              669.36   697.99   741.96   770.37   772.47
                              827.15   854.70   883.70   932.56  1009.28
                             1017.69  1065.33  1078.07  1117.62  1122.01
                             1165.11  1195.87  1241.34  1259.94  1308.89
                             1379.09  1384.75  1386.55  1406.46  1515.04
                             1543.50  1570.96  1671.10  1688.27  1709.67
                             1710.33  1767.55  1788.03  1832.60  1864.42
                             1900.09  1945.31  1978.42  2029.84  2050.59
                             2105.33  2137.36  2154.19  2230.73  2257.63
                             2267.43  2316.82  2339.23  2387.23  4145.36
                             4484.63  4516.60  4536.09  4563.63  4598.85
                             4603.94  5478.83

 Zero-point correction=                           0.184669 (Hartree/Particle)
 Thermal correction to Energy=                    0.198000
 Thermal correction to Enthalpy=                  0.198944
 Thermal correction to Gibbs Free Energy=         0.144173
 Sum of electronic and zero-point Energies=           -839.336032
 Sum of electronic and thermal Energies=              -839.322700
 Sum of electronic and thermal Enthalpies=            -839.321756
 Sum of electronic and thermal Free Energies=         -839.376528

                     E (Thermal)             CV                S
                      KCal/Mol        Cal/Mol-Kelvin    Cal/Mol-Kelvin
 Total                  124.247             54.379            115.277
 Electronic               0.000              0.000              1.377
 Translational            0.889              2.981             42.328
 Rotational               0.889              2.981             32.813
 Vibrational            122.470             48.418             38.758
 Vibration     1          0.595              1.979              5.028
 Vibration     2          0.597              1.971              4.271
 Vibration     3          0.606              1.943              3.297
 Vibration     4          0.625              1.882              2.456
 Vibration     5          0.639              1.836              2.106
 Vibration     6          0.641              1.830              2.068
 Vibration     7          0.654              1.790              1.854
 Vibration     8          0.673              1.731              1.604
 Vibration     9          0.692              1.676              1.424
 Vibration    10          0.702              1.645              1.336
 Vibration    11          0.726              1.579              1.174
 Vibration    12          0.751              1.511              1.036
 Vibration    13          0.776              1.443              0.918
 Vibration    14          0.793              1.401              0.853
 Vibration    15          0.800              1.382              0.826
 Vibration    16          0.823              1.327              0.751
 Vibration    17          0.841              1.283              0.696
 Vibration    18          0.871              1.215              0.620
 Vibration    19          0.890              1.172              0.575
 Vibration    20          0.892              1.168              0.572
 Vibration    21          0.931              1.086              0.495
 Vibration    22          0.952              1.044              0.460
 Vibration    23          0.974              1.002              0.426

 Optimization completed.
    -- Stationary point found.
 Normal termination of Gaussian 16 at Thu Dec 21 22:26:01 2023.
