 Gaussian 16, Revision A.03,
 Gaussian 16:  ES64L-G16RevA.03 25-Dec-2016

 ----------------------------------------------------------------------
 #P UB3LYP/6-311++G(d,p) nosym opt freq SCRF=(PCM,Solvent=n,n-DiMethylF
 ormamide)
 ----------------------------------------------------------------------

 -------
 Radical
 -------
 Symbolic Z-matrix:
 Charge = -3 Multiplicity = 2

 SCF Done:  E(UB3LYP) =  -1936.02905246     A.U. after   19 cycles
 SCF Done:  E(UB3LYP) =  -1936.03008263     A.U. after   16 cycles
 SCF Done:  E(UB3LYP) =  -1936.03013028     A.U. after   14 cycles
 SCF Done:  E(UB3LYP) =  -1936.03013667     A.U. after   12 cycles
 SCF Done:  E(UB3LYP) =  -1936.03013857     A.U. after   12 cycles
 SCF Done:  E(UB3LYP) =  -1936.03013905     A.U. after   10 cycles
 Optimization completed.
    -- Stationary point found.
 Normal termination of Gaussian 16 at Sat Feb 10 23:52:02 2024.

 ----------------------------------------------------------------------
 #P Geom=AllCheck Guess=TCheck SCRF=Check GenChk UB3LYP/6-311++G(d,p) F
 req
 ----------------------------------------------------------------------

 Structure from the checkpoint file:  "225-rad.chk"
 -------
 Radical
 -------
 Charge = -3 Multiplicity = 2

                          Input orientation:
 ---------------------------------------------------------------------
 Center     Atomic      Atomic             Coordinates (Angstroms)
 Number     Number       Type             X           Y           Z
 ---------------------------------------------------------------------
      1          8           0        5.817869   -1.695670    1.181332
      2         16           0        5.411118   -0.880363   -0.002818
      3          8           0        6.191059    0.388937   -0.112118
      4          8           0        5.395238   -1.664232   -1.270075
      5          6           0        3.701885   -0.378623    0.310217
      6          6           0        3.425092    0.436845    1.431307
      7          6           0        2.127245    0.823596    1.681846
      8          6           0        1.060985    0.421863    0.843156
      9          6           0       -0.298948    0.858845    1.147979
     10          8           0       -0.554320    1.590769    2.143286
     11          6           0       -1.348525    0.402597    0.238415
     12          6           0       -2.686580    0.788687    0.481310
     13          6           0       -3.701890    0.378596   -0.353846
     14          6           0       -3.425097   -0.436872   -1.474936
     15          6           0       -2.127235   -0.823532   -1.725538
     16          6           0       -1.060959   -0.421705   -0.886914
     17          6           0        0.298990   -0.858589   -1.191804
     18          8           0        0.554332   -1.590694   -2.186986
     19          6           0        1.348551   -0.402439   -0.282173
     20          6           0        2.686590   -0.788624   -0.525002
     21         16           0       -5.411145    0.880200   -0.040714
     22          8           0       -5.818060    1.695394   -1.224885
     23          8           0       -6.190965   -0.389163    0.068728
     24          8           0       -5.395239    1.664150    1.226492
     25          1           0        4.228996    0.756434    2.083577
     26          1           0        1.896329    1.450515    2.534340
     27          1           0       -2.900822    1.412263    1.338427
     28          1           0       -4.229012   -0.756530   -2.127158
     29          1           0       -1.896319   -1.450450   -2.578033
     30          1           0        2.900833   -1.412200   -1.382119
 ---------------------------------------------------------------------

 SCF Done:  E(UB3LYP) =  -1936.03013905     A.U. after    1 cycles

 Alpha  occ. eigenvalues --  -89.03765 -89.03765 -19.08304 -19.08304 -19.08209
 Alpha  occ. eigenvalues --  -19.08209 -19.08205 -19.08205 -19.07646 -19.07645
 Alpha  occ. eigenvalues --  -10.22552 -10.22551 -10.19345 -10.19345 -10.17826
 Alpha  occ. eigenvalues --  -10.17826 -10.17646 -10.17644 -10.17573 -10.17572
 Alpha  occ. eigenvalues --  -10.17547 -10.17547 -10.17311 -10.17311  -8.09670
 Alpha  occ. eigenvalues --   -8.09670  -6.05947  -6.05947  -6.05935  -6.05935
 Alpha  occ. eigenvalues --   -6.05831  -6.05831  -1.09962  -1.09962  -1.00182
 Alpha  occ. eigenvalues --   -0.99915  -0.96359  -0.96358  -0.96081  -0.96080
 Alpha  occ. eigenvalues --   -0.86708  -0.85820  -0.79445  -0.75939  -0.75573
 Alpha  occ. eigenvalues --   -0.74939  -0.67654  -0.66400  -0.63094  -0.61455
 Alpha  occ. eigenvalues --   -0.58597  -0.57167  -0.55594  -0.53415  -0.51374
 Alpha  occ. eigenvalues --   -0.48926  -0.47673  -0.47068  -0.46752  -0.44567
 Alpha  occ. eigenvalues --   -0.44534  -0.44530  -0.43863  -0.43121  -0.42877
 Alpha  occ. eigenvalues --   -0.42554  -0.42337  -0.41215  -0.41119  -0.39863
 Alpha  occ. eigenvalues --   -0.38020  -0.37444  -0.37000  -0.35627  -0.34987
 Alpha  occ. eigenvalues --   -0.33855  -0.32674  -0.32631  -0.32618  -0.32614
 Alpha  occ. eigenvalues --   -0.29715  -0.29555  -0.28840  -0.28744  -0.28546
 Alpha  occ. eigenvalues --   -0.28536  -0.26486  -0.25786  -0.25763  -0.24755
 Alpha  occ. eigenvalues --   -0.24739  -0.24666  -0.24427  -0.23819  -0.14515
 Alpha virt. eigenvalues --   -0.05679  -0.03085  -0.00661   0.00124   0.01027
 Alpha virt. eigenvalues --    0.01731   0.02624   0.03005   0.03721   0.04330
 Alpha virt. eigenvalues --    0.04633   0.04667   0.04998   0.05268   0.06204

  Beta  occ. eigenvalues --  -89.03766 -89.03766 -19.08301 -19.08301 -19.08206
  Beta  occ. eigenvalues --  -19.08206 -19.08203 -19.08203 -19.07078 -19.07077
  Beta  occ. eigenvalues --  -10.22389 -10.22388 -10.19296 -10.19296 -10.17769
  Beta  occ. eigenvalues --  -10.17769 -10.17585 -10.17584 -10.17539 -10.17539
  Beta  occ. eigenvalues --  -10.17481 -10.17481 -10.17315 -10.17315  -8.09671
  Beta  occ. eigenvalues --   -8.09671  -6.05947  -6.05947  -6.05935  -6.05935
  Beta  occ. eigenvalues --   -6.05833  -6.05833  -1.09957  -1.09957  -0.99198
  Beta  occ. eigenvalues --   -0.98903  -0.96354  -0.96353  -0.96074  -0.96073
  Beta  occ. eigenvalues --   -0.86449  -0.85706  -0.79044  -0.75703  -0.75451
  Beta  occ. eigenvalues --   -0.74739  -0.66959  -0.66247  -0.62889  -0.61300
  Beta  occ. eigenvalues --   -0.58529  -0.57073  -0.55338  -0.53239  -0.51277
  Beta  occ. eigenvalues --   -0.48823  -0.47469  -0.46994  -0.46581  -0.44527
  Beta  occ. eigenvalues --   -0.44509  -0.44486  -0.43818  -0.43084  -0.42825
  Beta  occ. eigenvalues --   -0.42453  -0.41102  -0.40863  -0.40778  -0.39593
  Beta  occ. eigenvalues --   -0.37141  -0.36819  -0.35664  -0.35584  -0.34044
  Beta  occ. eigenvalues --   -0.33681  -0.32662  -0.32613  -0.32601  -0.32563
  Beta  occ. eigenvalues --   -0.29581  -0.28879  -0.28816  -0.28736  -0.28525
  Beta  occ. eigenvalues --   -0.28487  -0.25735  -0.24864  -0.24738  -0.24732
  Beta  occ. eigenvalues --   -0.24366  -0.24144  -0.23947  -0.23300
  Beta virt. eigenvalues --   -0.08623  -0.04784  -0.02040  -0.00455   0.00142
  Beta virt. eigenvalues --    0.01028   0.01743   0.02643   0.03002   0.04372
  Beta virt. eigenvalues --    0.04486   0.04637   0.04696   0.05007   0.05308

 Mulliken charges and spin densities:
               1          2
     1  O   -0.373313  -0.000300
     2  S    0.795182   0.002140
     3  O   -0.384758  -0.000549
     4  O   -0.431718   0.000427
     5  C   -0.894175   0.023950
     6  C   -0.569719   0.047829
     7  C   -0.157695   0.019527
     8  C    0.480362   0.043695
     9  C   -0.663927   0.091032
    10  O   -0.445515   0.210879
    11  C    0.287337   0.048805
    12  C    0.256277   0.018624
    13  C   -0.894172   0.023950
    14  C   -0.569713   0.047829
    15  C   -0.157685   0.019527
    16  C    0.480361   0.043695
    17  C   -0.663930   0.091032
    18  O   -0.445515   0.210879
    19  C    0.287344   0.048805
    20  C    0.256285   0.018624
    21  S    0.795179   0.002140
    22  O   -0.373313  -0.000301
    23  O   -0.384758  -0.000549
    24  O   -0.431719   0.000427
    25  H    0.221643  -0.003576
    26  H    0.164195  -0.001270
    27  H    0.215811  -0.001212
    28  H    0.221645  -0.003576
    29  H    0.164195  -0.001270
    30  H    0.215810  -0.001212
 Sum of Mulliken charges =  -3.00000   1.00000

 Dipole moment (field-independent basis, Debye):
    X=              0.0002    Y=              0.0010    Z=              0.3137  Tot=              0.3137
 Quadrupole moment (field-independent basis, Debye-Ang):
   XX=           -539.3174   YY=           -197.8645   ZZ=           -193.4748
   XY=             66.8891   XZ=             10.2408   YZ=            -12.1600

  Exact polarizability: 612.398 -37.017 276.565  44.561  95.716 353.405
 Approx polarizability: 580.317 -28.254 328.080  41.016 120.593 424.400

                      1                      2                      3
                      A                      A                      A
 Frequencies --     24.6897                30.5016                30.7082
 Red. masses --     15.0082                12.0269                15.5543
 Frc consts  --      0.0054                 0.0066                 0.0086
 IR Inten    --      2.3084                 0.0004                 1.4223

                      4                      5                      6
                      A                      A                      A
 Frequencies --     69.9974                71.7920                78.0254
 Red. masses --     10.2459                 6.4879                13.2486
 Frc consts  --      0.0296                 0.0197                 0.0475
 IR Inten    --      0.0000                24.3244                 9.7927

                      7                      8                      9
                      A                      A                      A
 Frequencies --    122.5872               134.2899               150.1103
 Red. masses --     12.0364                 5.6881                 5.9924
 Frc consts  --      0.1066                 0.0604                 0.0796
 IR Inten    --      0.0000                 4.8577                 0.0000

                     10                     11                     12
                      A                      A                      A
 Frequencies --    172.1807               181.3712               226.2984
 Red. masses --     11.6116                15.3790                 8.2043
 Frc consts  --      0.2028                 0.2981                 0.2475
 IR Inten    --      2.5647                 0.0000                 0.0000

                     13                     14                     15
                      A                      A                      A
 Frequencies --    227.8776               257.5375               271.2865
 Red. masses --      9.7545                14.0137                13.2499
 Frc consts  --      0.2984                 0.5476                 0.5745
 IR Inten    --      8.1416                 7.2126                 0.0000

                     16                     17                     18
                      A                      A                      A
 Frequencies --    326.3187               333.8758               376.7787
 Red. masses --      7.9641                 6.8273                 7.4223
 Frc consts  --      0.4997                 0.4484                 0.6208
 IR Inten    --      1.2756                 0.0000                31.2081

                     19                     20                     21
                      A                      A                      A
 Frequencies --    378.6947               398.5712               410.4254
 Red. masses --      7.7218                10.8519                 7.3035
 Frc consts  --      0.6525                 1.0157                 0.7249
 IR Inten    --      0.0000                70.6712                 0.0000

                     22                     23                     24
                      A                      A                      A
 Frequencies --    417.2345               451.3972               465.3533
 Red. masses --      3.4332                 6.9358                 3.8152
 Frc consts  --      0.3521                 0.8327                 0.4868
 IR Inten    --      0.8621                 0.0000                 0.0000

                     25                     26                     27
                      A                      A                      A
 Frequencies --    475.7312               485.3896               505.2518
 Red. masses --     10.6856                10.6994                12.2411
 Frc consts  --      1.4249                 1.4852                 1.8411
 IR Inten    --      0.0000                52.0856                 0.0000

                     28                     29                     30
                      A                      A                      A
 Frequencies --    513.5695               523.8413               525.9096
 Red. masses --     15.0545                12.0430                10.7876
 Frc consts  --      2.3395                 1.9471                 1.7579
 IR Inten    --     67.8397                 0.0000                 0.0000

                     31                     32                     33
                      A                      A                      A
 Frequencies --    577.2806               589.1037               617.5486
 Red. masses --      5.1090                14.4640                12.4449
 Frc consts  --      1.0031                 2.9575                 2.7963
 IR Inten    --    112.3563               793.3373                 0.0000

                     34                     35                     36
                      A                      A                      A
 Frequencies --    647.9563               653.8098               682.1272
 Red. masses --      7.3795                 4.7649                 7.8012
 Frc consts  --      1.8254                 1.2001                 2.1387
 IR Inten    --     33.5419                 0.0000               138.6438

                     37                     38                     39
                      A                      A                      A
 Frequencies --    698.0772               718.2074               726.5793
 Red. masses --      6.8235                 4.6171                 5.0608
 Frc consts  --      1.9591                 1.4032                 1.5741
 IR Inten    --      0.0000                43.6731                 8.9306

                     40                     41                     42
                      A                      A                      A
 Frequencies --    727.5727               788.8046               827.4308
 Red. masses --      8.4229                 2.5626                 1.6016
 Frc consts  --      2.6270                 0.9394                 0.6460
 IR Inten    --      0.0000                 0.0000                45.7235

                     43                     44                     45
                      A                      A                      A
 Frequencies --    828.6095               843.5322               936.1825
 Red. masses --      2.0905                 7.3176                 1.3611
 Frc consts  --      0.8457                 3.0678                 0.7028
 IR Inten    --      0.0000                 8.2797                 0.0036

                     46                     47                     48
                      A                      A                      A
 Frequencies --    936.8458               946.5028               948.8583
 Red. masses --      1.3547                11.3804                 6.7974
 Frc consts  --      0.7005                 6.0069                 3.6057
 IR Inten    --     21.4989                 0.0000                79.8618

                     49                     50                     51
                      A                      A                      A
 Frequencies --    974.7643               980.1686               982.4564
 Red. masses --      7.8347                 1.3277                 1.3515
 Frc consts  --      4.3860                 0.7515                 0.7686
 IR Inten    --    970.1119                 0.0000                 8.4492

                     52                     53                     54
                      A                      A                      A
 Frequencies --    994.0901              1068.8117              1079.9505
 Red. masses --      6.9777                 2.1041                 2.1190
 Frc consts  --      4.0627                 1.4162                 1.4561
 IR Inten    --      0.0000               375.9190                 0.0000

                     55                     56                     57
                      A                      A                      A
 Frequencies --   1101.7165              1101.8227              1116.7402
 Red. masses --     20.2548                20.2911                 7.4844
 Frc consts  --     14.4850                14.5138                 5.4994
 IR Inten    --      0.0851              1182.6108                 0.0014

                     58                     59                     60
                      A                      A                      A
 Frequencies --   1116.8468              1129.9087              1135.0530
 Red. masses --      7.9388                 2.3901                 1.8286
 Frc consts  --      5.8343                 1.7978                 1.3881
 IR Inten    --   1072.8398                89.2526                 0.0000

                     61                     62                     63
                      A                      A                      A
 Frequencies --   1177.6007              1183.8329              1211.1774
 Red. masses --      3.4096                 5.0636                 1.5856
 Frc consts  --      2.7858                 4.1811                 1.3705
 IR Inten    --     80.7726                 0.0000                 0.0000

                     64                     65                     66
                      A                      A                      A
 Frequencies --   1214.1353              1251.3876              1307.1535
 Red. masses --      2.5100                 1.9190                 2.0710
 Frc consts  --      2.1800                 1.7705                 2.0849
 IR Inten    --     44.8388               226.5035                 0.0000

                     67                     68                     69
                      A                      A                      A
 Frequencies --   1364.0609              1365.1583              1378.5738
 Red. masses --     11.3180                 9.4274                 3.7326
 Frc consts  --     12.4075                10.3517                 4.1795
 IR Inten    --     61.0200                 0.0000               728.0786

                     70                     71                     72
                      A                      A                      A
 Frequencies --   1452.8365              1455.4017              1488.1179
 Red. masses --      5.2065                 2.7881                 3.2444
 Frc consts  --      6.4748                 3.4796                 4.2330
 IR Inten    --      0.0000               560.9891                 0.0000

                     73                     74                     75
                      A                      A                      A
 Frequencies --   1490.2142              1519.9105              1546.5314
 Red. masses --      5.9180                 7.7664                 6.2079
 Frc consts  --      7.7433                10.5708                 8.7480
 IR Inten    --   1306.3354                 0.0000               170.8074

                     76                     77                     78
                      A                      A                      A
 Frequencies --   1603.8306              1614.8642              1623.3445
 Red. masses --      9.3880                 6.2933                 6.9853
 Frc consts  --     14.2279                 9.6694                10.8457
 IR Inten    --      0.0000                 0.0000                12.1232

                     79                     80                     81
                      A                      A                      A
 Frequencies --   3180.4054              3180.5482              3195.5892
 Red. masses --      1.0869                 1.0870                 1.0943
 Frc consts  --      6.4772                 6.4785                 6.5838
 IR Inten    --      2.5513                 0.0000                35.6512

                     82                     83                     84
                      A                      A                      A
 Frequencies --   3195.7363              3212.8307              3212.9491
 Red. masses --      1.0942                 1.0895                 1.0895
 Frc consts  --      6.5841                 6.6257                 6.6264
 IR Inten    --      0.0001                 9.1640                 0.0002

 - Thermochemistry -
 -------------------
 Temperature   298.150 Kelvin.  Pressure   1.00000 Atm.
 Atom     1 has atomic number  8 and mass  15.99491

 Molecular mass:   365.95041 amu.
 Principal axes and moments of inertia in atomic units:
                           1         2         3
     Eigenvalues --  2540.89365********************
           X            0.98906   0.06018   0.13465
           Y           -0.14510   0.56069   0.81521
           Z            0.02643   0.82583  -0.56329
 This molecule is an asymmetric top.
 Rotational symmetry number  1.
 Warning -- assumption of classical behavior for rotation
           may cause significant error
 Rotational temperatures (Kelvin)      0.03409     0.00380     0.00352
 Rotational constants (GHZ):           0.71028     0.07923     0.07332
 Zero-point vibrational energy     475761.7 (Joules/Mol)
                                  113.70978 (Kcal/Mol)
 Warning -- explicit consideration of  33 degrees of freedom as
           vibrations may cause significant error
 Vibrational temperatures:     35.52    43.88    44.18   100.71   103.29
          (Kelvin)            112.26   176.38   193.21   215.98   247.73
                              260.95   325.59   327.87   370.54   390.32
                              469.50   480.37   542.10   544.86   573.46
                              590.51   600.31   649.46   669.54   684.47
                              698.37   726.94   738.91   753.69   756.67
                              830.58   847.59   888.51   932.26   940.69
                              981.43  1004.38  1033.34  1045.39  1046.81
                             1134.91  1190.49  1192.18  1213.65  1346.96
                             1347.91  1361.81  1365.20  1402.47  1410.24
                             1413.54  1430.27  1537.78  1553.81  1585.12
                             1585.28  1606.74  1606.89  1625.69  1633.09
                             1694.30  1703.27  1742.61  1746.87  1800.47
                             1880.70  1962.58  1964.16  1983.46  2090.31
                             2094.00  2141.07  2144.09  2186.81  2225.11
                             2307.55  2323.43  2335.63  4575.89  4576.10
                             4597.74  4597.95  4622.55  4622.72

 Zero-point correction=                           0.181208 (Hartree/Particle)
 Thermal correction to Energy=                    0.200677
 Thermal correction to Enthalpy=                  0.201621
 Thermal correction to Gibbs Free Energy=         0.130393
 Sum of electronic and zero-point Energies=          -1935.848931
 Sum of electronic and thermal Energies=             -1935.829462
 Sum of electronic and thermal Enthalpies=           -1935.828518
 Sum of electronic and thermal Free Energies=        -1935.899746

                     E (Thermal)             CV                S
                      KCal/Mol        Cal/Mol-Kelvin    Cal/Mol-Kelvin
 Total                  125.926             74.296            149.912
 Electronic               0.000              0.000              1.377
 Translational            0.889              2.981             43.585
 Rotational               0.889              2.981             35.609
 Vibrational            124.149             68.335             69.341
 Vibration     1          0.593              1.985              6.216
 Vibration     2          0.594              1.984              5.797
 Vibration     3          0.594              1.984              5.783
 Vibration     4          0.598              1.968              4.153
 Vibration     5          0.598              1.967              4.104
 Vibration     6          0.599              1.964              3.940
 Vibration     7          0.610              1.930              3.059
 Vibration     8          0.613              1.919              2.884
 Vibration     9          0.618              1.903              2.671
 Vibration    10          0.626              1.877              2.412
 Vibration    11          0.630              1.865              2.314
 Vibration    12          0.650              1.801              1.908
 Vibration    13          0.651              1.799              1.896
 Vibration    14          0.667              1.750              1.678
 Vibration    15          0.675              1.726              1.588
 Vibration    16          0.710              1.623              1.278
 Vibration    17          0.715              1.608              1.241
 Vibration    18          0.747              1.520              1.052
 Vibration    19          0.749              1.516              1.044
 Vibration    20          0.765              1.473              0.968
 Vibration    21          0.775              1.448              0.925
 Vibration    22          0.780              1.433              0.901
 Vibration    23          0.810              1.358              0.792
 Vibration    24          0.823              1.327              0.751
 Vibration    25          0.832              1.304              0.722
 Vibration    26          0.841              1.282              0.696
 Vibration    27          0.861              1.238              0.645
 Vibration    28          0.869              1.220              0.625
 Vibration    29          0.879              1.197              0.601
 Vibration    30          0.881              1.193              0.596
 Vibration    31          0.934              1.080              0.490
 Vibration    32          0.946              1.055              0.469
 Vibration    33          0.977              0.995              0.420

 Optimization completed.
    -- Stationary point found.
 Normal termination of Gaussian 16 at Sun Feb 11 01:06:29 2024.
