 Gaussian 16, Revision A.03,
 Gaussian 16:  ES64L-G16RevA.03 25-Dec-2016

 ----------------------------------------------------------------------
 #P UB3LYP/6-311++G(d,p) nosym opt freq SCRF=(PCM,Solvent=n,n-DiMethylF
 ormamide)
 ----------------------------------------------------------------------

 --------
 Oxidized
 --------
 Symbolic Z-matrix:
 Charge =  0 Multiplicity = 1

 SCF Done:  E(UB3LYP) =  -766.832199123     A.U. after   15 cycles
 SCF Done:  E(UB3LYP) =  -766.832330423     A.U. after   12 cycles
 SCF Done:  E(UB3LYP) =  -766.832242253     A.U. after   13 cycles
 SCF Done:  E(UB3LYP) =  -766.832411036     A.U. after   11 cycles
 SCF Done:  E(UB3LYP) =  -766.832430910     A.U. after   10 cycles
 SCF Done:  E(UB3LYP) =  -766.832435507     A.U. after   11 cycles
 SCF Done:  E(UB3LYP) =  -766.832437687     A.U. after   10 cycles
 SCF Done:  E(UB3LYP) =  -766.832438034     A.U. after    9 cycles
 SCF Done:  E(UB3LYP) =  -766.832438488     A.U. after    8 cycles
 SCF Done:  E(UB3LYP) =  -766.832438770     A.U. after    9 cycles
 SCF Done:  E(UB3LYP) =  -766.832536986     A.U. after   10 cycles
 SCF Done:  E(UB3LYP) =  -766.832537104     A.U. after    8 cycles
 SCF Done:  E(UB3LYP) =  -766.832537752     A.U. after   10 cycles
 SCF Done:  E(UB3LYP) =  -766.832538218     A.U. after    9 cycles
 SCF Done:  E(UB3LYP) =  -766.832539528     A.U. after   10 cycles
 SCF Done:  E(UB3LYP) =  -766.832540234     A.U. after   10 cycles
 SCF Done:  E(UB3LYP) =  -766.832540449     A.U. after   10 cycles
 SCF Done:  E(UB3LYP) =  -766.832540455     A.U. after    8 cycles
 SCF Done:  E(UB3LYP) =  -766.832540482     A.U. after    8 cycles
 Optimization completed.
    -- Stationary point found.
 Normal termination of Gaussian 16 at Sat Feb 10 16:16:19 2024.

 ----------------------------------------------------------------------
 #P Geom=AllCheck Guess=TCheck SCRF=Check GenChk UB3LYP/6-311++G(d,p) F
 req
 ----------------------------------------------------------------------

 Structure from the checkpoint file:  "042.chk"
 --------
 Oxidized
 --------
 Charge =  0 Multiplicity = 1

                          Input orientation:
 ---------------------------------------------------------------------
 Center     Atomic      Atomic             Coordinates (Angstroms)
 Number     Number       Type             X           Y           Z
 ---------------------------------------------------------------------
      1          6           0        1.161277    1.344755   -1.374969
      2          6           0       -0.154576    0.678747   -1.493060
      3          6           0       -0.513865   -0.353060   -0.718071
      4          6           0        0.455389   -0.850170    0.308664
      5          6           0        1.771906   -0.158155    0.468080
      6          6           0        2.120530    0.875776   -0.334301
      7          6           0        3.436996    1.599352   -0.243446
      8          6           0        2.653672   -0.709171    1.550122
      9          8           0        1.432949    2.272256   -2.129608
     10          8           0        0.184249   -1.814343    1.010446
     11          1           0       -0.812930    1.081202   -2.255719
     12          1           0        4.275310    0.908681   -0.364174
     13          1           0        3.550547    2.086311    0.729220
     14          1           0        3.503399    2.362090   -1.016807
     15          1           0        2.113387   -0.748317    2.499321
     16          1           0        3.554791   -0.114978    1.683150
     17          1           0        2.946428   -1.737590    1.316994
     18          6           0       -1.858760   -1.021385   -0.897606
     19          6           0       -1.793488   -2.487501   -1.317669
     20          8           0       -2.571331   -0.890628    0.370907
     21          6           0       -3.903782   -0.680813    0.329918
     22          6           0       -4.473378   -0.566891    1.717612
     23          8           0       -4.539884   -0.600270   -0.698820
     24          1           0       -2.417302   -0.456492   -1.643388
     25          1           0       -2.803415   -2.866172   -1.485894
     26          1           0       -1.302514   -3.091593   -0.556325
     27          1           0       -1.237293   -2.575246   -2.254243
     28          1           0       -3.974952    0.239027    2.260219
     29          1           0       -4.294089   -1.494076    2.266598
     30          1           0       -5.542220   -0.372447    1.662302
 ---------------------------------------------------------------------

 SCF Done:  E(UB3LYP) =  -766.832540482     A.U. after    1 cycles

 Alpha  occ. eigenvalues --  -19.17808 -19.14210 -19.14143 -19.12576 -10.31770
 Alpha  occ. eigenvalues --  -10.28809 -10.28633 -10.25557 -10.22287 -10.21540
 Alpha  occ. eigenvalues --  -10.21454 -10.21214 -10.18236 -10.17616 -10.17473
 Alpha  occ. eigenvalues --  -10.17155  -1.11956  -1.07329  -1.07035  -1.03458
 Alpha  occ. eigenvalues --   -0.87418  -0.83668  -0.78699  -0.75342  -0.74733
 Alpha  occ. eigenvalues --   -0.70019  -0.69387  -0.65491  -0.60571  -0.60061
 Alpha  occ. eigenvalues --   -0.56818  -0.53319  -0.51298  -0.50427  -0.48841
 Alpha  occ. eigenvalues --   -0.48650  -0.47054  -0.46684  -0.45355  -0.44219
 Alpha  occ. eigenvalues --   -0.43532  -0.43118  -0.42445  -0.42112  -0.41358
 Alpha  occ. eigenvalues --   -0.41259  -0.40876  -0.40225  -0.39505  -0.38614
 Alpha  occ. eigenvalues --   -0.38086  -0.37711  -0.36104  -0.32237  -0.31090
 Alpha  occ. eigenvalues --   -0.29663  -0.29138  -0.27956  -0.27754
 Alpha virt. eigenvalues --   -0.13506  -0.03064  -0.01115  -0.01018  -0.00619
 Alpha virt. eigenvalues --   -0.00072   0.00856   0.01218   0.02145   0.02573
 Alpha virt. eigenvalues --    0.03029   0.03525   0.04270   0.04346   0.04870

  Beta  occ. eigenvalues --  -19.17808 -19.14210 -19.14143 -19.12576 -10.31770
  Beta  occ. eigenvalues --  -10.28809 -10.28633 -10.25557 -10.22287 -10.21540
  Beta  occ. eigenvalues --  -10.21454 -10.21214 -10.18236 -10.17616 -10.17473
  Beta  occ. eigenvalues --  -10.17155  -1.11956  -1.07329  -1.07035  -1.03458
  Beta  occ. eigenvalues --   -0.87418  -0.83668  -0.78699  -0.75342  -0.74733
  Beta  occ. eigenvalues --   -0.70019  -0.69387  -0.65491  -0.60571  -0.60061
  Beta  occ. eigenvalues --   -0.56818  -0.53319  -0.51298  -0.50427  -0.48841
  Beta  occ. eigenvalues --   -0.48650  -0.47054  -0.46684  -0.45355  -0.44219
  Beta  occ. eigenvalues --   -0.43532  -0.43118  -0.42445  -0.42112  -0.41358
  Beta  occ. eigenvalues --   -0.41259  -0.40876  -0.40225  -0.39505  -0.38614
  Beta  occ. eigenvalues --   -0.38086  -0.37711  -0.36104  -0.32237  -0.31090
  Beta  occ. eigenvalues --   -0.29663  -0.29138  -0.27956  -0.27754
  Beta virt. eigenvalues --   -0.13506  -0.03064  -0.01115  -0.01018  -0.00619
  Beta virt. eigenvalues --   -0.00072   0.00856   0.01218   0.02145   0.02573
  Beta virt. eigenvalues --    0.03029   0.03525   0.04270   0.04346   0.04870

 Mulliken charges and spin densities:
               1          2
     1  C   -0.857000   0.000000
     2  C   -0.188309  -0.000000
     3  C    1.137327   0.000000
     4  C   -0.341920  -0.000000
     5  C    0.250104  -0.000000
     6  C    0.411957   0.000000
     7  C   -0.484620   0.000000
     8  C   -0.486780  -0.000000
     9  O   -0.276369   0.000000
    10  O   -0.242775   0.000000
    11  H    0.237516   0.000000
    12  H    0.183146   0.000000
    13  H    0.185024   0.000000
    14  H    0.191610   0.000000
    15  H    0.186729  -0.000000
    16  H    0.179381  -0.000000
    17  H    0.196739   0.000000
    18  C   -0.527322  -0.000000
    19  C   -0.589122   0.000000
    20  O    0.119065   0.000000
    21  C    0.296096  -0.000000
    22  C   -0.560777  -0.000000
    23  O   -0.337498   0.000000
    24  H    0.231694   0.000000
    25  H    0.177251   0.000000
    26  H    0.200898   0.000000
    27  H    0.156639   0.000000
    28  H    0.186646  -0.000000
    29  H    0.188794   0.000000
    30  H    0.175877   0.000000
 Sum of Mulliken charges =  -0.00000  -0.00000

 Dipole moment (field-independent basis, Debye):
    X=              2.7190    Y=             -0.6484    Z=              2.3256  Tot=              3.6362
 Quadrupole moment (field-independent basis, Debye-Ang):
   XX=            -96.2432   YY=           -102.6577   ZZ=            -96.6290
   XY=             -2.4940   XZ=             -4.0974   YZ=             10.2092

  Exact polarizability: 209.362  31.921 213.750  -2.849 -54.691 200.769
 Approx polarizability: 213.287  38.689 268.953  -9.511 -87.336 242.773

                      1                      2                      3
                      A                      A                      A
 Frequencies --     28.2473                30.9137                33.3248
 Red. masses --      1.5062                 7.0296                 2.1708
 Frc consts  --      0.0007                 0.0040                 0.0014
 IR Inten    --      1.7143                 1.3963                 2.7654

                      4                      5                      6
                      A                      A                      A
 Frequencies --     45.8701                54.1387                69.5009
 Red. masses --      1.1927                 3.0848                 1.2003
 Frc consts  --      0.0015                 0.0053                 0.0034
 IR Inten    --      0.7262                 3.3028                 0.1056

                      7                      8                      9
                      A                      A                      A
 Frequencies --     90.7743               114.6574               120.2519
 Red. masses --      3.8635                 2.7369                 3.5210
 Frc consts  --      0.0188                 0.0212                 0.0300
 IR Inten    --      8.9848                 0.9582                 9.8315

                     10                     11                     12
                      A                      A                      A
 Frequencies --    159.8046               202.7057               216.9087
 Red. masses --      3.4130                 2.4599                 4.2558
 Frc consts  --      0.0514                 0.0596                 0.1180
 IR Inten    --      2.4471                 7.3375                 0.9284

                     13                     14                     15
                      A                      A                      A
 Frequencies --    225.8744               255.8839               270.4194
 Red. masses --      1.4633                 3.3506                 4.4873
 Frc consts  --      0.0440                 0.1293                 0.1933
 IR Inten    --      2.3562                 0.3828                 0.6881

                     16                     17                     18
                      A                      A                      A
 Frequencies --    329.5512               333.2854               362.1380
 Red. masses --      2.6703                 3.9830                 3.6681
 Frc consts  --      0.1709                 0.2607                 0.2834
 IR Inten    --      0.3089                 1.7468                 6.0028

                     19                     20                     21
                      A                      A                      A
 Frequencies --    411.5167               458.0331               462.0322
 Red. masses --      8.9893                 4.8530                 5.3711
 Frc consts  --      0.8969                 0.5999                 0.6755
 IR Inten    --     41.8991                10.4459                 1.1310

                     22                     23                     24
                      A                      A                      A
 Frequencies --    472.0590               489.1822               526.6966
 Red. masses --      5.3124                 3.6116                 3.4559
 Frc consts  --      0.6975                 0.5092                 0.5648
 IR Inten    --     10.4405                 0.6461                 0.4680

                     25                     26                     27
                      A                      A                      A
 Frequencies --    566.8356               612.2869               639.7087
 Red. masses --      5.3479                 2.7714                 4.6368
 Frc consts  --      1.0124                 0.6122                 1.1180
 IR Inten    --     19.7026                 9.8101                 8.2821

                     28                     29                     30
                      A                      A                      A
 Frequencies --    668.2909               717.5528               731.5541
 Red. masses --      4.0536                 4.8415                 4.2975
 Frc consts  --      1.0667                 1.4687                 1.3551
 IR Inten    --      1.2664                17.1195                25.6652

                     31                     32                     33
                      A                      A                      A
 Frequencies --    804.6244               815.5873               865.7219
 Red. masses --      5.9944                 2.9515                 2.3960
 Frc consts  --      2.2866                 1.1567                 1.0580
 IR Inten    --      7.3529                11.8643                25.1212

                     34                     35                     36
                      A                      A                      A
 Frequencies --    900.7690               925.3836               957.8995
 Red. masses --      3.0694                 1.5207                 4.1264
 Frc consts  --      1.4673                 0.7672                 2.2308
 IR Inten    --     33.8938                35.4671                56.3284

                     37                     38                     39
                      A                      A                      A
 Frequencies --    975.9661              1024.1272              1026.4187
 Red. masses --      1.9136                 1.7058                 1.5002
 Frc consts  --      1.0739                 1.0541                 0.9312
 IR Inten    --     13.2509                35.7727                 3.9516

                     40                     41                     42
                      A                      A                      A
 Frequencies --   1045.3195              1056.9463              1063.1495
 Red. masses --      2.8739                 1.5860                 1.7994
 Frc consts  --      1.8502                 1.0439                 1.1983
 IR Inten    --    242.6582                 0.7141                11.9282

                     43                     44                     45
                      A                      A                      A
 Frequencies --   1085.3237              1104.0958              1120.3344
 Red. masses --      1.8879                 2.6212                 2.3014
 Frc consts  --      1.3103                 1.8826                 1.7019
 IR Inten    --     37.0820                84.8906                37.6011

                     46                     47                     48
                      A                      A                      A
 Frequencies --   1135.5245              1219.1593              1244.8028
 Red. masses --      2.4320                 1.8458                 3.6810
 Frc consts  --      1.8476                 1.6164                 3.3606
 IR Inten    --     65.1809                70.2208               667.2832

                     49                     50                     51
                      A                      A                      A
 Frequencies --   1265.6869              1320.2947              1353.5766
 Red. masses --      4.5755                 3.5234                 2.5773
 Frc consts  --      4.3186                 3.6187                 2.7821
 IR Inten    --     66.9731               132.7176                46.5281

                     52                     53                     54
                      A                      A                      A
 Frequencies --   1375.3461              1388.7004              1397.1237
 Red. masses --      1.1902                 1.4403                 1.3417
 Frc consts  --      1.3265                 1.6366                 1.5430
 IR Inten    --      4.8185                 9.4933                46.9576

                     55                     56                     57
                      A                      A                      A
 Frequencies --   1398.0651              1400.7370              1407.8686
 Red. masses --      1.2530                 1.3492                 1.2885
 Frc consts  --      1.4429                 1.5597                 1.5047
 IR Inten    --     29.0997                20.0346                30.9949

                     58                     59                     60
                      A                      A                      A
 Frequencies --   1459.0681              1461.8175              1464.2065
 Red. masses --      1.0559                 1.0952                 1.0443
 Frc consts  --      1.3244                 1.3788                 1.3191
 IR Inten    --     31.3574                 4.4141                15.0978

                     61                     62                     63
                      A                      A                      A
 Frequencies --   1465.1382              1479.6595              1484.0005
 Red. masses --      1.0521                 1.0437                 1.0653
 Frc consts  --      1.3306                 1.3463                 1.3823
 IR Inten    --     24.7595                13.2976                37.1376

                     64                     65                     66
                      A                      A                      A
 Frequencies --   1489.5246              1489.8758              1652.8611
 Red. masses --      1.0424                 1.0585                 8.1636
 Frc consts  --      1.3626                 1.3843                13.1402
 IR Inten    --      6.2563                 5.8229                76.1952

                     67                     68                     69
                      A                      A                      A
 Frequencies --   1677.2503              1686.9369              1712.1510
 Red. masses --     11.8442                11.7755                 8.5832
 Frc consts  --     19.6315                19.7436                14.8247
 IR Inten    --    673.1749               487.0591                 2.3803

                     70                     71                     72
                      A                      A                      A
 Frequencies --   1745.0363              3037.1038              3038.2801
 Red. masses --     10.8377                 1.0397                 1.0416
 Frc consts  --     19.4445                 5.6505                 5.6651
 IR Inten    --    558.4669                13.0447                11.7846

                     73                     74                     75
                      A                      A                      A
 Frequencies --   3045.2744              3052.2954              3084.3679
 Red. masses --      1.0364                 1.0365                 1.0974
 Frc consts  --      5.6628                 5.6896                 6.1511
 IR Inten    --     18.3960                 1.4960                22.1441

                     76                     77                     78
                      A                      A                      A
 Frequencies --   3087.6961              3098.5640              3109.0254
 Red. masses --      1.0997                 1.0858                 1.1016
 Frc consts  --      6.1772                 6.1422                 6.2739
 IR Inten    --      4.7036                 6.1652                29.5021

                     79                     80                     81
                      A                      A                      A
 Frequencies --   3113.9399              3139.5493              3143.2063
 Red. masses --      1.1002                 1.0979                 1.1015
 Frc consts  --      6.2855                 6.3762                 6.4119
 IR Inten    --      4.7612                11.7085                11.0274

                     82                     83                     84
                      A                      A                      A
 Frequencies --   3148.7310              3156.1070              3178.3114
 Red. masses --      1.0984                 1.1035                 1.0927
 Frc consts  --      6.4162                 6.4763                 6.5032
 IR Inten    --     12.6467                11.8054                 5.3668

 - Thermochemistry -
 -------------------
 Temperature   298.150 Kelvin.  Pressure   1.00000 Atm.
 Atom     1 has atomic number  6 and mass  12.00000

 Molecular mass:   222.08921 amu.
 Principal axes and moments of inertia in atomic units:
                           1         2         3
     Eigenvalues --  1917.632226033.273246830.66820
           X            0.95122   0.25598  -0.17221
           Y            0.29809  -0.61864   0.72693
           Z           -0.07954   0.74280   0.66477
 This molecule is an asymmetric top.
 Rotational symmetry number  1.
 Warning -- assumption of classical behavior for rotation
           may cause significant error
 Rotational temperatures (Kelvin)      0.04517     0.01436     0.01268
 Rotational constants (GHZ):           0.94113     0.29913     0.26421
 Zero-point vibrational energy     622527.9 (Joules/Mol)
                                  148.78773 (Kcal/Mol)
 Warning -- explicit consideration of  26 degrees of freedom as
           vibrations may cause significant error
 Vibrational temperatures:     40.64    44.48    47.95    66.00    77.89
          (Kelvin)            100.00   130.60   164.97   173.02   229.92
                              291.65   312.08   324.98   368.16   389.07
                              474.15   479.52   521.04   592.08   659.01
                              664.76   679.19   703.82   757.80   815.55
                              880.94   920.40   961.52  1032.40  1052.54
                             1157.67  1173.45  1245.58  1296.01  1331.42
                             1378.20  1404.20  1473.49  1476.79  1503.98
                             1520.71  1529.64  1561.54  1588.55  1611.91
                             1633.77  1754.10  1790.99  1821.04  1899.61
                             1947.49  1978.82  1998.03  2010.15  2011.50
                             2015.35  2025.61  2099.27  2103.23  2106.67
                             2108.01  2128.90  2135.15  2143.09  2143.60
                             2378.10  2413.19  2427.13  2463.40  2510.72
                             4369.72  4371.41  4381.47  4391.57  4437.72
                             4442.51  4458.14  4473.19  4480.26  4517.11
                             4522.37  4530.32  4540.93  4572.88

 Zero-point correction=                           0.237108 (Hartree/Particle)
 Thermal correction to Energy=                    0.254586
 Thermal correction to Enthalpy=                  0.255530
 Thermal correction to Gibbs Free Energy=         0.188950
 Sum of electronic and zero-point Energies=           -766.595432
 Sum of electronic and thermal Energies=              -766.577954
 Sum of electronic and thermal Enthalpies=            -766.577010
 Sum of electronic and thermal Free Energies=         -766.643591

                     E (Thermal)             CV                S
                      KCal/Mol        Cal/Mol-Kelvin    Cal/Mol-Kelvin
 Total                  159.755             61.326            140.131
 Electronic               0.000              0.000              0.000
 Translational            0.889              2.981             42.096
 Rotational               0.889              2.981             32.735
 Vibrational            157.978             55.364             65.299
 Vibration     1          0.593              1.984              5.949
 Vibration     2          0.594              1.984              5.770
 Vibration     3          0.594              1.983              5.621
 Vibration     4          0.595              1.979              4.988
 Vibration     5          0.596              1.976              4.660
 Vibration     6          0.598              1.969              4.167
 Vibration     7          0.602              1.956              3.643
 Vibration     8          0.608              1.937              3.188
 Vibration     9          0.609              1.932              3.096
 Vibration    10          0.622              1.892              2.552
 Vibration    11          0.639              1.836              2.108
 Vibration    12          0.646              1.815              1.985
 Vibration    13          0.650              1.802              1.911
 Vibration    14          0.666              1.753              1.690
 Vibration    15          0.674              1.728              1.594
 Vibration    16          0.712              1.616              1.262
 Vibration    17          0.715              1.609              1.244
 Vibration    18          0.736              1.550              1.113
 Vibration    19          0.775              1.445              0.921
 Vibration    20          0.816              1.343              0.772
 Vibration    21          0.820              1.334              0.760
 Vibration    22          0.829              1.312              0.732
 Vibration    23          0.845              1.274              0.686
 Vibration    24          0.882              1.191              0.595
 Vibration    25          0.923              1.103              0.510
 Vibration    26          0.972              1.006              0.429

 Optimization completed.
    -- Stationary point found.
 Normal termination of Gaussian 16 at Sat Feb 10 17:15:49 2024.
