 Gaussian 16, Revision A.03,
 Gaussian 16:  ES64L-G16RevA.03 25-Dec-2016

 ----------------------------------------------------------------------
 #P UB3LYP/6-311++G(d,p) nosym opt freq SCRF=(PCM,Solvent=n,n-DiMethylF
 ormamide)
 ----------------------------------------------------------------------

 --------
 Oxidized
 --------
 Symbolic Z-matrix:
 Charge =  0 Multiplicity = 1

 SCF Done:  E(UB3LYP) =  -535.469870258     A.U. after   14 cycles
 SCF Done:  E(UB3LYP) =  -535.469973327     A.U. after   12 cycles
 SCF Done:  E(UB3LYP) =  -535.469952036     A.U. after   12 cycles
 SCF Done:  E(UB3LYP) =  -535.469959747     A.U. after   12 cycles
 SCF Done:  E(UB3LYP) =  -535.469991412     A.U. after   11 cycles
 SCF Done:  E(UB3LYP) =  -535.469993451     A.U. after   10 cycles
 SCF Done:  E(UB3LYP) =  -535.469993423     A.U. after    9 cycles
 SCF Done:  E(UB3LYP) =  -535.469993871     A.U. after    9 cycles
 Optimization completed.
    -- Stationary point found.
 Normal termination of Gaussian 16 at Sat Feb 10 10:39:14 2024.

 ----------------------------------------------------------------------
 #P Geom=AllCheck Guess=TCheck SCRF=Check GenChk UB3LYP/6-311++G(d,p) F
 req
 ----------------------------------------------------------------------

 Structure from the checkpoint file:  "095.chk"
 --------
 Oxidized
 --------
 Charge =  0 Multiplicity = 1

                          Input orientation:
 ---------------------------------------------------------------------
 Center     Atomic      Atomic             Coordinates (Angstroms)
 Number     Number       Type             X           Y           Z
 ---------------------------------------------------------------------
      1          6           0        2.144866    3.851602    5.447263
      2          6           0        3.080147    3.236174    4.479053
      3          6           0        2.669420    2.305042    3.610010
      4          6           0        1.254329    1.867606    3.587548
      5          6           0        0.316103    2.500641    4.542473
      6          6           0        0.706605    3.433841    5.426593
      7          8           0        2.546598    4.685525    6.252365
      8          8           0        0.869767    1.010647    2.801728
      9          6           0       -0.212730    4.136971    6.414527
     10          6           0       -1.661034    3.680742    6.378432
     11          8           0        0.266799    3.939915    7.755678
     12          1           0        4.107834    3.577471    4.526547
     13          1           0        3.337985    1.834629    2.898395
     14          1           0       -0.710258    2.160852    4.474065
     15          1           0       -0.172826    5.208558    6.178468
     16          1           0       -2.107598    3.859386    5.398455
     17          1           0       -2.228470    4.248025    7.117908
     18          1           0       -1.747374    2.618434    6.619760
     19          1           0        1.131598    4.369130    7.809744
 ---------------------------------------------------------------------

 SCF Done:  E(UB3LYP) =  -535.469993871     A.U. after    1 cycles

 Alpha  occ. eigenvalues --  -19.15416 -19.14899 -19.13415 -10.29807 -10.29323
 Alpha  occ. eigenvalues --  -10.24668 -10.22468 -10.21865 -10.21783 -10.21499
 Alpha  occ. eigenvalues --  -10.16999  -1.08411  -1.07614  -1.03537  -0.87406
 Alpha  occ. eigenvalues --   -0.81566  -0.75824  -0.71833  -0.66678  -0.62124
 Alpha  occ. eigenvalues --   -0.59889  -0.54145  -0.52636  -0.51945  -0.49443
 Alpha  occ. eigenvalues --   -0.48141  -0.45828  -0.45517  -0.44285  -0.42887
 Alpha  occ. eigenvalues --   -0.42486  -0.40542  -0.39779  -0.38573  -0.36356
 Alpha  occ. eigenvalues --   -0.32018  -0.30600  -0.30465  -0.29952  -0.28148
 Alpha virt. eigenvalues --   -0.14453  -0.03903  -0.01457  -0.00463   0.00681
 Alpha virt. eigenvalues --    0.01015   0.02382   0.02547   0.03154   0.04378
 Alpha virt. eigenvalues --    0.05199   0.05853   0.06379   0.06546   0.07957

  Beta  occ. eigenvalues --  -19.15416 -19.14899 -19.13415 -10.29807 -10.29323
  Beta  occ. eigenvalues --  -10.24668 -10.22468 -10.21865 -10.21783 -10.21499
  Beta  occ. eigenvalues --  -10.16999  -1.08411  -1.07614  -1.03537  -0.87406
  Beta  occ. eigenvalues --   -0.81566  -0.75824  -0.71833  -0.66678  -0.62124
  Beta  occ. eigenvalues --   -0.59889  -0.54145  -0.52636  -0.51945  -0.49443
  Beta  occ. eigenvalues --   -0.48141  -0.45828  -0.45517  -0.44285  -0.42887
  Beta  occ. eigenvalues --   -0.42486  -0.40542  -0.39779  -0.38573  -0.36356
  Beta  occ. eigenvalues --   -0.32018  -0.30600  -0.30465  -0.29952  -0.28148
  Beta virt. eigenvalues --   -0.14453  -0.03903  -0.01457  -0.00463   0.00681
  Beta virt. eigenvalues --    0.01015   0.02382   0.02547   0.03154   0.04378
  Beta virt. eigenvalues --    0.05199   0.05853   0.06379   0.06546   0.07957

 Mulliken charges and spin densities:
               1          2
     1  C   -0.695122  -0.000000
     2  C    0.214230   0.000000
     3  C    0.169955  -0.000000
     4  C   -0.376519  -0.000000
     5  C   -1.257428   0.000000
     6  C    1.738330  -0.000000
     7  O   -0.268239   0.000000
     8  O   -0.280092   0.000000
     9  C   -0.199828   0.000000
    10  C   -0.539190  -0.000000
    11  O   -0.259332  -0.000000
    12  H    0.245349   0.000000
    13  H    0.248497   0.000000
    14  H    0.224712   0.000000
    15  H    0.226146  -0.000000
    16  H    0.159865  -0.000000
    17  H    0.180075   0.000000
    18  H    0.169457  -0.000000
    19  H    0.299132   0.000000
 Sum of Mulliken charges =  -0.00000   0.00000

 Dipole moment (field-independent basis, Debye):
    X=              0.7294    Y=              1.3336    Z=             -1.5807  Tot=              2.1930
 Quadrupole moment (field-independent basis, Debye-Ang):
   XX=            -54.8638   YY=            -63.4277   ZZ=            -94.4677
   XY=             -1.4290   XZ=             -1.3353   YZ=             -5.8177

  Exact polarizability: 130.690  19.405 142.242   6.452  59.568 149.523
 Approx polarizability: 140.419  36.312 185.381  25.431  86.258 185.347

                      1                      2                      3
                      A                      A                      A
 Frequencies --     59.2374                83.7101               131.0420
 Red. masses --      4.3351                 7.0141                 5.0321
 Frc consts  --      0.0090                 0.0290                 0.0509
 IR Inten    --      6.7631                12.9945                 7.7253

                      4                      5                      6
                      A                      A                      A
 Frequencies --    187.3729               232.1098               269.2586
 Red. masses --      4.5649                 5.0357                 1.0679
 Frc consts  --      0.0944                 0.1598                 0.0456
 IR Inten    --      1.3102                 0.1191                 1.3309

                      7                      8                      9
                      A                      A                      A
 Frequencies --    298.1173               331.6030               413.3226
 Red. masses --      5.0817                 4.0295                 3.9393
 Frc consts  --      0.2661                 0.2611                 0.3965
 IR Inten    --      1.7263                 9.8114                 5.2839

                     10                     11                     12
                      A                      A                      A
 Frequencies --    426.4866               446.9058               468.3789
 Red. masses --      6.0516                 4.4055                 3.0308
 Frc consts  --      0.6485                 0.5184                 0.3917
 IR Inten    --     66.1005                 7.1217                42.1818

                     13                     14                     15
                      A                      A                      A
 Frequencies --    493.2576               522.9360               583.3700
 Red. masses --      1.3502                 2.9589                 3.7405
 Frc consts  --      0.1935                 0.4767                 0.7500
 IR Inten    --    212.7702                 0.3943                 4.1219

                     16                     17                     18
                      A                      A                      A
 Frequencies --    647.6967               701.3122               789.6375
 Red. masses --      4.3167                 3.2599                 3.5635
 Frc consts  --      1.0670                 0.9447                 1.3091
 IR Inten    --      3.5858                 6.5420                 1.0475

                     19                     20                     21
                      A                      A                      A
 Frequencies --    793.0524               841.4581               861.8540
 Red. masses --      4.7583                 2.7430                 2.8039
 Frc consts  --      1.7632                 1.1443                 1.2271
 IR Inten    --      3.9270                20.3053                22.5554

                     22                     23                     24
                      A                      A                      A
 Frequencies --    904.3869               936.3009              1006.5065
 Red. masses --      2.6865                 1.5307                 2.6252
 Frc consts  --      1.2946                 0.7906                 1.5669
 IR Inten    --     62.6319                77.4077                24.7305

                     25                     26                     27
                      A                      A                      A
 Frequencies --   1013.9186              1069.8666              1097.0355
 Red. masses --      1.2576                 1.6860                 2.2187
 Frc consts  --      0.7617                 1.1370                 1.5732
 IR Inten    --      0.0495                 1.9743               145.7592

                     28                     29                     30
                      A                      A                      A
 Frequencies --   1109.0602              1142.1664              1236.9723
 Red. masses --      1.9369                 1.5961                 1.7079
 Frc consts  --      1.4037                 1.2268                 1.5397
 IR Inten    --     51.4375                31.9822                12.9842

                     31                     32                     33
                      A                      A                      A
 Frequencies --   1280.6915              1287.9166              1338.0447
 Red. masses --      1.2778                 2.5471                 1.7891
 Frc consts  --      1.2349                 2.4892                 1.8872
 IR Inten    --    193.5654               102.8327                51.5652

                     34                     35                     36
                      A                      A                      A
 Frequencies --   1369.2086              1389.5649              1401.2929
 Red. masses --      1.3173                 1.6612                 1.4288
 Frc consts  --      1.4550                 1.8899                 1.6530
 IR Inten    --     16.7401                 3.6832                14.7844

                     37                     38                     39
                      A                      A                      A
 Frequencies --   1430.1116              1484.6177              1493.1331
 Red. masses --      1.7496                 1.0495                 1.0474
 Frc consts  --      2.1083                 1.3630                 1.3758
 IR Inten    --     48.9391                 9.6904                 4.7321

                     40                     41                     42
                      A                      A                      A
 Frequencies --   1649.4466              1670.2009              1686.5730
 Red. masses --      7.9958                10.7732                11.2139
 Frc consts  --     12.8170                17.7064                18.7939
 IR Inten    --     49.7821               112.2871              1054.8093

                     43                     44                     45
                      A                      A                      A
 Frequencies --   1712.9546              2997.9572              3040.9624
 Red. masses --      7.9280                 1.0825                 1.0359
 Frc consts  --     13.7058                 5.7323                 5.6443
 IR Inten    --     28.1860                34.9022                15.8171

                     46                     47                     48
                      A                      A                      A
 Frequencies --   3110.1664              3117.0431              3184.7856
 Red. masses --      1.1021                 1.1023                 1.0878
 Frc consts  --      6.2813                 6.3102                 6.5006
 IR Inten    --     32.5309                25.4998                 2.8382

                     49                     50                     51
                      A                      A                      A
 Frequencies --   3196.4054              3201.1459              3762.6563
 Red. masses --      1.0920                 1.0996                 1.0659
 Frc consts  --      6.5734                 6.6392                 8.8911
 IR Inten    --      2.2513                 1.7204               116.5946

 - Thermochemistry -
 -------------------
 Temperature   298.150 Kelvin.  Pressure   1.00000 Atm.
 Atom     1 has atomic number  6 and mass  12.00000

 Molecular mass:   152.04734 amu.
 Principal axes and moments of inertia in atomic units:
                           1         2         3
     Eigenvalues --  1038.218492004.641732920.45247
           X           -0.40496   0.88686  -0.22245
           Y            0.48800   0.41538   0.76767
           Z            0.77322   0.20232  -0.60100
 This molecule is an asymmetric top.
 Rotational symmetry number  1.
 Warning -- assumption of classical behavior for rotation
           may cause significant error
 Rotational temperatures (Kelvin)      0.08343     0.04321     0.02966
 Rotational constants (GHZ):           1.73831     0.90028     0.61797
 Zero-point vibrational energy     382226.1 (Joules/Mol)
                                   91.35423 (Kcal/Mol)
 Warning -- explicit consideration of  15 degrees of freedom as
           vibrations may cause significant error
 Vibrational temperatures:     85.23   120.44   188.54   269.59   333.95
          (Kelvin)            387.40   428.92   477.10   594.68   613.62
                              643.00   673.89   709.69   752.39   839.34
                              931.89  1009.03  1136.11  1141.03  1210.67
                             1240.02  1301.21  1347.13  1448.14  1458.80
                             1539.30  1578.39  1595.69  1643.32  1779.73
                             1842.63  1853.02  1925.15  1969.99  1999.27
                             2016.15  2057.61  2136.03  2148.29  2373.19
                             2403.05  2426.60  2464.56  4313.39  4375.27
                             4474.84  4484.73  4582.20  4598.91  4605.74
                             5413.62

 Zero-point correction=                           0.145582 (Hartree/Particle)
 Thermal correction to Energy=                    0.155640
 Thermal correction to Enthalpy=                  0.156584
 Thermal correction to Gibbs Free Energy=         0.109915
 Sum of electronic and zero-point Energies=           -535.324412
 Sum of electronic and thermal Energies=              -535.314354
 Sum of electronic and thermal Enthalpies=            -535.313410
 Sum of electronic and thermal Free Energies=         -535.360079

                     E (Thermal)             CV                S
                      KCal/Mol        Cal/Mol-Kelvin    Cal/Mol-Kelvin
 Total                   97.665             37.942             98.223
 Electronic               0.000              0.000              0.000
 Translational            0.889              2.981             40.967
 Rotational               0.889              2.981             30.187
 Vibrational             95.888             31.980             27.069
 Vibration     1          0.597              1.974              4.482
 Vibration     2          0.601              1.960              3.802
 Vibration     3          0.612              1.922              2.931
 Vibration     4          0.632              1.857              2.254
 Vibration     5          0.653              1.792              1.863
 Vibration     6          0.674              1.730              1.601
 Vibration     7          0.691              1.677              1.427
 Vibration     8          0.714              1.612              1.252
 Vibration     9          0.777              1.441              0.915
 Vibration    10          0.788              1.413              0.870
 Vibration    11          0.806              1.368              0.805
 Vibration    12          0.826              1.320              0.742
 Vibration    13          0.849              1.265              0.675
 Vibration    14          0.878              1.199              0.603
 Vibration    15          0.940              1.067              0.479

 Optimization completed.
    -- Stationary point found.
 Normal termination of Gaussian 16 at Sat Feb 10 10:46:43 2024.
