 Q-Chem 5.4, Q-Chem, Inc., Pleasanton, CA (2021)
 Q-Chem 5.4.0 for Intel X86 EM64T Linux

User input:
--------------------------------------------------------------
$molecule
0 1
O                  0.0959190000      2.9134330000      0.8807940000
C                  0.0577340000      1.7533670000      0.5300940000
C                  1.2162720000      0.8256960000      0.3147210000
C                  2.5726860000      1.0655720000      0.4611840000
C                  3.4633710000      0.0196830000      0.1956910000
C                  2.9843400000     -1.2284580000     -0.2056790000
C                  1.6116430000     -1.4673730000     -0.3527670000
C                  0.7271970000     -0.4302490000     -0.0895670000
C                 -0.7533810000     -0.3631120000     -0.1505200000
C                 -1.7030690000     -1.3170030000     -0.4893060000
C                 -3.0562880000     -0.9543770000     -0.4543160000
C                 -3.4518490000      0.3330520000     -0.0888540000
C                 -2.4949980000      1.2953610000      0.2527730000
C                 -1.1584870000      0.9334370000      0.2170630000
H                  2.9249480000      2.0420840000      0.7739770000
H                  4.5306370000      0.1761350000      0.3012420000
H                  3.6876360000     -2.0287830000     -0.4076140000
H                  1.2595770000     -2.4439870000     -0.6655570000
H                 -1.4167550000     -2.3226590000     -0.7759910000
H                 -3.8098350000     -1.6888460000     -0.7163640000
H                 -4.5055650000      0.5861090000     -0.0703920000
H                 -2.7817330000      2.3009160000      0.5393900000
$end
$rem
MAX_SCF_CYCLES=200
BASIS  =  6-311++G(d,p)
GUI  =  2
JOB_TYPE  =  SP
METHOD  =  B3LYP
SOLVENT_METHOD = PCM
$end
$pcm
theory = CPCM
$end
$solvent
dielectric 37.219
opticaldielectric 1.43
$end

--------------------------------------------------------------

             Standard Nuclear Orientation (Angstroms)
    I     Atom           X                Y                Z
 ----------------------------------------------------------------
    1      O       0.0959190000     2.9134330000     0.8807940000
    2      C       0.0577340000     1.7533670000     0.5300940000
    3      C       1.2162720000     0.8256960000     0.3147210000
    4      C       2.5726860000     1.0655720000     0.4611840000
    5      C       3.4633710000     0.0196830000     0.1956910000
    6      C       2.9843400000    -1.2284580000    -0.2056790000
    7      C       1.6116430000    -1.4673730000    -0.3527670000
    8      C       0.7271970000    -0.4302490000    -0.0895670000
    9      C      -0.7533810000    -0.3631120000    -0.1505200000
   10      C      -1.7030690000    -1.3170030000    -0.4893060000
   11      C      -3.0562880000    -0.9543770000    -0.4543160000
   12      C      -3.4518490000     0.3330520000    -0.0888540000
   13      C      -2.4949980000     1.2953610000     0.2527730000
   14      C      -1.1584870000     0.9334370000     0.2170630000
   15      H       2.9249480000     2.0420840000     0.7739770000
   16      H       4.5306370000     0.1761350000     0.3012420000
   17      H       3.6876360000    -2.0287830000    -0.4076140000
   18      H       1.2595770000    -2.4439870000    -0.6655570000
   19      H      -1.4167550000    -2.3226590000    -0.7759910000
   20      H      -3.8098350000    -1.6888460000    -0.7163640000
   21      H      -4.5055650000     0.5861090000    -0.0703920000
   22      H      -2.7817330000     2.3009160000     0.5393900000
 ----------------------------------------------------------------

    8    -575.5925251986      6.23e-06  Convergence criterion met
 Total energy in the final basis set =     -575.5925251986

                    Orbital Energies (a.u.)
 --------------------------------------------------------------

 Alpha MOs
 -- Occupied --
-19.1346 -10.2782 -10.2025 -10.2022 -10.1946 -10.1946 -10.1924 -10.1924
-10.1907 -10.1907 -10.1902 -10.1901 -10.1876 -10.1876  -1.0659  -0.9052
 -0.8660  -0.8131  -0.7779  -0.7627  -0.7356  -0.6785  -0.6446  -0.6064
 -0.5938  -0.5730  -0.5230  -0.5171  -0.4927  -0.4655  -0.4642  -0.4502
 -0.4454  -0.4452  -0.4400  -0.4320  -0.3870  -0.3842  -0.3782  -0.3766
 -0.3623  -0.3532  -0.3051  -0.2794  -0.2750  -0.2715  -0.2401

          Ground-State Mulliken Net Atomic Charges

     Atom                 Charge (a.u.)
  ----------------------------------------
      1 O                    -0.334018
      2 C                    -0.181624
      3 C                     0.778263
      4 C                    -0.119419
      5 C                    -0.363277
      6 C                    -0.294605
      7 C                    -0.476615
      8 C                    -0.066894
      9 C                    -0.066901
     10 C                    -0.477780
     11 C                    -0.292826
     12 C                    -0.366104
     13 C                    -0.125034
     14 C                     0.783203
     15 H                     0.193175
     16 H                     0.211598
     17 H                     0.224800
     18 H                     0.172120
     19 H                     0.172216
     20 H                     0.224940
     21 H                     0.211588
     22 H                     0.193193
  ----------------------------------------
  Sum of atomic charges =     0.000000

                    Cartesian Multipole Moments
 -----------------------------------------------------------------
    Charge (ESU x 10^10)
                 0.0000
    Dipole Moment (Debye)
         X      -0.1678      Y      -5.0746      Z      -1.5343
       Tot       5.3042
    Quadrupole Moments (Debye-Ang)
        XX     -60.0505     XY      -1.1514     YY     -85.4522
        XZ       1.0389     YZ      -0.1018     ZZ     -85.2848

 Total job time:  28.61s(wall), 189.52s(cpu)
        *  Thank you very much for using Q-Chem.  Have a nice day.  *
