 Gaussian 16, Revision A.03,
 Gaussian 16:  ES64L-G16RevA.03 25-Dec-2016

 --------------------------------------
 #P UB3LYP/6-311++G(d,p) nosym opt freq
 --------------------------------------

 --------
 Oxidized
 --------
 Symbolic Z-matrix:
 Charge =  0 Multiplicity = 1

 SCF Done:  E(UB3LYP) =  -575.581008613     A.U. after   15 cycles
 Optimization completed.
    -- Stationary point found.
 Normal termination of Gaussian 16 at Tue Jan  9 20:30:32 2024.

 ----------------------------------------------------------------------
 #P Geom=AllCheck Guess=TCheck SCRF=Check GenChk UB3LYP/6-311++G(d,p) F
 req
 ----------------------------------------------------------------------

 Structure from the checkpoint file:  "343.chk"
 --------
 Oxidized
 --------
 Charge =  0 Multiplicity = 1

                          Input orientation:
 ---------------------------------------------------------------------
 Center     Atomic      Atomic             Coordinates (Angstroms)
 Number     Number       Type             X           Y           Z
 ---------------------------------------------------------------------
      1          8           0        0.095919    2.913433    0.880794
      2          6           0        0.057734    1.753367    0.530094
      3          6           0        1.216272    0.825696    0.314721
      4          6           0        2.572686    1.065572    0.461184
      5          6           0        3.463371    0.019683    0.195691
      6          6           0        2.984340   -1.228458   -0.205679
      7          6           0        1.611643   -1.467373   -0.352767
      8          6           0        0.727197   -0.430249   -0.089567
      9          6           0       -0.753381   -0.363112   -0.150520
     10          6           0       -1.703069   -1.317003   -0.489306
     11          6           0       -3.056288   -0.954377   -0.454316
     12          6           0       -3.451849    0.333052   -0.088854
     13          6           0       -2.494998    1.295361    0.252773
     14          6           0       -1.158487    0.933437    0.217063
     15          1           0        2.924948    2.042084    0.773977
     16          1           0        4.530637    0.176135    0.301242
     17          1           0        3.687636   -2.028783   -0.407614
     18          1           0        1.259577   -2.443987   -0.665557
     19          1           0       -1.416755   -2.322659   -0.775991
     20          1           0       -3.809835   -1.688846   -0.716364
     21          1           0       -4.505565    0.586109   -0.070392
     22          1           0       -2.781733    2.300916    0.539390
 ---------------------------------------------------------------------

 SCF Done:  E(UB3LYP) =  -575.581008613     A.U. after    1 cycles

 Alpha  occ. eigenvalues --  -19.12434 -10.26955 -10.20468 -10.20439 -10.19809
 Alpha  occ. eigenvalues --  -10.19808 -10.19663 -10.19662 -10.19606 -10.19605
 Alpha  occ. eigenvalues --  -10.19277 -10.19277 -10.19101 -10.19100  -1.05417
 Alpha  occ. eigenvalues --   -0.90632  -0.86877  -0.81582  -0.78066  -0.76578
 Alpha  occ. eigenvalues --   -0.73912  -0.68050  -0.64801  -0.60987  -0.59790
 Alpha  occ. eigenvalues --   -0.57561  -0.52555  -0.52087  -0.49406  -0.46739
 Alpha  occ. eigenvalues --   -0.46620  -0.45450  -0.44546  -0.44329  -0.44079
 Alpha  occ. eigenvalues --   -0.43310  -0.38869  -0.38335  -0.38182  -0.37833
 Alpha  occ. eigenvalues --   -0.36702  -0.35779  -0.30697  -0.27887  -0.27350
 Alpha  occ. eigenvalues --   -0.26487  -0.24218
 Alpha virt. eigenvalues --   -0.09766  -0.05624  -0.01993  -0.01265  -0.00432
 Alpha virt. eigenvalues --    0.00597   0.00749   0.01746   0.01803   0.03373
 Alpha virt. eigenvalues --    0.03790   0.04017   0.04531   0.04834   0.06200

  Beta  occ. eigenvalues --  -19.12434 -10.26955 -10.20468 -10.20439 -10.19809
  Beta  occ. eigenvalues --  -10.19808 -10.19663 -10.19662 -10.19606 -10.19605
  Beta  occ. eigenvalues --  -10.19277 -10.19277 -10.19101 -10.19100  -1.05417
  Beta  occ. eigenvalues --   -0.90632  -0.86877  -0.81582  -0.78066  -0.76578
  Beta  occ. eigenvalues --   -0.73912  -0.68050  -0.64801  -0.60987  -0.59790
  Beta  occ. eigenvalues --   -0.57561  -0.52555  -0.52087  -0.49406  -0.46739
  Beta  occ. eigenvalues --   -0.46620  -0.45450  -0.44546  -0.44329  -0.44079
  Beta  occ. eigenvalues --   -0.43310  -0.38869  -0.38335  -0.38182  -0.37833
  Beta  occ. eigenvalues --   -0.36702  -0.35779  -0.30697  -0.27887  -0.27350
  Beta  occ. eigenvalues --   -0.26487  -0.24218
  Beta virt. eigenvalues --   -0.09766  -0.05624  -0.01993  -0.01265  -0.00432
  Beta virt. eigenvalues --    0.00597   0.00749   0.01746   0.01803   0.03373
  Beta virt. eigenvalues --    0.03790   0.04017   0.04531   0.04834   0.06200

 Mulliken charges and spin densities:
               1          2
     1  O   -0.243007  -0.000000
     2  C   -0.255099   0.000000
     3  C    0.782261  -0.000000
     4  C   -0.136861  -0.000000
     5  C   -0.286366   0.000000
     6  C   -0.252419   0.000000
     7  C   -0.482516   0.000000
     8  C   -0.004898   0.000000
     9  C   -0.005540   0.000000
    10  C   -0.482351  -0.000000
    11  C   -0.252366  -0.000000
    12  C   -0.286370  -0.000000
    13  C   -0.136393  -0.000000
    14  C    0.782336  -0.000000
    15  H    0.172319  -0.000000
    16  H    0.167946  -0.000000
    17  H    0.178000  -0.000000
    18  H    0.111503  -0.000000
    19  H    0.111572  -0.000000
    20  H    0.177971   0.000000
    21  H    0.167960  -0.000000
    22  H    0.172318   0.000000
 Sum of Mulliken charges =   0.00000  -0.00000

 Dipole moment (field-independent basis, Debye):
    X=             -0.1129    Y=             -3.4360    Z=             -1.0386  Tot=              3.5913
 Quadrupole moment (field-independent basis, Debye-Ang):
   XX=            -64.8497   YY=            -84.4687   ZZ=            -84.9857
   XY=             -0.8992   XZ=              0.8373   YZ=              0.1330

  Exact polarizability: 227.908  -4.207 157.965   7.113  24.715  82.789
 Approx polarizability: 349.256  -4.676 293.863  11.190  52.212 135.611

                      1                      2                      3
                      A                      A                      A
 Frequencies --     94.2807               127.9621               146.5791
 Red. masses --      4.6696                 3.8171                 7.1130
 Frc consts  --      0.0245                 0.0368                 0.0900
 IR Inten    --      2.8876                 0.0000                 0.4203

                      4                      5                      6
                      A                      A                      A
 Frequencies --    205.1361               266.5122               283.4007
 Red. masses --      4.6336                 4.7967                 9.4037
 Frc consts  --      0.1149                 0.2007                 0.4450
 IR Inten    --      0.3119                 0.0000                 5.0403

                      7                      8                      9
                      A                      A                      A
 Frequencies --    405.8749               411.9988               431.4081
 Red. masses --      3.2235                 6.5938                 3.1652
 Frc consts  --      0.3129                 0.6594                 0.3471
 IR Inten    --      0.8844                 0.1129                 0.0000

                     10                     11                     12
                      A                      A                      A
 Frequencies --    452.0037               512.1777               563.5113
 Red. masses --      4.3006                 5.6905                 3.3538
 Frc consts  --      0.5177                 0.8795                 0.6275
 IR Inten    --      4.3944                 2.7954                 0.0000

                     13                     14                     15
                      A                      A                      A
 Frequencies --    566.3397               631.9555               665.3123
 Red. masses --      8.6792                 7.0979                 6.9291
 Frc consts  --      1.6402                 1.6701                 1.8071
 IR Inten    --      0.6446                 1.4548                 5.1701

                     16                     17                     18
                      A                      A                      A
 Frequencies --    685.4070               735.9988               749.0887
 Red. masses --      4.3998                 5.7918                 1.9205
 Frc consts  --      1.2178                 1.8485                 0.6349
 IR Inten    --     13.2368                 0.0087                 0.3094

                     19                     20                     21
                      A                      A                      A
 Frequencies --    749.3807               787.2682               787.3220
 Red. masses --      1.4703                 6.2852                 2.0332
 Frc consts  --      0.4865                 2.2952                 0.7426
 IR Inten    --    124.8687                 0.1070                 0.0001

                     22                     23                     24
                      A                      A                      A
 Frequencies --    822.2911               892.8340               894.2552
 Red. masses --      3.0832                 1.3938                 1.3660
 Frc consts  --      1.2283                 0.6546                 0.6436
 IR Inten    --      9.8012                 0.0000                 0.0074

                     25                     26                     27
                      A                      A                      A
 Frequencies --    927.7316               968.7126               972.0058
 Red. masses --      7.2505                 1.3934                 1.4196
 Frc consts  --      3.6767                 0.7704                 0.7902
 IR Inten    --     55.3404                 0.0001                 3.0134

                     28                     29                     30
                      A                      A                      A
 Frequencies --    998.0005              1000.2472              1020.2801
 Red. masses --      1.3167                 1.3103                 5.4219
 Frc consts  --      0.7727                 0.7724                 3.3254
 IR Inten    --      0.0000                 0.0338                 1.4874

                     31                     32                     33
                      A                      A                      A
 Frequencies --   1037.9452              1053.3584              1099.4837
 Red. masses --      2.2569                 1.9542                 2.5260
 Frc consts  --      1.4326                 1.2776                 1.7991
 IR Inten    --      0.4403                 0.2596                 0.0106

                     34                     35                     36
                      A                      A                      A
 Frequencies --   1112.9805              1170.5558              1178.9582
 Red. masses --      1.8220                 2.2980                 1.1934
 Frc consts  --      1.3298                 1.8552                 0.9773
 IR Inten    --     26.7389                14.6017                 2.9302

                     37                     38                     39
                      A                      A                      A
 Frequencies --   1184.9839              1204.0532              1224.1028
 Red. masses --      1.1875                 2.6316                 2.5540
 Frc consts  --      0.9825                 2.2478                 2.2548
 IR Inten    --      0.2359                46.0327                 0.0816

                     40                     41                     42
                      A                      A                      A
 Frequencies --   1310.6311              1318.0476              1327.5365
 Red. masses --      1.7220                 1.6153                 4.9636
 Frc consts  --      1.7428                 1.6533                 5.1539
 IR Inten    --      3.9882                30.3485                17.8740

                     43                     44                     45
                      A                      A                      A
 Frequencies --   1400.7071              1471.8633              1481.9138
 Red. masses --      3.9396                 2.5497                 2.2448
 Frc consts  --      4.5540                 3.2544                 2.9045
 IR Inten    --      0.7876                 0.5691                41.5579

                     46                     47                     48
                      A                      A                      A
 Frequencies --   1500.5112              1504.0689              1624.9193
 Red. masses --      2.5089                 2.9232                 5.6516
 Frc consts  --      3.3282                 3.8962                 8.7920
 IR Inten    --      2.2822                 0.2152                17.1116

                     49                     50                     51
                      A                      A                      A
 Frequencies --   1631.0333              1633.8508              1648.5823
 Red. masses --      6.7697                 6.6281                 7.0141
 Frc consts  --     10.6107                10.4247                11.2317
 IR Inten    --      6.2307                35.7086                82.2817

                     52                     53                     54
                      A                      A                      A
 Frequencies --   1778.0790              3164.2083              3165.2605
 Red. masses --     12.8474                 1.0863                 1.0862
 Frc consts  --     23.9313                 6.4079                 6.4117
 IR Inten    --    302.6082                 2.8719                 0.1677

                     55                     56                     57
                      A                      A                      A
 Frequencies --   3174.6500              3176.2101              3182.8485
 Red. masses --      1.0893                 1.0893                 1.0932
 Frc consts  --      6.4681                 6.4746                 6.5248
 IR Inten    --      3.5703                 2.1725                 0.6257

                     58                     59                     60
                      A                      A                      A
 Frequencies --   3183.7681              3192.0565              3192.5880
 Red. masses --      1.0934                 1.0970                 1.0970
 Frc consts  --      6.5300                 6.5854                 6.5881
 IR Inten    --     24.0758                34.8694                 1.1584

 - Thermochemistry -
 -------------------
 Temperature   298.150 Kelvin.  Pressure   1.00000 Atm.
 Atom     1 has atomic number  8 and mass  15.99491

 Molecular mass:   180.05751 amu.
 Principal axes and moments of inertia in atomic units:
                           1         2         3
     Eigenvalues --  1245.691123091.056364336.74747
           X            0.99813   0.03147  -0.05239
           Y           -0.04526   0.95673  -0.28744
           Z            0.04107   0.28928   0.95636
 This molecule is an asymmetric top.
 Rotational symmetry number  1.
 Warning -- assumption of classical behavior for rotation
           may cause significant error
 Rotational temperatures (Kelvin)      0.06953     0.02802     0.01997
 Rotational constants (GHZ):           1.44879     0.58386     0.41615
 Zero-point vibrational energy     443126.9 (Joules/Mol)
                                  105.90987 (Kcal/Mol)
 Warning -- explicit consideration of  13 degrees of freedom as
           vibrations may cause significant error
 Vibrational temperatures:    135.65   184.11   210.89   295.15   383.45
          (Kelvin)            407.75   583.96   592.77   620.70   650.33
                              736.91   810.77   814.84   909.24   957.24
                              986.15  1058.94  1077.77  1078.19  1132.70
                             1132.78  1183.09  1284.59  1286.63  1334.80
                             1393.76  1398.50  1435.90  1439.13  1467.96
                             1493.37  1515.55  1581.91  1601.33  1684.17
                             1696.26  1704.93  1732.36  1761.21  1885.71
                             1896.38  1910.03  2015.31  2117.68  2132.14
                             2158.90  2164.02  2337.90  2346.69  2350.75
                             2371.94  2558.26  4552.59  4554.10  4567.61
                             4569.86  4579.41  4580.73  4592.66  4593.42

 Zero-point correction=                           0.168778 (Hartree/Particle)
 Thermal correction to Energy=                    0.178398
 Thermal correction to Enthalpy=                  0.179342
 Thermal correction to Gibbs Free Energy=         0.133571
 Sum of electronic and zero-point Energies=           -575.412230
 Sum of electronic and thermal Energies=              -575.402611
 Sum of electronic and thermal Enthalpies=            -575.401667
 Sum of electronic and thermal Free Energies=         -575.447438

                     E (Thermal)             CV                S
                      KCal/Mol        Cal/Mol-Kelvin    Cal/Mol-Kelvin
 Total                  111.946             39.754             96.333
 Electronic               0.000              0.000              0.000
 Translational            0.889              2.981             41.471
 Rotational               0.889              2.981             31.191
 Vibrational            110.169             33.792             23.671
 Vibration     1          0.603              1.953              3.569
 Vibration     2          0.611              1.925              2.976
 Vibration     3          0.617              1.906              2.716
 Vibration     4          0.640              1.833              2.087
 Vibration     5          0.672              1.735              1.619
 Vibration     6          0.682              1.704              1.513
 Vibration     7          0.771              1.457              0.941
 Vibration     8          0.776              1.444              0.920
 Vibration     9          0.792              1.402              0.854
 Vibration    10          0.811              1.356              0.790
 Vibration    11          0.867              1.223              0.628
 Vibration    12          0.919              1.110              0.517
 Vibration    13          0.922              1.104              0.511

 Optimization completed.
    -- Stationary point found.
 Normal termination of Gaussian 16 at Tue Jan  9 21:06:02 2024.
