 Q-Chem 5.4, Q-Chem, Inc., Pleasanton, CA (2021)
 Q-Chem 5.4.0 for Intel X86 EM64T Linux

User input:
--------------------------------------------------------------
$molecule
-2 1
C                  2.3461020000      3.5752960000      2.7567050000
C                  3.4234630000      3.5070090000      1.8230260000
C                  3.3952050000      2.6901490000      0.6986950000
C                  2.2459940000      1.8371290000      0.4049150000
C                  1.1687460000      1.9052170000      1.3387370000
C                  1.1969980000      2.7220840000      2.4630620000
O                  2.3374570000      4.3308920000      3.7971070000
O                  2.2548660000      1.0811360000     -0.6351960000
N                  0.1903690000      2.7755930000      3.4368570000
C                 -1.2084820000      2.5928980000      3.1219830000
C                 -2.0531120000      2.4499250000      4.3907520000
N                  4.4019280000      2.6365120000     -0.2749990000
C                  5.8007820000      2.8189240000      0.0400460000
C                  6.6455860000      2.9617250000     -1.2286250000
H                  4.2839010000      4.1347190000      2.0375810000
H                  0.3083900000      1.2773580000      1.1242890000
H                  0.4029220000      3.5627610000      4.0488610000
H                 -1.3174650000      1.6922700000      2.5130030000
H                 -1.6154510000      3.4263820000      2.5111950000
H                 -1.7242200000      1.5906110000      4.9833060000
H                 -3.1141290000      2.3181200000      4.1484740000
H                 -1.9724740000      3.3417540000      5.0231000000
H                  4.1892960000      1.8494430000     -0.8871000000
H                  6.2075060000      1.9853580000      0.6508850000
H                  5.9098750000      3.7195320000      0.6490350000
H                  6.5648440000      2.0699110000     -1.8609800000
H                  7.7066010000      3.0933200000     -0.9862250000
H                  6.3169350000      3.8211030000     -1.8212190000
$end
$rem
MAX_SCF_CYCLES=200
BASIS  =  6-311++G(d,p)
GUI  =  2
JOB_TYPE  =  SP
METHOD  =  B3LYP
SOLVENT_METHOD = PCM
$end
$pcm
theory = CPCM
$end
$solvent
dielectric 37.219
opticaldielectric 1.43
$end

--------------------------------------------------------------

             Standard Nuclear Orientation (Angstroms)
    I     Atom           X                Y                Z
 ----------------------------------------------------------------
    1      C       2.3461020000     3.5752960000     2.7567050000
    2      C       3.4234630000     3.5070090000     1.8230260000
    3      C       3.3952050000     2.6901490000     0.6986950000
    4      C       2.2459940000     1.8371290000     0.4049150000
    5      C       1.1687460000     1.9052170000     1.3387370000
    6      C       1.1969980000     2.7220840000     2.4630620000
    7      O       2.3374570000     4.3308920000     3.7971070000
    8      O       2.2548660000     1.0811360000    -0.6351960000
    9      N       0.1903690000     2.7755930000     3.4368570000
   10      C      -1.2084820000     2.5928980000     3.1219830000
   11      C      -2.0531120000     2.4499250000     4.3907520000
   12      N       4.4019280000     2.6365120000    -0.2749990000
   13      C       5.8007820000     2.8189240000     0.0400460000
   14      C       6.6455860000     2.9617250000    -1.2286250000
   15      H       4.2839010000     4.1347190000     2.0375810000
   16      H       0.3083900000     1.2773580000     1.1242890000
   17      H       0.4029220000     3.5627610000     4.0488610000
   18      H      -1.3174650000     1.6922700000     2.5130030000
   19      H      -1.6154510000     3.4263820000     2.5111950000
   20      H      -1.7242200000     1.5906110000     4.9833060000
   21      H      -3.1141290000     2.3181200000     4.1484740000
   22      H      -1.9724740000     3.3417540000     5.0231000000
   23      H       4.1892960000     1.8494430000    -0.8871000000
   24      H       6.2075060000     1.9853580000     0.6508850000
   25      H       5.9098750000     3.7195320000     0.6490350000
   26      H       6.5648440000     2.0699110000    -1.8609800000
   27      H       7.7066010000     3.0933200000    -0.9862250000
   28      H       6.3169350000     3.8211030000    -1.8212190000
 ----------------------------------------------------------------

    9    -649.8642957096      6.30e-06  Convergence criterion met
 Total energy in the final basis set =     -649.8642957096

                    Orbital Energies (a.u.)
 --------------------------------------------------------------

 Alpha MOs
 -- Occupied --
-19.0142 -19.0142 -14.2763 -14.2763 -10.1794 -10.1794 -10.1571 -10.1571
-10.1485 -10.1485 -10.1436 -10.1435 -10.1092 -10.1092  -0.9395  -0.9353
 -0.8845  -0.8833  -0.7644  -0.7379  -0.7179  -0.6710  -0.6295  -0.6117
 -0.5863  -0.5355  -0.5313  -0.4777  -0.4546  -0.4526  -0.4466  -0.4343
 -0.4168  -0.3930  -0.3822  -0.3814  -0.3745  -0.3633  -0.3586  -0.3506
 -0.3457  -0.3430  -0.3374  -0.3324  -0.3152  -0.3045  -0.2683  -0.2506
 -0.2012  -0.1970  -0.1948  -0.1636  -0.0942

          Ground-State Mulliken Net Atomic Charges

     Atom                 Charge (a.u.)
  ----------------------------------------
      1 C                    -0.338237
      2 C                    -0.157060
      3 C                     0.033794
      4 C                    -0.337758
      5 C                    -0.156774
      6 C                     0.033266
      7 O                    -0.764485
      8 O                    -0.764484
      9 N                    -0.166321
     10 C                    -0.117231
     11 C                    -0.582865
     12 N                    -0.166366
     13 C                    -0.117235
     14 C                    -0.582915
     15 H                     0.132433
     16 H                     0.132473
     17 H                     0.269728
     18 H                     0.141480
     19 H                     0.121523
     20 H                     0.133901
     21 H                     0.144824
     22 H                     0.148416
     23 H                     0.269698
     24 H                     0.121518
     25 H                     0.141524
     26 H                     0.148423
     27 H                     0.144824
     28 H                     0.133904
  ----------------------------------------
  Sum of atomic charges =    -2.000003

                    Cartesian Multipole Moments
 -----------------------------------------------------------------
    Charge (ESU x 10^10)
                -9.6064
    Dipole Moment (Debye)
         X     -22.0578      Y     -25.9958      Z     -15.1870
       Tot      37.3226
    Quadrupole Moments (Debye-Ang)
        XX    -142.4357     XY     -63.1387     YY    -185.9095
        XZ     -35.8100     YZ     -63.8906     ZZ    -161.9184

 Total job time:  56.55s(wall), 250.42s(cpu)
        *  Thank you very much for using Q-Chem.  Have a nice day.  *
