 Gaussian 16, Revision A.03,
 Gaussian 16:  ES64L-G16RevA.03 25-Dec-2016

 --------------------------------------
 #P UB3LYP/6-311++G(d,p) nosym opt freq
 --------------------------------------

 -------
 Reduced
 -------
 Symbolic Z-matrix:
 Charge = -2 Multiplicity = 1

 SCF Done:  E(UB3LYP) =  -754.309463192     A.U. after   42 cycles
 SCF Done:  E(UB3LYP) =  -754.346121339     A.U. after   27 cycles
 SCF Done:  E(UB3LYP) =  -754.355972846     A.U. after   22 cycles
 SCF Done:  E(UB3LYP) =  -754.356802740     A.U. after   20 cycles
 SCF Done:  E(UB3LYP) =  -754.357052456     A.U. after   20 cycles
 SCF Done:  E(UB3LYP) =  -754.357076616     A.U. after   13 cycles
 SCF Done:  E(UB3LYP) =  -754.357081259     A.U. after   20 cycles
 Optimization completed.
    -- Stationary point found.
 Normal termination of Gaussian 16 at Sat Jan  6 02:16:56 2024.

 ----------------------------------------------------------------------
 #P Geom=AllCheck Guess=TCheck SCRF=Check GenChk UB3LYP/6-311++G(d,p) F
 req
 ----------------------------------------------------------------------

 Structure from the checkpoint file:  "348-an.chk"
 -------
 Reduced
 -------
 Charge = -2 Multiplicity = 1

                          Input orientation:
 ---------------------------------------------------------------------
 Center     Atomic      Atomic             Coordinates (Angstroms)
 Number     Number       Type             X           Y           Z
 ---------------------------------------------------------------------
      1          8           0        3.911184    2.772594    0.979071
      2          6           0        3.020908    1.899406    1.036880
      3          7           0        2.947372    0.937396    1.989809
      4          6           0        1.949332   -0.122675    2.141116
      5          8           0        2.141174   -0.874044    3.129772
      6          6           0        0.940147   -0.124694    1.154143
      7          7           0       -0.097927   -1.076278    1.150689
      8          6           0       -0.994449   -0.980308    0.169221
      9          6           0       -2.095960   -1.899032    0.068530
     10          6           0       -3.048850   -1.818951   -0.951763
     11          6           0       -2.982384   -0.833704   -1.937256
     12          6           0       -1.903944    0.094233   -1.868717
     13          6           0       -0.942726    0.044053   -0.872085
     14          7           0        0.101427    0.987655   -0.853627
     15          6           0        0.963891    0.859464    0.128653
     16          7           0        2.001964    1.816962    0.126080
     17          1           0        3.664706    0.932582    2.698069
     18          1           0       -2.162869   -2.673515    0.828785
     19          1           0       -3.860755   -2.547871   -0.970926
     20          1           0       -3.722866   -0.771080   -2.730544
     21          1           0       -1.807302    0.882489   -2.614395
     22          1           0        1.977928    2.495318   -0.620468
 ---------------------------------------------------------------------

 SCF Done:  E(UB3LYP) =  -754.357081259     A.U. after    1 cycles

 Alpha  occ. eigenvalues --  -18.85336 -18.80406 -14.10800 -14.09817 -14.01919
 Alpha  occ. eigenvalues --  -13.98542 -10.06314  -9.98674  -9.98552  -9.92572
 Alpha  occ. eigenvalues --   -9.92531  -9.91203  -9.91116  -9.89691  -9.89612
 Alpha  occ. eigenvalues --   -9.88421  -0.81448  -0.74507  -0.71725  -0.66771
 Alpha  occ. eigenvalues --   -0.64303  -0.59335  -0.56099  -0.48983  -0.46671
 Alpha  occ. eigenvalues --   -0.42001  -0.40628  -0.37541  -0.32886  -0.31685
 Alpha  occ. eigenvalues --   -0.28834  -0.28547  -0.24293  -0.22662  -0.21884
 Alpha  occ. eigenvalues --   -0.20967  -0.19138  -0.17803  -0.16297  -0.14718
 Alpha  occ. eigenvalues --   -0.14406  -0.14190  -0.12130  -0.09810  -0.09350
 Alpha  occ. eigenvalues --   -0.08817  -0.04942  -0.04376  -0.03032  -0.02105
 Alpha  occ. eigenvalues --   -0.01912   0.01430   0.02916   0.04275   0.04321
 Alpha  occ. eigenvalues --    0.14807
 Alpha virt. eigenvalues --    0.16675   0.18133   0.19039   0.19638   0.20670
 Alpha virt. eigenvalues --    0.21830   0.23878   0.24162   0.24783   0.25693
 Alpha virt. eigenvalues --    0.25945   0.26805   0.27318   0.27663   0.27682

  Beta  occ. eigenvalues --  -18.85336 -18.80406 -14.10800 -14.09817 -14.01919
  Beta  occ. eigenvalues --  -13.98542 -10.06314  -9.98674  -9.98552  -9.92572
  Beta  occ. eigenvalues --   -9.92531  -9.91203  -9.91116  -9.89691  -9.89612
  Beta  occ. eigenvalues --   -9.88421  -0.81448  -0.74507  -0.71725  -0.66771
  Beta  occ. eigenvalues --   -0.64303  -0.59335  -0.56099  -0.48983  -0.46671
  Beta  occ. eigenvalues --   -0.42001  -0.40628  -0.37541  -0.32886  -0.31685
  Beta  occ. eigenvalues --   -0.28834  -0.28547  -0.24293  -0.22662  -0.21884
  Beta  occ. eigenvalues --   -0.20967  -0.19138  -0.17803  -0.16297  -0.14718
  Beta  occ. eigenvalues --   -0.14406  -0.14190  -0.12130  -0.09810  -0.09350
  Beta  occ. eigenvalues --   -0.08817  -0.04942  -0.04376  -0.03032  -0.02105
  Beta  occ. eigenvalues --   -0.01912   0.01430   0.02916   0.04275   0.04321
  Beta  occ. eigenvalues --    0.14807
  Beta virt. eigenvalues --    0.16675   0.18133   0.19039   0.19638   0.20670
  Beta virt. eigenvalues --    0.21830   0.23878   0.24162   0.24783   0.25693
  Beta virt. eigenvalues --    0.25945   0.26805   0.27318   0.27663   0.27682

 Mulliken charges and spin densities:
               1          2
     1  O   -0.486309  -0.000000
     2  C    0.357266   0.000000
     3  N   -0.438462  -0.000000
     4  C    0.100969  -0.000000
     5  O   -0.497105  -0.000000
     6  C   -0.042193   0.000000
     7  N   -0.168607  -0.000000
     8  C   -0.149137   0.000000
     9  C   -0.193072  -0.000000
    10  C   -0.304537   0.000000
    11  C   -0.322186  -0.000000
    12  C   -0.289752  -0.000000
    13  C    0.142109  -0.000000
    14  N   -0.239247  -0.000000
    15  C    0.128431  -0.000000
    16  N   -0.448780   0.000000
    17  H    0.338334  -0.000000
    18  H    0.080156  -0.000000
    19  H    0.056626   0.000000
    20  H    0.060579  -0.000000
    21  H    0.047887  -0.000000
    22  H    0.267030  -0.000000
 Sum of Mulliken charges =  -2.00000  -0.00000

 Dipole moment (field-independent basis, Debye):
    X=             -3.2324    Y=              1.5494    Z=             -5.7741  Tot=              6.7963
 Quadrupole moment (field-independent basis, Debye-Ang):
   XX=           -161.4265   YY=           -131.2187   ZZ=           -138.8509
   XY=            -25.1611   XZ=            -30.0457   YZ=              4.7497

  Exact polarizability: 264.574  87.791 152.937 126.698 -33.733 201.071
 Approx polarizability: 450.053  72.491 273.307 199.290 -41.238 407.235

 ******    1 imaginary frequencies (negative Signs) ******

                      1                      2                      3
                      A                      A                      A
 Frequencies --    -32.4968                50.7924                85.6170
 Red. masses --      9.0470                 9.5606                 7.3313
 Frc consts  --      0.0056                 0.0145                 0.0317
 IR Inten    --      1.1257                 0.0080                 0.5615

                      4                      5                      6
                      A                      A                      A
 Frequencies --    128.0951               136.9303               195.1922
 Red. masses --      8.2341                 7.7870                 7.3645
 Frc consts  --      0.0796                 0.0860                 0.1653
 IR Inten    --      0.0080                 0.2441                 6.2435

                      7                      8                      9
                      A                      A                      A
 Frequencies --    246.1379               279.5572               325.4405
 Red. masses --      8.4006                 6.5542                11.1882
 Frc consts  --      0.2999                 0.3018                 0.6982
 IR Inten    --      3.0614                18.0807                 5.7968

                     10                     11                     12
                      A                      A                      A
 Frequencies --    370.6968               406.4157               421.1536
 Red. masses --      7.2028                 9.4829                 3.0244
 Frc consts  --      0.5832                 0.9229                 0.3161
 IR Inten    --      1.6676                17.4813                11.4211

                     13                     14                     15
                      A                      A                      A
 Frequencies --    452.8869               493.4402               512.5487
 Red. masses --      1.1266                 6.4092                 4.1094
 Frc consts  --      0.1361                 0.9194                 0.6361
 IR Inten    --      0.0001                 0.0576               190.7214

                     16                     17                     18
                      A                      A                      A
 Frequencies --    519.7276               529.3159               570.9462
 Red. masses --      9.1832                 9.2495                 6.8147
 Frc consts  --      1.4615                 1.5269                 1.3088
 IR Inten    --     27.4049                15.5494                12.9896

                     19                     20                     21
                      A                      A                      A
 Frequencies --    578.7777               594.2797               603.0861
 Red. masses --      1.1207                 1.3472                 7.6694
 Frc consts  --      0.2212                 0.2803                 1.6435
 IR Inten    --     82.4996                72.5466                 0.6093

                     22                     23                     24
                      A                      A                      A
 Frequencies --    628.3085               654.5594               680.7055
 Red. masses --     10.1786                 9.7815                 2.5157
 Frc consts  --      2.3675                 2.4692                 0.6868
 IR Inten    --      0.5654                67.6590                95.3644

                     25                     26                     27
                      A                      A                      A
 Frequencies --    699.3840               702.8664               726.9232
 Red. masses --      5.6804                 1.9646                 9.8133
 Frc consts  --      1.6371                 0.5718                 3.0552
 IR Inten    --     17.0697               197.7065                20.8741

                     28                     29                     30
                      A                      A                      A
 Frequencies --    760.4993               769.2110               814.1589
 Red. masses --      6.8470                 1.3593                 1.1518
 Frc consts  --      2.3332                 0.4739                 0.4498
 IR Inten    --     49.2131                75.1883               364.5447

                     31                     32                     33
                      A                      A                      A
 Frequencies --    834.9863               897.1682              1022.1284
 Red. masses --      6.2387                 5.6518                 2.4892
 Frc consts  --      2.5627                 2.6803                 1.5322
 IR Inten    --     10.3041                26.6401                55.2057

                     34                     35                     36
                      A                      A                      A
 Frequencies --   1043.0766              1046.6873              1088.0674
 Red. masses --      3.2494                 3.1859                 1.7261
 Frc consts  --      2.0830                 2.0564                 1.2040
 IR Inten    --     65.5729                 3.1639                21.5943

                     37                     38                     39
                      A                      A                      A
 Frequencies --   1137.2678              1161.0519              1185.8678
 Red. masses --      1.1168                 3.6489                 4.9970
 Frc consts  --      0.8510                 2.8981                 4.1403
 IR Inten    --      2.3299                35.7978               131.6114

                     40                     41                     42
                      A                      A                      A
 Frequencies --   1226.6061              1288.3599              1315.4311
 Red. masses --      3.5379                 2.3035                 2.8458
 Frc consts  --      3.1362                 2.2528                 2.9013
 IR Inten    --      2.1729                 7.0894               201.4305

                     43                     44                     45
                      A                      A                      A
 Frequencies --   1334.5894              1349.0157              1371.5870
 Red. masses --      5.1312                 2.3775                 2.7583
 Frc consts  --      5.3847                 2.5492                 3.0572
 IR Inten    --    129.5395                33.3018                57.2021

                     46                     47                     48
                      A                      A                      A
 Frequencies --   1383.2241              1425.1617              1459.6908
 Red. masses --      3.9525                 3.9646                 4.0481
 Frc consts  --      4.4556                 4.7444                 5.0819
 IR Inten    --    333.1097                41.3190               138.6044

                     49                     50                     51
                      A                      A                      A
 Frequencies --   1489.7671              1504.6496              1543.6760
 Red. masses --      4.2306                 6.6171                 4.8641
 Frc consts  --      5.5321                 8.8264                 6.8291
 IR Inten    --     59.8307               263.0577               172.8795

                     52                     53                     54
                      A                      A                      A
 Frequencies --   1610.9241              1640.5648              1685.7729
 Red. masses --      6.7026                 8.8480                 5.8005
 Frc consts  --     10.2481                14.0309                 9.7121
 IR Inten    --    781.8940              1179.9675              1328.1234

                     55                     56                     57
                      A                      A                      A
 Frequencies --   3069.3132              3097.0179              3124.9475
 Red. masses --      1.0832                 1.0854                 1.0889
 Frc consts  --      6.0122                 6.1335                 6.2653
 IR Inten    --     65.5104                65.3124               111.4068

                     58                     59                     60
                      A                      A                      A
 Frequencies --   3134.2283              3624.7428              3642.3827
 Red. masses --      1.0935                 1.0765                 1.0770
 Frc consts  --      6.3287                 8.3335                 8.4186
 IR Inten    --     79.9495                14.1164                20.4965

 - Thermochemistry -
 -------------------
 Temperature   298.150 Kelvin.  Pressure   1.00000 Atm.
 Atom     1 has atomic number  8 and mass  15.99491

 Molecular mass:   214.04908 amu.
 Principal axes and moments of inertia in atomic units:
                           1         2         3
     Eigenvalues --  1337.899325280.308136618.20738
           X            0.82982  -0.03142  -0.55714
           Y            0.38012  -0.69912   0.60559
           Z            0.40854   0.71431   0.56820
 This molecule is an asymmetric top.
 Rotational symmetry number  1.
 Warning -- assumption of classical behavior for rotation
           may cause significant error
 Rotational temperatures (Kelvin)      0.06474     0.01640     0.01309
 Rotational constants (GHZ):           1.34894     0.34179     0.27269
    1 imaginary frequencies ignored.
 Zero-point vibrational energy     386846.0 (Joules/Mol)
                                   92.45842 (Kcal/Mol)
 Warning -- explicit consideration of  20 degrees of freedom as
           vibrations may cause significant error
 Vibrational temperatures:     73.08   123.18   184.30   197.01   280.84
          (Kelvin)            354.14   402.22   468.24   533.35   584.74
                              605.95   651.60   709.95   737.44   747.77
                              761.57   821.46   832.73   855.04   867.71
                              904.00   941.76   979.38  1006.26  1011.27
                             1045.88  1094.19  1106.72  1171.39  1201.36
                             1290.82  1470.61  1500.75  1505.95  1565.49
                             1636.27  1670.49  1706.20  1764.81  1853.66
                             1892.61  1920.18  1940.93  1973.41  1990.15
                             2050.49  2100.17  2143.44  2164.86  2221.01
                             2317.76  2360.41  2425.45  4416.06  4455.92
                             4496.10  4509.46  5215.20  5240.58

 Zero-point correction=                           0.147342 (Hartree/Particle)
 Thermal correction to Energy=                    0.159124
 Thermal correction to Enthalpy=                  0.160068
 Thermal correction to Gibbs Free Energy=         0.109183
 Sum of electronic and zero-point Energies=           -754.209739
 Sum of electronic and thermal Energies=              -754.197958
 Sum of electronic and thermal Enthalpies=            -754.197014
 Sum of electronic and thermal Free Energies=         -754.247899

                     E (Thermal)             CV                S
                      KCal/Mol        Cal/Mol-Kelvin    Cal/Mol-Kelvin
 Total                   99.852             47.419            107.097
 Electronic               0.000              0.000              0.000
 Translational            0.889              2.981             41.987
 Rotational               0.889              2.981             32.214
 Vibrational             98.074             41.457             32.896
 Vibration     1          0.595              1.977              4.786
 Vibration     2          0.601              1.959              3.758
 Vibration     3          0.611              1.925              2.974
 Vibration     4          0.614              1.916              2.846
 Vibration     5          0.636              1.847              2.178
 Vibration     6          0.661              1.769              1.758
 Vibration     7          0.680              1.711              1.536
 Vibration     8          0.710              1.625              1.283
 Vibration     9          0.743              1.532              1.077
 Vibration    10          0.771              1.456              0.939
 Vibration    11          0.784              1.424              0.888
 Vibration    12          0.811              1.355              0.787
 Vibration    13          0.849              1.265              0.675
 Vibration    14          0.868              1.222              0.627
 Vibration    15          0.875              1.206              0.611
 Vibration    16          0.884              1.185              0.589
 Vibration    17          0.927              1.094              0.502
 Vibration    18          0.935              1.077              0.488
 Vibration    19          0.952              1.044              0.460
 Vibration    20          0.961              1.025              0.444

                           ! Non-Optimized Parameters !
 Normal termination of Gaussian 16 at Sat Jan  6 02:51:18 2024.
