 Q-Chem 5.4, Q-Chem, Inc., Pleasanton, CA (2021)
 Q-Chem 5.4.0 for Intel X86 EM64T Linux

User input:
--------------------------------------------------------------
$molecule
-2 1
C                 -5.4413060000     -0.2435350000     -0.5722080000
C                 -5.5823800000     -0.6377690000     -1.8913890000
C                 -4.4803140000     -0.5359850000     -2.7726820000
C                 -4.2218360000      0.2625170000     -0.0709880000
C                 -3.1034460000      0.3657920000     -0.9652810000
C                 -3.2746690000     -0.0431370000     -2.3069190000
C                 -4.1528410000      0.6729370000      1.3402050000
C                 -2.8641310000      1.1615510000      1.7208290000
C                 -1.7594760000      1.2530260000      0.8383560000
C                 -1.8007240000      0.8815200000     -0.5278040000
S                 -2.6455390000      1.8692190000      3.3545360000
C                 -2.6659760000      0.5312280000      4.5307890000
C                 -3.0868970000     -0.7702590000      4.2163300000
C                 -2.2616840000      0.8110340000      5.8458940000
C                 -2.2572250000     -0.1695050000      6.8421530000
C                 -3.0742410000     -1.7508640000      5.2025600000
C                 -2.6644830000     -1.4658690000      6.5083620000
C                 -1.8028610000      0.1658990000      8.2472280000
O                 -5.1589790000      0.5721900000      2.1181770000
O                 -0.8019710000      0.9713720000     -1.3315980000
H                 -6.2657410000     -0.3078840000      0.1309270000
H                 -6.5344630000     -1.0253450000     -2.2488720000
H                 -4.5823820000     -0.8442190000     -3.8117150000
H                 -2.4078520000      0.0492250000     -2.9540620000
H                 -0.8156420000      1.6329380000      1.2179890000
H                 -3.4407290000     -0.9830350000      3.2171220000
H                 -1.9342230000      1.8187750000      6.0903570000
H                 -3.4046000000     -2.7551290000      4.9514720000
H                 -2.6664040000     -2.2432770000      7.2671750000
H                 -0.7708490000      0.5384360000      8.2613680000
H                 -1.8404960000     -0.7088410000      8.9042630000
H                 -2.4288410000      0.9428040000      8.7003360000
$end
$rem
MAX_SCF_CYCLES=200
BASIS  =  6-311++G(d,p)
GUI  =  2
JOB_TYPE  =  SP
METHOD  =  B3LYP
SOLVENT_METHOD = COSMO
$end
$solvent
dielectric 37.219
opticaldielectric 1.43
$end

--------------------------------------------------------------

             Standard Nuclear Orientation (Angstroms)
    I     Atom           X                Y                Z
 ----------------------------------------------------------------
    1      C      -3.0861061656    -1.8610837300     0.4929969751
    2      C      -4.3998139814    -2.0217870466     0.0881426190
    3      C      -5.0821495715    -0.9395488454    -0.5158155095
    4      C      -2.3966444622    -0.6404808781     0.3221507480
    5      C      -3.0890334554     0.4577715527    -0.2907611282
    6      C      -4.4296469770     0.2670059170    -0.6943656670
    7      C      -1.0050192409    -0.5425537809     0.7895478989
    8      C      -0.4220838409     0.7415026304     0.5533759560
    9      C      -1.1048839578     1.8204102856    -0.0607341418
   10      C      -2.4483769077     1.7608455795    -0.5052450984
   11      S       1.2069020179     1.0966210165     1.2150941938
   12      C       2.3951722901     0.1966986178     0.2392037575
   13      C       2.0457903033    -0.8212885456    -0.6616634494
   14      C       3.7526638155     0.5133615380     0.4070904253
   15      C       4.7590346806    -0.1474807146    -0.3032009285
   16      C       3.0436845264    -1.4740795084    -1.3775314761
   17      C       4.3928177611    -1.1488519376    -1.2092781726
   18      C       6.2123209983     0.2292976091    -0.1052736257
   19      O      -0.4080933613    -1.5314051321     1.3313565048
   20      O      -3.0717286718     2.7409892506    -1.0551693601
   21      H      -2.5327580491    -2.6699420956     0.9596731987
   22      H      -4.9049580501    -2.9750445541     0.2316727006
   23      H      -6.1153828164    -1.0573919552    -0.8376193530
   24      H      -4.9212981990     1.1189685975    -1.1538601500
   25      H      -0.5791414637     2.7597807106    -0.2037551072
   26      H       1.0064125169    -1.1006049918    -0.7644422298
   27      H       4.0244164029     1.3027382380     1.1039187720
   28      H       2.7648251898    -2.2630977930    -2.0706534421
   29      H       5.1591819599    -1.6732769886    -1.7730408339
   30      H       6.3933014287     1.2850833873    -0.3431706591
   31      H       6.8747466395    -0.3646038899    -0.7430468858
   32      H       6.5324435302     0.0763496634     0.9314846342
 ----------------------------------------------------------------

   51   -1203.9077760806      7.10e-06  Convergence criterion met
 Total energy in the final basis set =    -1203.9077760806
    6   -1204.1792660052      3.09e-06  Convergence criterion met
 Total energy in the final basis set =    -1204.1792660052

                    Orbital Energies (a.u.)
 --------------------------------------------------------------

 Alpha MOs
 -- Occupied --
-88.8332 -19.0286 -19.0254 -10.1967 -10.1855 -10.1794 -10.1782 -10.1679
-10.1652 -10.1618 -10.1614 -10.1593 -10.1569 -10.1555 -10.1547 -10.1513
-10.1505 -10.1477 -10.1467 -10.1265  -7.9191  -5.8829  -5.8789  -5.8736
 -0.9516  -0.9433  -0.8579  -0.8331  -0.7951  -0.7678  -0.7546  -0.7287
 -0.7227  -0.6828  -0.6757  -0.6411  -0.5950  -0.5896  -0.5861  -0.5559
 -0.5296  -0.4992  -0.4792  -0.4715  -0.4597  -0.4410  -0.4330  -0.4207
 -0.4142  -0.4067  -0.4051  -0.4014  -0.3862  -0.3809  -0.3777  -0.3727
 -0.3643  -0.3584  -0.3446  -0.3375  -0.3321  -0.3276  -0.3228  -0.3134
 -0.3049  -0.2791  -0.2452  -0.2358  -0.2341  -0.2250  -0.2105  -0.2059
 -0.1977  -0.1226

          Ground-State Mulliken Net Atomic Charges

     Atom                 Charge (a.u.)
  ----------------------------------------
      1 C                     0.101549
      2 C                    -0.488580
      3 C                    -0.566149
      4 C                    -0.051673
      5 C                     0.304444
      6 C                    -0.120156
      7 C                    -0.784571
      8 C                     1.781153
      9 C                    -0.376615
     10 C                    -0.667833
     11 S                    -0.379856
     12 C                     0.245286
     13 C                    -0.092508
     14 C                     0.040768
     15 C                     0.063390
     16 C                    -0.174166
     17 C                    -1.194449
     18 C                    -0.422111
     19 O                    -0.623316
     20 O                    -0.747089
     21 H                     0.174132
     22 H                     0.185649
     23 H                     0.182677
     24 H                     0.167617
     25 H                     0.172593
     26 H                     0.167357
     27 H                     0.197860
     28 H                     0.231155
     29 H                     0.153652
     30 H                     0.174972
     31 H                     0.166843
     32 H                     0.177971
  ----------------------------------------
  Sum of atomic charges =    -2.000005

                    Cartesian Multipole Moments
 -----------------------------------------------------------------
    Charge (ESU x 10^10)
                -9.6064
    Dipole Moment (Debye)
         X      14.9637      Y      -6.6142      Z      -2.0983
       Tot      16.4943
    Quadrupole Moments (Debye-Ang)
        XX    -174.5972     XY      28.7040     YY    -172.0620
        XZ     -11.3150     YZ      19.0378     ZZ    -148.3937

 Total job time:  293.59s(wall), 2308.57s(cpu)
        *  Thank you very much for using Q-Chem.  Have a nice day.  *
