 Q-Chem 5.4, Q-Chem, Inc., Pleasanton, CA (2021)
 Q-Chem 5.4.0 for Intel X86 EM64T Linux

User input:
--------------------------------------------------------------
$molecule
-1 2
C                 -0.2250620000      3.8272890000     -0.1473050000
C                 -1.4414170000      3.1853320000     -0.2877360000
C                 -1.4822180000      1.8067060000     -0.5790380000
C                  0.9877030000      3.1190810000     -0.2917770000
C                  0.9485270000      1.7258850000     -0.5865530000
C                 -0.3011570000      1.0970130000     -0.7244780000
C                  2.2608170000      3.7919320000     -0.1443340000
C                  3.4462990000      2.9830640000     -0.3107090000
C                  3.4445970000      1.6324190000     -0.5885410000
C                  2.1870020000      0.9348090000     -0.7497980000
O                  2.4108690000      5.0305660000      0.1184320000
O                  2.1388850000     -0.2948190000     -1.0151780000
H                 -0.1679450000      4.8865610000      0.0767810000
H                 -2.3667190000      3.7428490000     -0.1738790000
H                 -2.4380810000      1.3031710000     -0.6891670000
H                 -0.3026360000      0.0364020000     -0.9493110000
O                  4.6077220000      3.6845000000     -0.1607970000
C                  4.7272820000      0.8580840000     -0.7490460000
C                  5.1913930000      0.7468730000     -2.2142790000
C                  6.4768200000     -0.0714890000     -2.3777560000
C                  6.9504220000     -0.1924270000     -3.8308980000
C                  8.2344810000     -1.0129740000     -3.9984980000
H                  4.2737260000      4.5881930000      0.0341200000
H                  4.5664180000     -0.1528110000     -0.3607260000
H                  5.5178790000      1.3320420000     -0.1581670000
H                  5.3449060000      1.7547680000     -2.6183440000
H                  4.3868130000      0.2874820000     -2.7983210000
H                  6.3173600000     -1.0769230000     -1.9657390000
H                  7.2757550000      0.3821330000     -1.7750210000
H                  7.1081430000      0.8128110000     -4.2438150000
H                  6.1514360000     -0.6449390000     -4.4326470000
H                  8.0774060000     -2.0186010000     -3.5858370000
H                  9.0344400000     -0.5609750000     -3.3965900000
C                  8.7076170000     -1.1349790000     -5.4516000000
C                  9.9909650000     -1.9570250000     -5.6082950000
H                  8.8653740000     -0.1308540000     -5.8644970000
H                  7.9094430000     -1.5872160000     -6.0531410000
H                 10.8171930000     -1.5100970000     -5.0454040000
H                 10.3012050000     -2.0252450000     -6.6557440000
H                  9.8539560000     -2.9773880000     -5.2351440000
$end
$rem
MAX_SCF_CYCLES=200
BASIS  =  6-311++G(d,p)
GUI  =  2
JOB_TYPE  =  SP
METHOD  =  B3LYP
THRESH = 14
SCF_CONVERGENCE = 8
SCF_ALGORITHM = RCA_DIIS
scf_guess = GWH
SOLVENT_METHOD = PCM
$end
$pcm
theory = CPCM
$end
$solvent
dielectric 37.219
opticaldielectric 1.43
$end

--------------------------------------------------------------

             Standard Nuclear Orientation (Angstroms)
    I     Atom           X                Y                Z
 ----------------------------------------------------------------
    1      C      -0.2250620000     3.8272890000    -0.1473050000
    2      C      -1.4414170000     3.1853320000    -0.2877360000
    3      C      -1.4822180000     1.8067060000    -0.5790380000
    4      C       0.9877030000     3.1190810000    -0.2917770000
    5      C       0.9485270000     1.7258850000    -0.5865530000
    6      C      -0.3011570000     1.0970130000    -0.7244780000
    7      C       2.2608170000     3.7919320000    -0.1443340000
    8      C       3.4462990000     2.9830640000    -0.3107090000
    9      C       3.4445970000     1.6324190000    -0.5885410000
   10      C       2.1870020000     0.9348090000    -0.7497980000
   11      O       2.4108690000     5.0305660000     0.1184320000
   12      O       2.1388850000    -0.2948190000    -1.0151780000
   13      H      -0.1679450000     4.8865610000     0.0767810000
   14      H      -2.3667190000     3.7428490000    -0.1738790000
   15      H      -2.4380810000     1.3031710000    -0.6891670000
   16      H      -0.3026360000     0.0364020000    -0.9493110000
   17      O       4.6077220000     3.6845000000    -0.1607970000
   18      C       4.7272820000     0.8580840000    -0.7490460000
   19      C       5.1913930000     0.7468730000    -2.2142790000
   20      C       6.4768200000    -0.0714890000    -2.3777560000
   21      C       6.9504220000    -0.1924270000    -3.8308980000
   22      C       8.2344810000    -1.0129740000    -3.9984980000
   23      H       4.2737260000     4.5881930000     0.0341200000
   24      H       4.5664180000    -0.1528110000    -0.3607260000
   25      H       5.5178790000     1.3320420000    -0.1581670000
   26      H       5.3449060000     1.7547680000    -2.6183440000
   27      H       4.3868130000     0.2874820000    -2.7983210000
   28      H       6.3173600000    -1.0769230000    -1.9657390000
   29      H       7.2757550000     0.3821330000    -1.7750210000
   30      H       7.1081430000     0.8128110000    -4.2438150000
   31      H       6.1514360000    -0.6449390000    -4.4326470000
   32      H       8.0774060000    -2.0186010000    -3.5858370000
   33      H       9.0344400000    -0.5609750000    -3.3965900000
   34      C       8.7076170000    -1.1349790000    -5.4516000000
   35      C       9.9909650000    -1.9570250000    -5.6082950000
   36      H       8.8653740000    -0.1308540000    -5.8644970000
   37      H       7.9094430000    -1.5872160000    -6.0531410000
   38      H      10.8171930000    -1.5100970000    -5.0454040000
   39      H      10.3012050000    -2.0252450000    -6.6557440000
   40      H       9.8539560000    -2.9773880000    -5.2351440000
 ----------------------------------------------------------------

  102    -885.9479760868      7.81E-09 Convergence criterion met
 Total energy in the final basis set = -885.94797609

                    Orbital Energies (a.u.)
 --------------------------------------------------------------

 Alpha MOs
 -- Occupied --
-19.1435 -19.0871 -19.0757 -10.2242 -10.2219 -10.2215 -10.1748 -10.1727
-10.1719 -10.1709 -10.1705 -10.1691 -10.1626 -10.1569 -10.1568 -10.1545
-10.1543 -10.1540 -10.1537 -10.1509  -1.0635  -1.0014  -0.9970  -0.8585
 -0.8134  -0.7988  -0.7750  -0.7512  -0.7480  -0.7169  -0.6817  -0.6588
 -0.6239  -0.6126  -0.5871  -0.5713  -0.5695  -0.5664  -0.5367  -0.5044
 -0.4844  -0.4747  -0.4611  -0.4524  -0.4449  -0.4378  -0.4268  -0.4244
 -0.4201  -0.4159  -0.4085  -0.3988  -0.3962  -0.3884  -0.3804  -0.3751
 -0.3659  -0.3620  -0.3577  -0.3455  -0.3438  -0.3369  -0.3323  -0.3309
 -0.3183  -0.3174  -0.3140  -0.3054  -0.2677  -0.2612  -0.2580  -0.2412
 -0.2277  -0.1519

 Beta MOs
 -- Occupied --
-19.1430 -19.0810 -19.0705 -10.2228 -10.2206 -10.2188 -10.1747 -10.1718
-10.1716 -10.1701 -10.1700 -10.1693 -10.1618 -10.1569 -10.1569 -10.1544
-10.1543 -10.1540 -10.1537 -10.1509  -1.0613  -0.9922  -0.9865  -0.8561
 -0.8112  -0.7976  -0.7736  -0.7490  -0.7469  -0.7159  -0.6770  -0.6540
 -0.6227  -0.6107  -0.5855  -0.5702  -0.5694  -0.5647  -0.5349  -0.5021
 -0.4821  -0.4739  -0.4598  -0.4515  -0.4444  -0.4306  -0.4255  -0.4193
 -0.4186  -0.4117  -0.4073  -0.3963  -0.3936  -0.3789  -0.3773  -0.3717
 -0.3648  -0.3600  -0.3480  -0.3439  -0.3358  -0.3329  -0.3299  -0.3276
 -0.3182  -0.3170  -0.3138  -0.3045  -0.2558  -0.2509  -0.2483  -0.2363
 -0.2190

          Ground-State Mulliken Net Atomic Charges

     Atom                 Charge (a.u.)    Spin (a.u.)
  --------------------------------------------------------
      1 C                     0.056470       0.075273
      2 C                    -0.386840      -0.000813
      3 C                    -0.467176       0.071498
      4 C                     0.467750      -0.004554
      5 C                    -0.091429       0.057980
      6 C                     0.090937       0.004747
      7 C                    -0.876276       0.170931
      8 C                    -0.574377       0.060051
      9 C                     1.958798       0.049918
     10 C                    -0.679218       0.082163
     11 O                    -0.540583       0.226078
     12 O                    -0.479849       0.193644
     13 H                     0.173708      -0.004100
     14 H                     0.199387      -0.000651
     15 H                     0.194569      -0.005049
     16 H                     0.173484      -0.000365
     17 O                    -0.297688       0.016360
     18 C                    -0.416782       0.011046
     19 C                    -0.597561      -0.001893
     20 C                    -0.094838       0.002341
     21 C                    -0.111612      -0.003026
     22 C                    -0.281433      -0.000376
     23 H                     0.302778      -0.003498
     24 H                     0.198755       0.002485
     25 H                     0.216345      -0.000562
     26 H                     0.166436       0.001886
     27 H                     0.174835      -0.001737
     28 H                     0.118810       0.000466
     29 H                     0.117962      -0.000291
     30 H                     0.128408      -0.000011
     31 H                     0.127878      -0.000016
     32 H                     0.130626      -0.000004
     33 H                     0.130364      -0.000009
     34 C                    -0.237375      -0.000021
     35 C                    -0.702957       0.000099
     36 H                     0.135153      -0.000002
     37 H                     0.135339      -0.000002
     38 H                     0.144476      -0.000015
     39 H                     0.148263       0.000020
     40 H                     0.144464       0.000007
  --------------------------------------------------------
  Sum of atomic charges =    -1.000000

                    Cartesian Multipole Moments
 -----------------------------------------------------------------
    Charge (ESU x 10^10)
                -4.8032
    Dipole Moment (Debye)
         X     -11.9641      Y     -10.6616      Z       2.2291
       Tot      16.1796
    Quadrupole Moments (Debye-Ang)
        XX    -157.0605     XY     -27.3792     YY    -179.4381
        XZ       5.4631     YZ      -1.0179     ZZ    -130.6353

 Total job time:  2254.06s(wall), 14406.38s(cpu)
        *  Thank you very much for using Q-Chem.  Have a nice day.  *
