 Q-Chem 5.4, Q-Chem, Inc., Pleasanton, CA (2021)
 Q-Chem 5.4.0 for Intel X86 EM64T Linux

User input:
--------------------------------------------------------------
$molecule
-1 2
C                  5.0468290000     -2.5047400000      0.0935290000
C                  5.7636650000     -1.5464220000     -0.5964450000
C                  5.0835700000     -0.5091140000     -1.2674090000
C                  3.6378420000     -2.4665720000      0.1399570000
C                  2.9513620000     -1.4214030000     -0.5363410000
C                  3.7040360000     -0.4527980000     -1.2345340000
C                  2.9206270000     -3.5100100000      0.8868300000
C                  1.4591400000     -3.4071550000      0.8855080000
C                  0.7723190000     -2.3524930000      0.2080130000
C                  1.4861850000     -1.3171480000     -0.5291280000
C                  0.7127900000     -4.3770990000      1.5800930000
C                 -0.6424910000     -2.3166390000      0.2562410000
C                 -1.3662540000     -3.2631880000      0.9417990000
O                  3.5230430000     -4.4247700000      1.4890620000
O                  0.8869010000     -0.3883340000     -1.1247950000
H                  5.5413550000     -3.3137270000      0.6185270000
H                 -2.4481750000     -3.2373520000      0.9692010000
H                  3.1562140000      0.3331610000     -1.7411080000
H                  1.2464770000     -5.1763480000      2.0791220000
H                 -1.1373430000     -1.5107870000     -0.2726890000
C                 -0.6660030000     -4.3010120000      1.6064410000
H                  5.6460130000      0.2446690000     -1.8101800000
H                  6.8481350000     -1.5905870000     -0.6231380000
S                 -1.5849650000     -5.4912260000      2.5492860000
O                 -0.7340650000     -6.6521460000      2.8334000000
O                 -2.9194380000     -5.6931710000      1.9736650000
N                 -1.8967380000     -4.6406680000      4.0066630000
H                 -1.0872690000     -4.7072380000      4.6186160000
H                 -2.7021250000     -5.0775320000      4.4486320000
$end

$rem
BASIS  =  6-311++G(d,p)
GUI  =  2
JOB_TYPE  =  SP
METHOD  =  B3LYP
SCF_CONVERGENCE  = 8
SOLVENT_METHOD = sm12
$end

$smx
solvent dimethylformamide
charges CM5
$end

--------------------------------------------------------------

             Standard Nuclear Orientation (Angstroms)
    I     Atom           X                Y                Z
 ----------------------------------------------------------------
    1      C       5.0468290000    -2.5047400000     0.0935290000
    2      C       5.7636650000    -1.5464220000    -0.5964450000
    3      C       5.0835700000    -0.5091140000    -1.2674090000
    4      C       3.6378420000    -2.4665720000     0.1399570000
    5      C       2.9513620000    -1.4214030000    -0.5363410000
    6      C       3.7040360000    -0.4527980000    -1.2345340000
    7      C       2.9206270000    -3.5100100000     0.8868300000
    8      C       1.4591400000    -3.4071550000     0.8855080000
    9      C       0.7723190000    -2.3524930000     0.2080130000
   10      C       1.4861850000    -1.3171480000    -0.5291280000
   11      C       0.7127900000    -4.3770990000     1.5800930000
   12      C      -0.6424910000    -2.3166390000     0.2562410000
   13      C      -1.3662540000    -3.2631880000     0.9417990000
   14      O       3.5230430000    -4.4247700000     1.4890620000
   15      O       0.8869010000    -0.3883340000    -1.1247950000
   16      H       5.5413550000    -3.3137270000     0.6185270000
   17      H      -2.4481750000    -3.2373520000     0.9692010000
   18      H       3.1562140000     0.3331610000    -1.7411080000
   19      H       1.2464770000    -5.1763480000     2.0791220000
   20      H      -1.1373430000    -1.5107870000    -0.2726890000
   21      C      -0.6660030000    -4.3010120000     1.6064410000
   22      H       5.6460130000     0.2446690000    -1.8101800000
   23      H       6.8481350000    -1.5905870000    -0.6231380000
   24      S      -1.5849650000    -5.4912260000     2.5492860000
   25      O      -0.7340650000    -6.6521460000     2.8334000000
   26      O      -2.9194380000    -5.6931710000     1.9736650000
   27      N      -1.8967380000    -4.6406680000     4.0066630000
   28      H      -1.0872690000    -4.7072380000     4.6186160000
   29      H      -2.7021250000    -5.0775320000     4.4486320000
 ----------------------------------------------------------------

   17   -1293.0441347375      8.75e-09  Convergence criterion met
 Total energy in the final basis set =    -1293.1335191789

                    Orbital Energies (a.u.)
 --------------------------------------------------------------

 Alpha MOs
 -- Occupied --
-89.0701 -19.1220 -19.1219 -19.0864 -19.0832 -14.3398 -10.2372 -10.2320
-10.2166 -10.1987 -10.1961 -10.1895 -10.1890 -10.1878 -10.1860 -10.1858
-10.1855 -10.1851 -10.1823 -10.1815  -8.1318  -6.0947  -6.0942  -6.0926
 -1.1244  -1.0150  -1.0139  -1.0091  -0.9050  -0.8808  -0.8670  -0.8066
 -0.7766  -0.7618  -0.7602  -0.6979  -0.6724  -0.6444  -0.6191  -0.6028
 -0.5719  -0.5536  -0.5457  -0.5217  -0.5131  -0.4944  -0.4869  -0.4767
 -0.4711  -0.4537  -0.4469  -0.4359  -0.4345  -0.4296  -0.4203  -0.4182
 -0.4027  -0.3892  -0.3850  -0.3712  -0.3627  -0.3618  -0.3536  -0.3476
 -0.3388  -0.3259  -0.3149  -0.2949  -0.2787  -0.2766  -0.2669  -0.2639
 -0.2541  -0.2452  -0.1535

 Beta MOs
 -- Occupied --
-89.0701 -19.1220 -19.1219 -19.0809 -19.0768 -14.3398 -10.2361 -10.2307
-10.2158 -10.1991 -10.1952 -10.1884 -10.1881 -10.1874 -10.1856 -10.1855
-10.1849 -10.1847 -10.1823 -10.1815  -8.1318  -6.0946  -6.0942  -6.0926
 -1.1243  -1.0138  -1.0055  -0.9982  -0.9048  -0.8784  -0.8657  -0.8025
 -0.7746  -0.7601  -0.7584  -0.6940  -0.6679  -0.6424  -0.6173  -0.6021
 -0.5699  -0.5521  -0.5441  -0.5211  -0.5123  -0.4935  -0.4849  -0.4751
 -0.4700  -0.4534  -0.4466  -0.4356  -0.4282  -0.4225  -0.4168  -0.4141
 -0.3997  -0.3814  -0.3703  -0.3664  -0.3621  -0.3608  -0.3461  -0.3431
 -0.3383  -0.3254  -0.3146  -0.2912  -0.2727  -0.2592  -0.2592  -0.2559
 -0.2488  -0.2396

          Ground-State Mulliken Net Atomic Charges

     Atom                 Charge (a.u.)    Spin (a.u.)
  --------------------------------------------------------
      1 C                    -0.043898       0.014519
      2 C                     1.029181       0.035715
      3 C                     1.007998       0.020451
      4 C                    -0.254412       0.029929
      5 C                    -0.811786       0.016419
      6 C                     0.072845       0.034095
      7 C                    -1.573415       0.051990
      8 C                    -0.765425       0.084176
      9 C                    -1.085045       0.092327
     10 C                    -2.142555       0.068148
     11 C                    -0.056679      -0.018520
     12 C                    -0.017015       0.019121
     13 C                     0.701104       0.081762
     14 O                    -0.303172       0.204870
     15 O                    -0.302329       0.237082
     16 H                     0.158066      -0.001261
     17 H                     0.318076      -0.004811
     18 H                     0.166146      -0.002426
     19 H                     0.178900       0.000757
     20 H                     0.197918      -0.000829
     21 C                     0.886290       0.033856
     22 H                     0.364177      -0.001757
     23 H                     0.363873      -0.002696
     24 S                     0.777265       0.005777
     25 O                    -0.206962       0.002337
     26 O                    -0.265790      -0.002273
     27 N                    -0.145027       0.000265
     28 H                     0.352168      -0.000212
     29 H                     0.399503       0.001191
  --------------------------------------------------------
  Sum of atomic charges =    -1.000000

                    Cartesian Multipole Moments
 -----------------------------------------------------------------
    Charge (ESU x 10^10)
                -4.8032
    Dipole Moment (Debye)
         X      -6.0947      Y      16.5180      Z      -0.7072
       Tot      17.6207
    Quadrupole Moments (Debye-Ang)
        XX    -156.4631     XY      15.2866     YY    -221.0829
        XZ      -8.2615     YZ      15.9521     ZZ    -122.8784

 Total job time:  896.53s(wall), 6829.16s(cpu)
        *  Thank you very much for using Q-Chem.  Have a nice day.  *
