 Gaussian 16, Revision A.03,
 Gaussian 16:  ES64L-G16RevA.03 25-Dec-2016

 --------------------------------------
 #P UB3LYP/6-311++G(d,p) nosym opt freq
 --------------------------------------

 --------
 Oxidized
 --------
 Symbolic Z-matrix:
 Charge =  0 Multiplicity = 1

 SCF Done:  E(UB3LYP) =  -10675.6711778     A.U. after   17 cycles
 SCF Done:  E(UB3LYP) =  -10675.6883603     A.U. after   15 cycles
 SCF Done:  E(UB3LYP) =  -10675.6912601     A.U. after   14 cycles
 SCF Done:  E(UB3LYP) =  -10675.6920268     A.U. after   13 cycles
 SCF Done:  E(UB3LYP) =  -10675.6920868     A.U. after   12 cycles
 SCF Done:  E(UB3LYP) =  -10675.6920909     A.U. after   11 cycles
 Optimization completed.
    -- Stationary point found.
 Normal termination of Gaussian 16 at Sat Jan  6 01:42:15 2024.

 ----------------------------------------------------------------------
 #P Geom=AllCheck Guess=TCheck SCRF=Check GenChk UB3LYP/6-311++G(d,p) F
 req
 ----------------------------------------------------------------------

 Structure from the checkpoint file:  "318.chk"
 --------
 Oxidized
 --------
 Charge =  0 Multiplicity = 1

                          Input orientation:
 ---------------------------------------------------------------------
 Center     Atomic      Atomic             Coordinates (Angstroms)
 Number     Number       Type             X           Y           Z
 ---------------------------------------------------------------------
      1         35           0       -2.312533    2.115660    0.800771
      2          6           0       -1.005887    0.823798    0.337290
      3          6           0       -1.350026   -0.487438    0.266204
      4         35           0       -3.086461   -1.150813    0.604380
      5          6           0       -0.348413   -1.517606   -0.094418
      6          8           0       -0.593627   -2.693134   -0.173491
      7          6           0        1.105019   -1.031283   -0.385614
      8          8           0        1.940798   -1.845069   -0.681375
      9          6           0        1.369309    0.422463   -0.278284
     10          6           0        0.378973    1.286729    0.060138
     11         35           0        0.752854    3.140067    0.188307
     12         35           0        3.149996    0.936627   -0.643908
 ---------------------------------------------------------------------

 SCF Done:  E(UB3LYP) =  -10675.6920909     A.U. after    1 cycles

 Alpha  occ. eigenvalues -- -482.87643-482.87636-482.86490-482.86488 -62.52915
 Alpha  occ. eigenvalues --  -62.52909 -62.51753 -62.51751 -56.34976 -56.34970
 Alpha  occ. eigenvalues --  -56.34575 -56.34569 -56.34515 -56.34509 -56.33815
 Alpha  occ. eigenvalues --  -56.33813 -56.33411 -56.33410 -56.33357 -56.33355
 Alpha  occ. eigenvalues --  -19.16870 -19.16868 -10.31395 -10.31377 -10.31026
 Alpha  occ. eigenvalues --  -10.30997 -10.28526 -10.28521  -8.73892  -8.73886
 Alpha  occ. eigenvalues --   -8.72722  -8.72720  -6.57110  -6.57104  -6.55942
 Alpha  occ. eigenvalues --   -6.55940  -6.55767  -6.55761  -6.55601  -6.55595
 Alpha  occ. eigenvalues --   -6.54592  -6.54590  -6.54434  -6.54432  -2.68193
 Alpha  occ. eigenvalues --   -2.68187  -2.67839  -2.67833  -2.67713  -2.67707
 Alpha  occ. eigenvalues --   -2.67025  -2.67023  -2.66665  -2.66663  -2.66642
 Alpha  occ. eigenvalues --   -2.66640  -2.66636  -2.66635  -2.66545  -2.66544
 Alpha  occ. eigenvalues --   -2.65470  -2.65468  -2.65467  -2.65466  -1.11609
 Alpha  occ. eigenvalues --   -1.08889  -0.94315  -0.88693  -0.85082  -0.82858
 Alpha  occ. eigenvalues --   -0.81321  -0.75218  -0.72846  -0.63160  -0.63125
 Alpha  occ. eigenvalues --   -0.57627  -0.51885  -0.49427  -0.49409  -0.47578
 Alpha  occ. eigenvalues --   -0.46473  -0.44806  -0.43310  -0.43222  -0.43081
 Alpha  occ. eigenvalues --   -0.37685  -0.36001  -0.34592  -0.34520  -0.33669
 Alpha  occ. eigenvalues --   -0.33612  -0.31666  -0.31294  -0.29361  -0.29225
 Alpha  occ. eigenvalues --   -0.27199
 Alpha virt. eigenvalues --   -0.16806  -0.09380  -0.05058  -0.04973  -0.04670
 Alpha virt. eigenvalues --   -0.02372  -0.01381  -0.00995   0.01371   0.01988
 Alpha virt. eigenvalues --    0.02648   0.03628   0.04336   0.04494   0.04733

  Beta  occ. eigenvalues -- -482.87643-482.87636-482.86490-482.86488 -62.52915
  Beta  occ. eigenvalues --  -62.52909 -62.51753 -62.51751 -56.34976 -56.34970
  Beta  occ. eigenvalues --  -56.34575 -56.34569 -56.34515 -56.34509 -56.33815
  Beta  occ. eigenvalues --  -56.33813 -56.33411 -56.33410 -56.33357 -56.33355
  Beta  occ. eigenvalues --  -19.16870 -19.16868 -10.31395 -10.31377 -10.31026
  Beta  occ. eigenvalues --  -10.30997 -10.28526 -10.28521  -8.73892  -8.73886
  Beta  occ. eigenvalues --   -8.72722  -8.72720  -6.57110  -6.57104  -6.55942
  Beta  occ. eigenvalues --   -6.55940  -6.55767  -6.55761  -6.55601  -6.55595
  Beta  occ. eigenvalues --   -6.54592  -6.54590  -6.54434  -6.54432  -2.68193
  Beta  occ. eigenvalues --   -2.68187  -2.67839  -2.67833  -2.67713  -2.67707
  Beta  occ. eigenvalues --   -2.67025  -2.67023  -2.66665  -2.66663  -2.66642
  Beta  occ. eigenvalues --   -2.66640  -2.66636  -2.66635  -2.66545  -2.66544
  Beta  occ. eigenvalues --   -2.65470  -2.65468  -2.65467  -2.65466  -1.11609
  Beta  occ. eigenvalues --   -1.08889  -0.94315  -0.88693  -0.85082  -0.82858
  Beta  occ. eigenvalues --   -0.81321  -0.75218  -0.72846  -0.63160  -0.63125
  Beta  occ. eigenvalues --   -0.57627  -0.51885  -0.49427  -0.49409  -0.47578
  Beta  occ. eigenvalues --   -0.46473  -0.44806  -0.43310  -0.43222  -0.43081
  Beta  occ. eigenvalues --   -0.37685  -0.36001  -0.34592  -0.34520  -0.33669
  Beta  occ. eigenvalues --   -0.33612  -0.31666  -0.31294  -0.29361  -0.29225
  Beta  occ. eigenvalues --   -0.27199
  Beta virt. eigenvalues --   -0.16806  -0.09380  -0.05058  -0.04973  -0.04670
  Beta virt. eigenvalues --   -0.02372  -0.01381  -0.00995   0.01371   0.01988
  Beta virt. eigenvalues --    0.02648   0.03628   0.04336   0.04494   0.04733

 Mulliken charges and spin densities:
               1          2
     1  Br  -0.038085   0.000000
     2  C   -0.397322  -0.000000
     3  C    0.755876   0.000000
     4  Br  -0.007704  -0.000000
     5  C   -0.171766   0.000000
     6  O   -0.140677  -0.000000
     7  C   -0.171363   0.000000
     8  O   -0.140713  -0.000000
     9  C    0.755705   0.000000
    10  C   -0.397949  -0.000000
    11  Br  -0.038302   0.000000
    12  Br  -0.007700  -0.000000
 Sum of Mulliken charges =  -0.00000  -0.00000

 Dipole moment (field-independent basis, Debye):
    X=             -1.1999    Y=              4.0428    Z=              0.7615  Tot=              4.2854
 Quadrupole moment (field-independent basis, Debye-Ang):
   XX=           -114.9480   YY=           -122.9568   ZZ=           -116.0272
   XY=              2.6765   XZ=              0.1057   YZ=             -1.4777

  Exact polarizability: 203.657   8.650 192.986 -28.229  10.995  89.531
 Approx polarizability: 320.349  -1.008 347.417 -45.056  25.411 146.390

                      1                      2                      3
                      A                      A                      A
 Frequencies --     17.9281                42.6290                47.5229
 Red. masses --     31.5521                26.4663                22.8097
 Frc consts  --      0.0060                 0.0283                 0.0304
 IR Inten    --      0.0000                 0.8673                 0.0001

                      4                      5                      6
                      A                      A                      A
 Frequencies --    136.7905               139.1612               155.8843
 Red. masses --     50.0530                66.2618                74.9515
 Frc consts  --      0.5518                 0.7560                 1.0731
 IR Inten    --      0.4620                 0.0506                 0.0381

                      7                      8                      9
                      A                      A                      A
 Frequencies --    162.8383               202.8467               208.9951
 Red. masses --     13.3655                60.2987                57.3253
 Frc consts  --      0.2088                 1.4618                 1.4753
 IR Inten    --      2.1905                 0.0263                 1.9569

                     10                     11                     12
                      A                      A                      A
 Frequencies --    253.1649               275.9390               328.4459
 Red. masses --     19.2057                12.3723                18.9804
 Frc consts  --      0.7253                 0.5550                 1.2064
 IR Inten    --      1.2989                 0.0000                 3.9326

                     13                     14                     15
                      A                      A                      A
 Frequencies --    382.6430               404.0185               428.0323
 Red. masses --     15.8039                12.3994                15.4170
 Frc consts  --      1.3633                 1.1925                 1.6642
 IR Inten    --      4.8207                 7.1499                 2.7513

                     16                     17                     18
                      A                      A                      A
 Frequencies --    565.5612               567.9257               602.8573
 Red. masses --     12.1732                12.0515                13.2724
 Frc consts  --      2.2941                 2.2902                 2.8420
 IR Inten    --      7.7803                 0.0001                45.2127

                     19                     20                     21
                      A                      A                      A
 Frequencies --    722.6387               724.6346               805.7877
 Red. masses --     12.8524                12.7676                12.1658
 Frc consts  --      3.9544                 3.9500                 4.6541
 IR Inten    --     24.9274                78.4355                 0.0000

                     22                     23                     24
                      A                      A                      A
 Frequencies --    843.8858               936.9417              1084.8963
 Red. masses --     12.6296                12.4417                12.0803
 Frc consts  --      5.2992                 6.4351                 8.3773
 IR Inten    --      0.0246                 2.3792                22.5352

                     25                     26                     27
                      A                      A                      A
 Frequencies --   1139.3960              1215.7597              1516.0252
 Red. masses --     12.1313                12.0126                12.0064
 Frc consts  --      9.2791                10.4612                16.2584
 IR Inten    --     20.1238               336.7956                54.0215

                     28                     29                     30
                      A                      A                      A
 Frequencies --   1561.5943              1758.3472              1776.1960
 Red. masses --     12.0084                13.3409                13.2283
 Frc consts  --     17.2533                24.3021                24.5888
 IR Inten    --     53.6167               333.2359                49.0025

 - Thermochemistry -
 -------------------
 Temperature   298.150 Kelvin.  Pressure   1.00000 Atm.
 Atom     1 has atomic number 35 and mass  78.91834

 Molecular mass:   419.66317 amu.
 Principal axes and moments of inertia in atomic units:
                           1         2         3
     Eigenvalues --  4330.504468332.27665**********
           X            0.93165  -0.28029   0.23124
           Y            0.31191   0.94334  -0.11321
           Z           -0.18640   0.17760   0.96629
 This molecule is an asymmetric top.
 Rotational symmetry number  1.
 Warning -- assumption of classical behavior for rotation
           may cause significant error
 Rotational temperatures (Kelvin)      0.02000     0.01039     0.00684
 Rotational constants (GHZ):           0.41675     0.21660     0.14252
 Zero-point vibrational energy     113700.8 (Joules/Mol)
                                   27.17514 (Kcal/Mol)
 Warning -- explicit consideration of  18 degrees of freedom as
           vibrations may cause significant error
 Vibrational temperatures:     25.79    61.33    68.37   196.81   200.22
          (Kelvin)            224.28   234.29   291.85   300.70   364.25
                              397.01   472.56   550.54   581.29   615.84
                              813.72   817.12   867.38  1039.72  1042.59
                             1159.35  1214.16  1348.05  1560.92  1639.34
                             1749.21  2181.22  2246.79  2529.87  2555.55

 Zero-point correction=                           0.043306 (Hartree/Particle)
 Thermal correction to Energy=                    0.055643
 Thermal correction to Enthalpy=                  0.056587
 Thermal correction to Gibbs Free Energy=        -0.000617
 Sum of electronic and zero-point Energies=         -10675.648785
 Sum of electronic and thermal Energies=            -10675.636448
 Sum of electronic and thermal Enthalpies=          -10675.635504
 Sum of electronic and thermal Free Energies=       -10675.692708

                     E (Thermal)             CV                S
                      KCal/Mol        Cal/Mol-Kelvin    Cal/Mol-Kelvin
 Total                   34.917             40.055            120.398
 Electronic               0.000              0.000              0.000
 Translational            0.889              2.981             43.993
 Rotational               0.889              2.981             34.479
 Vibrational             33.139             34.094             41.926
 Vibration     1          0.593              1.986              6.851
 Vibration     2          0.595              1.980              5.133
 Vibration     3          0.595              1.979              4.918
 Vibration     4          0.614              1.917              2.848
 Vibration     5          0.615              1.914              2.815
 Vibration     6          0.620              1.896              2.599
 Vibration     7          0.623              1.888              2.517
 Vibration     8          0.639              1.836              2.107
 Vibration     9          0.642              1.827              2.052
 Vibration    10          0.664              1.757              1.708
 Vibration    11          0.678              1.718              1.559
 Vibration    12          0.712              1.619              1.268
 Vibration    13          0.752              1.507              1.029
 Vibration    14          0.769              1.461              0.948
 Vibration    15          0.790              1.409              0.865
 Vibration    16          0.921              1.106              0.513
 Vibration    17          0.924              1.101              0.508
 Vibration    18          0.961              1.026              0.445

                           ! Non-Optimized Parameters !
 Normal termination of Gaussian 16 at Sat Jan  6 01:51:12 2024.
