 Q-Chem 5.4, Q-Chem, Inc., Pleasanton, CA (2021)
 Q-Chem 5.4.0 for Intel X86 EM64T Linux

User input:
--------------------------------------------------------------
$molecule
-1 2
C                 -3.2395100000      2.9975900000     -0.1255360000
O                 -1.9209030000      2.5098810000     -0.0864600000
C                 -1.7200600000      1.1550080000     -0.0597640000
C                 -2.7819250000      0.2735250000     -0.0699550000
C                 -2.5630690000     -1.1169850000     -0.0419260000
C                 -1.2819430000     -1.6287360000     -0.0029760000
O                 -1.0569760000     -2.9798200000      0.0242590000
C                 -2.1619560000     -3.8498700000      0.0109400000
C                 -0.1411800000     -0.7556230000      0.0099330000
C                  1.2188030000     -1.3125430000      0.0530960000
O                  1.4774640000     -2.5376730000      0.0821190000
C                  2.3278100000     -0.3467510000      0.0622140000
C                  3.6529730000     -0.8327000000      0.1029540000
C                  4.7295070000      0.0322470000      0.1129520000
C                  4.5102250000      1.4257740000      0.0821580000
C                  3.2202730000      1.9172630000      0.0421350000
C                  2.1085480000      1.0467490000      0.0314070000
C                  0.7567200000      1.6242240000     -0.0115050000
O                  0.6267470000      2.8696400000     -0.0382140000
C                 -0.3664060000      0.6754890000     -0.0203280000
H                 -3.1503090000      4.0848000000     -0.1415260000
H                 -3.8195530000      2.6980600000      0.7588120000
H                 -3.7775700000      2.6683160000     -1.0256830000
H                 -3.8014250000      0.6317600000     -0.0995780000
H                 -3.4231200000     -1.7718320000     -0.0516100000
H                 -2.8120110000     -3.7090520000      0.8860430000
H                 -1.7432700000     -4.8569850000      0.0365700000
H                 -2.7688780000     -3.7365180000     -0.8984500000
H                  3.7864220000     -1.9077720000      0.1258310000
H                  5.7428250000     -0.3580200000      0.1443770000
H                  5.3545960000      2.1092160000      0.0899510000
H                  3.0171480000      2.9813400000      0.0177600000
$end

$rem
BASIS  =  6-311++G(d,p)
GUI  =  2
JOB_TYPE  =  SP
METHOD  =  B3LYP
SCF_CONVERGENCE  = 8
SOLVENT_METHOD = sm12
$end

$smx
solvent dimethylformamide
charges CM5
$end

--------------------------------------------------------------

             Standard Nuclear Orientation (Angstroms)
    I     Atom           X                Y                Z
 ----------------------------------------------------------------
    1      C      -3.2395100000     2.9975900000    -0.1255360000
    2      O      -1.9209030000     2.5098810000    -0.0864600000
    3      C      -1.7200600000     1.1550080000    -0.0597640000
    4      C      -2.7819250000     0.2735250000    -0.0699550000
    5      C      -2.5630690000    -1.1169850000    -0.0419260000
    6      C      -1.2819430000    -1.6287360000    -0.0029760000
    7      O      -1.0569760000    -2.9798200000     0.0242590000
    8      C      -2.1619560000    -3.8498700000     0.0109400000
    9      C      -0.1411800000    -0.7556230000     0.0099330000
   10      C       1.2188030000    -1.3125430000     0.0530960000
   11      O       1.4774640000    -2.5376730000     0.0821190000
   12      C       2.3278100000    -0.3467510000     0.0622140000
   13      C       3.6529730000    -0.8327000000     0.1029540000
   14      C       4.7295070000     0.0322470000     0.1129520000
   15      C       4.5102250000     1.4257740000     0.0821580000
   16      C       3.2202730000     1.9172630000     0.0421350000
   17      C       2.1085480000     1.0467490000     0.0314070000
   18      C       0.7567200000     1.6242240000    -0.0115050000
   19      O       0.6267470000     2.8696400000    -0.0382140000
   20      C      -0.3664060000     0.6754890000    -0.0203280000
   21      H      -3.1503090000     4.0848000000    -0.1415260000
   22      H      -3.8195530000     2.6980600000     0.7588120000
   23      H      -3.7775700000     2.6683160000    -1.0256830000
   24      H      -3.8014250000     0.6317600000    -0.0995780000
   25      H      -3.4231200000    -1.7718320000    -0.0516100000
   26      H      -2.8120110000    -3.7090520000     0.8860430000
   27      H      -1.7432700000    -4.8569850000     0.0365700000
   28      H      -2.7688780000    -3.7365180000    -0.8984500000
   29      H       3.7864220000    -1.9077720000     0.1258310000
   30      H       5.7428250000    -0.3580200000     0.1443770000
   31      H       5.3545960000     2.1092160000     0.0899510000
   32      H       3.0171480000     2.9813400000     0.0177600000
 ----------------------------------------------------------------

   15    -918.0904884444      9.72e-09  Convergence criterion met
 Total energy in the final basis set =     -918.1848029736

                    Orbital Energies (a.u.)
 --------------------------------------------------------------

 Alpha MOs
 -- Occupied --
-19.1417 -19.1417 -19.0653 -19.0653 -10.2323 -10.2323 -10.2226 -10.2226
-10.2139 -10.2139 -10.1815 -10.1811 -10.1805 -10.1800 -10.1753 -10.1753
-10.1738 -10.1733 -10.1715 -10.1710  -1.0621  -1.0615  -0.9962  -0.9941
 -0.8618  -0.8499  -0.7873  -0.7605  -0.7535  -0.7474  -0.7089  -0.6789
 -0.6684  -0.6349  -0.6226  -0.5828  -0.5597  -0.5421  -0.5370  -0.5083
 -0.4958  -0.4819  -0.4652  -0.4645  -0.4630  -0.4597  -0.4329  -0.4323
 -0.4276  -0.4189  -0.4123  -0.4059  -0.4016  -0.3882  -0.3818  -0.3770
 -0.3764  -0.3550  -0.3446  -0.3408  -0.3367  -0.3305  -0.3249  -0.2908
 -0.2665  -0.2597  -0.2543  -0.2294  -0.2213  -0.2129  -0.1361

 Beta MOs
 -- Occupied --
-19.1416 -19.1416 -19.0594 -19.0593 -10.2324 -10.2323 -10.2215 -10.2215
-10.2139 -10.2138 -10.1806 -10.1803 -10.1801 -10.1796 -10.1754 -10.1754
-10.1730 -10.1725 -10.1706 -10.1701  -1.0618  -1.0613  -0.9861  -0.9838
 -0.8596  -0.8482  -0.7832  -0.7591  -0.7519  -0.7455  -0.7084  -0.6774
 -0.6615  -0.6334  -0.6202  -0.5820  -0.5585  -0.5398  -0.5359  -0.5078
 -0.4951  -0.4793  -0.4641  -0.4631  -0.4615  -0.4592  -0.4325  -0.4308
 -0.4273  -0.4107  -0.4087  -0.4017  -0.4010  -0.3850  -0.3798  -0.3741
 -0.3587  -0.3538  -0.3392  -0.3335  -0.3305  -0.3300  -0.3243  -0.2876
 -0.2538  -0.2485  -0.2433  -0.2241  -0.2159  -0.2051

          Ground-State Mulliken Net Atomic Charges

     Atom                 Charge (a.u.)    Spin (a.u.)
  --------------------------------------------------------
      1 C                     0.049228      -0.001145
      2 O                    -0.127151       0.000599
      3 C                    -0.467469       0.013393
      4 C                     2.057600       0.083330
      5 C                     2.051656       0.083265
      6 C                    -0.479019       0.013343
      7 O                    -0.126033       0.000619
      8 C                     0.048077      -0.001139
      9 C                    -0.306355       0.040124
     10 C                    -2.411773       0.042932
     11 O                    -0.290731       0.228485
     12 C                    -1.459759       0.038161
     13 C                    -0.085543       0.026787
     14 C                     0.969658       0.034972
     15 C                     0.968940       0.035058
     16 C                    -0.087038       0.026632
     17 C                    -1.449521       0.037993
     18 C                    -2.413823       0.042918
     19 O                    -0.290694       0.228559
     20 C                    -0.307351       0.040305
     21 H                     0.260922      -0.000216
     22 H                     0.219269       0.000540
     23 H                     0.219593       0.000539
     24 H                     0.388267      -0.004636
     25 H                     0.387679      -0.004632
     26 H                     0.219493       0.000534
     27 H                     0.260646      -0.000211
     28 H                     0.219198       0.000545
     29 H                     0.137289      -0.001246
     30 H                     0.353695      -0.002575
     31 H                     0.353538      -0.002579
     32 H                     0.137513      -0.001253
  --------------------------------------------------------
  Sum of atomic charges =    -1.000000

                    Cartesian Multipole Moments
 -----------------------------------------------------------------
    Charge (ESU x 10^10)
                -4.8032
    Dipole Moment (Debye)
         X      -8.2681      Y      -1.3005      Z      -0.1763
       Tot       8.3716
    Quadrupole Moments (Debye-Ang)
        XX    -120.2478     XY       3.7751     YY    -143.7019
        XZ       0.0162     YZ       0.4861     ZZ    -123.8982

 Total job time:  939.28s(wall), 7068.38s(cpu)
        *  Thank you very much for using Q-Chem.  Have a nice day.  *
