 Q-Chem 5.4, Q-Chem, Inc., Pleasanton, CA (2021)
 Q-Chem 5.4.0 for Intel X86 EM64T Linux

User input:
--------------------------------------------------------------
$molecule
-1 2
C                  5.8055240000     -5.2071590000      1.1294160000
C                  6.5995600000     -5.2376630000     -0.0042490000
C                  6.3666000000     -4.3208210000     -1.0486830000
C                  4.7618810000     -4.2728410000      1.2591830000
C                  4.5271270000     -3.3490480000      0.2079680000
C                  5.3472970000     -3.3933430000     -0.9398340000
C                  3.9525590000     -4.2682440000      2.4948440000
C                  2.9112700000     -3.2687680000      2.5341620000
C                  2.6254960000     -2.3879540000      1.5007090000
C                  3.4458950000     -2.3783360000      0.2925030000
O                  4.1843500000     -5.0666960000      3.4294000000
O                  3.1979690000     -1.5447380000     -0.6285350000
H                  5.9622760000     -5.8970030000      1.9505780000
H                  7.4006040000     -5.9659410000     -0.0889390000
H                  5.1466760000     -2.6774320000     -1.7284820000
Cl                 2.0262680000     -3.1643990000      4.0674910000
H                  6.9886640000     -4.3431030000     -1.9387730000
N                  1.6272160000     -1.4051400000      1.5157600000
C                  0.2195450000     -1.7808640000      1.6736180000
C                 -0.6641400000     -0.5338160000      1.7214490000
C                 -2.1535310000     -0.8687040000      1.8451990000
H                  1.7562390000     -0.8847210000      0.6468600000
H                  0.0990650000     -2.3483570000      2.5961910000
H                 -0.1123280000     -2.4337290000      0.8474630000
H                 -0.4964220000      0.0636330000      0.8163610000
H                 -0.3444360000      0.0862480000      2.5655160000
H                 -2.4992360000     -1.4660470000      0.9950030000
H                 -2.7650650000      0.0381860000      1.8840410000
H                 -2.3542620000     -1.4441820000      2.7548310000
$end
$rem
MAX_SCF_CYCLES=200
BASIS  =  6-311++G(d,p)
GUI  =  2
JOB_TYPE  =  SP
METHOD  =  B3LYP
SOLVENT_METHOD = PCM
$end
$pcm
theory = CPCM
$end
$solvent
dielectric 37.219
opticaldielectric 1.43
$end

--------------------------------------------------------------

             Standard Nuclear Orientation (Angstroms)
    I     Atom           X                Y                Z
 ----------------------------------------------------------------
    1      C       5.8055240000    -5.2071590000     1.1294160000
    2      C       6.5995600000    -5.2376630000    -0.0042490000
    3      C       6.3666000000    -4.3208210000    -1.0486830000
    4      C       4.7618810000    -4.2728410000     1.2591830000
    5      C       4.5271270000    -3.3490480000     0.2079680000
    6      C       5.3472970000    -3.3933430000    -0.9398340000
    7      C       3.9525590000    -4.2682440000     2.4948440000
    8      C       2.9112700000    -3.2687680000     2.5341620000
    9      C       2.6254960000    -2.3879540000     1.5007090000
   10      C       3.4458950000    -2.3783360000     0.2925030000
   11      O       4.1843500000    -5.0666960000     3.4294000000
   12      O       3.1979690000    -1.5447380000    -0.6285350000
   13      H       5.9622760000    -5.8970030000     1.9505780000
   14      H       7.4006040000    -5.9659410000    -0.0889390000
   15      H       5.1466760000    -2.6774320000    -1.7284820000
   16      Cl      2.0262680000    -3.1643990000     4.0674910000
   17      H       6.9886640000    -4.3431030000    -1.9387730000
   18      N       1.6272160000    -1.4051400000     1.5157600000
   19      C       0.2195450000    -1.7808640000     1.6736180000
   20      C      -0.6641400000    -0.5338160000     1.7214490000
   21      C      -2.1535310000    -0.8687040000     1.8451990000
   22      H       1.7562390000    -0.8847210000     0.6468600000
   23      H       0.0990650000    -2.3483570000     2.5961910000
   24      H      -0.1123280000    -2.4337290000     0.8474630000
   25      H      -0.4964220000     0.0636330000     0.8163610000
   26      H      -0.3444360000     0.0862480000     2.5655160000
   27      H      -2.4992360000    -1.4660470000     0.9950030000
   28      H      -2.7650650000     0.0381860000     1.8840410000
   29      H      -2.3542620000    -1.4441820000     2.7548310000
 ----------------------------------------------------------------

    8   -1168.3829919970      6.96e-06  Convergence criterion met
 Total energy in the final basis set =    -1168.3829919970

                    Orbital Energies (a.u.)
 --------------------------------------------------------------

 Alpha MOs
 -- Occupied --
******** -19.0862 -19.0806 -14.3137 -10.2349 -10.2288 -10.2163 -10.2137
-10.1894 -10.1776 -10.1769 -10.1738 -10.1731 -10.1719 -10.1718 -10.1613
-10.1537  -9.4610  -7.2252  -7.2163  -7.2156  -1.0136  -1.0101  -0.9256
 -0.8637  -0.8539  -0.7945  -0.7725  -0.7533  -0.7270  -0.6839  -0.6593
 -0.6169  -0.6015  -0.5885  -0.5653  -0.5287  -0.5062  -0.4847  -0.4713
 -0.4638  -0.4519  -0.4369  -0.4301  -0.4237  -0.4207  -0.4181  -0.4089
 -0.3956  -0.3938  -0.3819  -0.3680  -0.3620  -0.3530  -0.3436  -0.3417
 -0.3352  -0.3324  -0.3043  -0.2909  -0.2654  -0.2595  -0.2587  -0.2483
 -0.2224  -0.1543

 Beta MOs
 -- Occupied --
******** -19.0801 -19.0758 -14.3129 -10.2334 -10.2262 -10.2157 -10.2121
-10.1893 -10.1770 -10.1765 -10.1736 -10.1726 -10.1718 -10.1715 -10.1613
-10.1537  -9.4610  -7.2252  -7.2162  -7.2156  -1.0042  -1.0005  -0.9229
 -0.8615  -0.8530  -0.7912  -0.7713  -0.7512  -0.7253  -0.6795  -0.6544
 -0.6153  -0.5989  -0.5877  -0.5626  -0.5269  -0.5040  -0.4820  -0.4706
 -0.4624  -0.4502  -0.4326  -0.4267  -0.4211  -0.4148  -0.4130  -0.4068
 -0.3930  -0.3878  -0.3682  -0.3627  -0.3610  -0.3497  -0.3407  -0.3390
 -0.3337  -0.3262  -0.3036  -0.2811  -0.2535  -0.2524  -0.2513  -0.2435
 -0.2137

          Ground-State Mulliken Net Atomic Charges

     Atom                 Charge (a.u.)    Spin (a.u.)
  --------------------------------------------------------
      1 C                     0.139881       0.010715
      2 C                    -0.440240       0.053198
      3 C                    -0.422595       0.010400
      4 C                     0.240490       0.057940
      5 C                     0.092789      -0.010023
      6 C                     0.073470       0.063869
      7 C                    -0.746231       0.085308
      8 C                     1.018288       0.023225
      9 C                    -0.401702       0.099527
     10 C                    -0.859582       0.168737
     11 O                    -0.452350       0.178894
     12 O                    -0.477762       0.234511
     13 H                     0.178006      -0.000949
     14 H                     0.197470      -0.003841
     15 H                     0.181495      -0.003473
     16 Cl                    0.312499       0.001291
     17 H                     0.197407      -0.001227
     18 N                     0.047117       0.029512
     19 C                    -0.496070       0.000182
     20 C                    -0.044887      -0.002641
     21 C                    -0.643563       0.000101
     22 H                     0.304124      -0.000586
     23 H                     0.106092       0.002122
     24 H                     0.174782       0.003418
     25 H                     0.134828      -0.000568
     26 H                     0.142414       0.000337
     27 H                     0.141993       0.000194
     28 H                     0.153024       0.000086
     29 H                     0.148811      -0.000258
  --------------------------------------------------------
  Sum of atomic charges =    -1.000001

                    Cartesian Multipole Moments
 -----------------------------------------------------------------
    Charge (ESU x 10^10)
                -4.8032
    Dipole Moment (Debye)
         X     -17.8941      Y      16.1385      Z     -10.2935
       Tot      26.2032
    Quadrupole Moments (Debye-Ang)
        XX    -171.6487     XY      58.7971     YY    -179.7959
        XZ     -40.5285     YZ      48.8207     ZZ    -154.6592

 Total job time:  62.18s(wall), 419.93s(cpu)
        *  Thank you very much for using Q-Chem.  Have a nice day.  *
