 Q-Chem 5.4, Q-Chem, Inc., Pleasanton, CA (2021)
 Q-Chem 5.4.0 for Intel X86 EM64T Linux

User input:
--------------------------------------------------------------
$molecule
-2 1
O                 -4.6071970000     -0.8522040000      1.1962630000
C                 -3.4070010000     -0.3438840000      0.6904710000
C                 -3.4120510000      0.8503160000     -0.0778320000
C                 -2.2173400000      1.3351540000     -0.5732450000
C                 -0.9787120000      0.7064820000     -0.3140570000
C                  0.2385320000      1.2970810000     -0.8473880000
O                  0.2378720000      2.3730470000     -1.5397960000
C                  1.4512370000      0.5644640000     -0.5384970000
C                  2.6949180000      1.0498310000     -1.0115040000
C                  3.8868840000      0.4037050000     -0.7502860000
C                  3.8794660000     -0.7920120000      0.0226570000
C                  2.6848600000     -1.2906200000      0.4994490000
C                  1.4417760000     -0.6538430000      0.2466040000
C                  0.2280830000     -1.2358890000      0.7842510000
O                  0.2300160000     -2.3109020000      1.4850050000
C                 -0.9835980000     -0.5074750000      0.4710540000
C                 -2.2315880000     -1.0057150000      0.9403470000
H                 -5.3287230000     -0.5362650000      0.6314380000
H                 -4.3483440000      1.3764080000     -0.2553720000
H                 -2.1877060000      2.2426200000     -1.1678940000
H                  2.6653640000      1.9643270000     -1.5962680000
H                  4.8250530000      0.8039860000     -1.1306120000
H                  4.8135470000     -1.3095780000      0.2354730000
H                  2.6473400000     -2.1996720000      1.0918850000
H                 -2.2226900000     -1.9293600000      1.5078540000
$end
$rem
MAX_SCF_CYCLES=200
BASIS  =  6-311++G(d,p)
GUI  =  2
JOB_TYPE  =  SP
METHOD  =  B3LYP
SOLVENT_METHOD = PCM
$end
$pcm
theory = CPCM
$end
$solvent
dielectric 37.219
opticaldielectric 1.43
$end

--------------------------------------------------------------

             Standard Nuclear Orientation (Angstroms)
    I     Atom           X                Y                Z
 ----------------------------------------------------------------
    1      O      -4.6071970000    -0.8522040000     1.1962630000
    2      C      -3.4070010000    -0.3438840000     0.6904710000
    3      C      -3.4120510000     0.8503160000    -0.0778320000
    4      C      -2.2173400000     1.3351540000    -0.5732450000
    5      C      -0.9787120000     0.7064820000    -0.3140570000
    6      C       0.2385320000     1.2970810000    -0.8473880000
    7      O       0.2378720000     2.3730470000    -1.5397960000
    8      C       1.4512370000     0.5644640000    -0.5384970000
    9      C       2.6949180000     1.0498310000    -1.0115040000
   10      C       3.8868840000     0.4037050000    -0.7502860000
   11      C       3.8794660000    -0.7920120000     0.0226570000
   12      C       2.6848600000    -1.2906200000     0.4994490000
   13      C       1.4417760000    -0.6538430000     0.2466040000
   14      C       0.2280830000    -1.2358890000     0.7842510000
   15      O       0.2300160000    -2.3109020000     1.4850050000
   16      C      -0.9835980000    -0.5074750000     0.4710540000
   17      C      -2.2315880000    -1.0057150000     0.9403470000
   18      H      -5.3287230000    -0.5362650000     0.6314380000
   19      H      -4.3483440000     1.3764080000    -0.2553720000
   20      H      -2.1877060000     2.2426200000    -1.1678940000
   21      H       2.6653640000     1.9643270000    -1.5962680000
   22      H       4.8250530000     0.8039860000    -1.1306120000
   23      H       4.8135470000    -1.3095780000     0.2354730000
   24      H       2.6473400000    -2.1996720000     1.0918850000
   25      H      -2.2226900000    -1.9293600000     1.5078540000
 ----------------------------------------------------------------

    9    -764.4472047230      5.02e-06  Convergence criterion met
 Total energy in the final basis set =     -764.4472047230

                    Orbital Energies (a.u.)
 --------------------------------------------------------------

 Alpha MOs
 -- Occupied --
-19.1378 -19.0260 -19.0208 -10.2108 -10.1782 -10.1721 -10.1535 -10.1527
-10.1490 -10.1476 -10.1465 -10.1453 -10.1426 -10.1398 -10.1371 -10.1362
-10.1354  -1.0386  -0.9467  -0.9398  -0.8286  -0.8211  -0.7508  -0.7286
 -0.7227  -0.7048  -0.6384  -0.6111  -0.5948  -0.5632  -0.5392  -0.5224
 -0.5014  -0.4747  -0.4475  -0.4403  -0.4287  -0.4106  -0.4028  -0.3992
 -0.3869  -0.3813  -0.3757  -0.3717  -0.3608  -0.3522  -0.3310  -0.3277
 -0.3225  -0.3179  -0.3018  -0.2921  -0.2355  -0.2273  -0.2245  -0.2084
 -0.2072  -0.1988  -0.1056

          Ground-State Mulliken Net Atomic Charges

     Atom                 Charge (a.u.)
  ----------------------------------------
      1 O                    -0.348405
      2 C                    -0.614164
      3 C                    -0.012265
      4 C                    -0.055007
      5 C                     0.021086
      6 C                    -0.357222
      7 O                    -0.672464
      8 C                     0.148154
      9 C                     0.025906
     10 C                    -0.518201
     11 C                    -0.506592
     12 C                    -0.048612
     13 C                     0.309070
     14 C                    -0.337137
     15 O                    -0.698160
     16 C                     0.485572
     17 C                    -0.265684
     18 H                     0.305131
     19 H                     0.195539
     20 H                     0.152622
     21 H                     0.145304
     22 H                     0.171227
     23 H                     0.172750
     24 H                     0.141462
     25 H                     0.160092
  ----------------------------------------
  Sum of atomic charges =    -2.000000

                    Cartesian Multipole Moments
 -----------------------------------------------------------------
    Charge (ESU x 10^10)
                -9.6064
    Dipole Moment (Debye)
         X      -3.0796      Y       1.4190      Z      -1.6255
       Tot       3.7603
    Quadrupole Moments (Debye-Ang)
        XX    -115.7561     XY      -5.3153     YY    -147.5172
        XZ       9.0735     YZ      24.8350     ZZ    -128.8479

 Total job time:  201.15s(wall), 288.62s(cpu)
        *  Thank you very much for using Q-Chem.  Have a nice day.  *
