 Q-Chem 5.4, Q-Chem, Inc., Pleasanton, CA (2021)
 Q-Chem 5.4.0 for Intel X86 EM64T Linux

User input:
--------------------------------------------------------------
$molecule
0 1
C                 -2.4881650000      1.4032700000      0.3575710000
C                 -2.0058200000     -0.0592030000      0.4343500000
C                 -2.7728100000     -0.9600880000     -0.5543030000
C                 -0.5036300000     -0.1773190000      0.2722420000
C                  0.2831110000     -0.6506490000      1.2559590000
C                  1.7507610000     -0.7830430000      1.1420390000
O                  2.4139140000     -1.2203150000      2.0702960000
C                  2.4035650000     -0.3674300000     -0.1402180000
C                  1.6246280000      0.1060850000     -1.1270920000
C                  0.1546610000      0.2388630000     -1.0130900000
O                 -0.4908670000      0.6789670000     -1.9529360000
C                  3.8908920000     -0.5097980000     -0.2335560000
H                 -2.3377400000      1.8158360000     -0.6406000000
H                 -3.5552650000      1.4504900000      0.5923340000
H                 -1.9590290000      2.0331580000      1.0779210000
H                 -2.2228150000     -0.4230430000      1.4451090000
H                 -2.6323220000     -0.6255490000     -1.5826680000
H                 -2.4444410000     -2.0003460000     -0.4788220000
H                 -3.8417580000     -0.9292350000     -0.3253200000
H                 -0.1284830000     -0.9684110000      2.2090550000
H                  2.0351690000      0.4239840000     -2.0802590000
H                  4.3820420000      0.0723640000      0.5511160000
H                  4.2567670000     -0.1795280000     -1.2063900000
H                  4.1876350000     -1.5499540000     -0.0727370000
$end
$rem
MAX_SCF_CYCLES=200
BASIS  =  6-311++G(d,p)
GUI  =  2
JOB_TYPE  =  SP
METHOD  =  B3LYP
SOLVENT_METHOD = PCM
$end
$pcm
theory = CPCM
$end
$solvent
dielectric 37.219
opticaldielectric 1.43
$end

--------------------------------------------------------------

             Standard Nuclear Orientation (Angstroms)
    I     Atom           X                Y                Z
 ----------------------------------------------------------------
    1      C      -2.4881650000     1.4032700000     0.3575710000
    2      C      -2.0058200000    -0.0592030000     0.4343500000
    3      C      -2.7728100000    -0.9600880000    -0.5543030000
    4      C      -0.5036300000    -0.1773190000     0.2722420000
    5      C       0.2831110000    -0.6506490000     1.2559590000
    6      C       1.7507610000    -0.7830430000     1.1420390000
    7      O       2.4139140000    -1.2203150000     2.0702960000
    8      C       2.4035650000    -0.3674300000    -0.1402180000
    9      C       1.6246280000     0.1060850000    -1.1270920000
   10      C       0.1546610000     0.2388630000    -1.0130900000
   11      O      -0.4908670000     0.6789670000    -1.9529360000
   12      C       3.8908920000    -0.5097980000    -0.2335560000
   13      H      -2.3377400000     1.8158360000    -0.6406000000
   14      H      -3.5552650000     1.4504900000     0.5923340000
   15      H      -1.9590290000     2.0331580000     1.0779210000
   16      H      -2.2228150000    -0.4230430000     1.4451090000
   17      H      -2.6323220000    -0.6255490000    -1.5826680000
   18      H      -2.4444410000    -2.0003460000    -0.4788220000
   19      H      -3.8417580000    -0.9292350000    -0.3253200000
   20      H      -0.1284830000    -0.9684110000     2.2090550000
   21      H       2.0351690000     0.4239840000    -2.0802590000
   22      H       4.3820420000     0.0723640000     0.5511160000
   23      H       4.2567670000    -0.1795280000    -1.2063900000
   24      H       4.1876350000    -1.5499540000    -0.0727370000
 ----------------------------------------------------------------

    9    -538.8834613306      2.67e-06  Convergence criterion met
 Total energy in the final basis set =     -538.8834613306

                    Orbital Energies (a.u.)
 --------------------------------------------------------------

 Alpha MOs
 -- Occupied --
-19.1400 -19.1388 -10.2840 -10.2829 -10.2167 -10.2141 -10.1995 -10.1991
-10.1892 -10.1743 -10.1585 -10.1585  -1.0711  -1.0692  -0.8660  -0.8255
 -0.7745  -0.7259  -0.6870  -0.6860  -0.6258  -0.6131  -0.5609  -0.5287
 -0.4931  -0.4830  -0.4579  -0.4564  -0.4459  -0.4402  -0.4296  -0.4199
 -0.4114  -0.4057  -0.4043  -0.3875  -0.3823  -0.3580  -0.3491  -0.3428
 -0.3022  -0.2865  -0.2819  -0.2738

          Ground-State Mulliken Net Atomic Charges

     Atom                 Charge (a.u.)
  ----------------------------------------
      1 C                    -0.705706
      2 C                     0.119082
      3 C                    -0.705048
      4 C                     1.258890
      5 C                    -0.153054
      6 C                    -0.846892
      7 O                    -0.296671
      8 C                     1.180651
      9 C                    -0.767616
     10 C                    -0.687684
     11 O                    -0.268683
     12 C                    -0.368551
     13 H                     0.179926
     14 H                     0.168990
     15 H                     0.143383
     16 H                     0.213601
     17 H                     0.179819
     18 H                     0.143221
     19 H                     0.168882
     20 H                     0.242540
     21 H                     0.227639
     22 H                     0.197933
     23 H                     0.177513
     24 H                     0.197835
  ----------------------------------------
  Sum of atomic charges =     0.000000

                    Cartesian Multipole Moments
 -----------------------------------------------------------------
    Charge (ESU x 10^10)
                 0.0000
    Dipole Moment (Debye)
         X      -0.2003      Y       0.0307      Z      -0.0207
       Tot       0.2037
    Quadrupole Moments (Debye-Ang)
        XX     -66.6443     XY       4.5886     YY     -74.7527
        XZ     -13.4940     YZ       5.7921     ZZ     -82.7725

 Total job time:  50.15s(wall), 189.29s(cpu)
        *  Thank you very much for using Q-Chem.  Have a nice day.  *
