 Gaussian 16, Revision A.03,
 Gaussian 16:  ES64L-G16RevA.03 25-Dec-2016

 ----------------------------------------------------------------
 #P UB3LYP/6-311++G(d,p) SCRF=(PCM,Solvent=n,n-DiMethylFormamide)
 ----------------------------------------------------------------

 ------------------
 Radical PCM in DMF
 ------------------
 Symbolic Z-matrix:
 Charge = -1 Multiplicity = 2

                         Standard orientation:
 ---------------------------------------------------------------------
 Center     Atomic      Atomic             Coordinates (Angstroms)
 Number     Number       Type             X           Y           Z
 ---------------------------------------------------------------------
      1          6           0       -3.636574    0.705638    0.224259
      2          6           0       -4.530793   -0.346532    0.299869
      3          6           0       -4.068479   -1.675664    0.208621
      4          6           0       -2.254566    0.474423    0.057967
      5          6           0       -1.789886   -0.867577   -0.030195
      6          6           0       -2.716545   -1.924153    0.044560
      7          6           0       -1.331878    1.597457   -0.029596
      8          6           0        0.085538    1.295641   -0.210506
      9          6           0        0.530820   -0.023637   -0.226456
     10          6           0       -0.366842   -1.152711   -0.193510
     11          8           0       -1.709161    2.803248    0.033720
     12          8           0        0.083154   -2.331644   -0.322134
     13          7           0        0.895304    2.391474   -0.410356
     14          1           0       -3.968682    1.735470    0.288135
     15          1           0       -5.591204   -0.149723    0.428644
     16          1           0       -4.771636   -2.501052    0.267515
     17          1           0       -2.331904   -2.935002   -0.028825
     18          1           0        0.398942    3.247532   -0.187301
     19          1           0        1.844904    2.304262   -0.057293
     20          7           0        1.870272   -0.453449   -0.428102
     21          1           0        1.842294   -1.447095   -0.661348
     22          6           0        3.063261    0.053676   -0.045917
     23          6           0        4.264090   -0.830656   -0.391958
     24          6           0        5.263528   -0.923155    0.764806
     25          8           0        3.241096    1.143259    0.510354
     26          1           0        4.752224   -0.373949   -1.261419
     27          1           0        3.935906   -1.827457   -0.701198
     28          1           0        5.557306    0.076732    1.088691
     29          1           0        6.159637   -1.473779    0.462907
     30          1           0        4.822433   -1.437527    1.623505
 ---------------------------------------------------------------------

 SCF Done:  E(UB3LYP) =  -838.210589608     A.U. after   20 cycles

 The electronic state is 2-A.
 Alpha  occ. eigenvalues --  -19.09827 -19.08010 -19.07910 -14.34748 -14.30534
 Alpha  occ. eigenvalues --  -10.27952 -10.22654 -10.22214 -10.21011 -10.20025
 Alpha  occ. eigenvalues --  -10.17844 -10.17375 -10.17331 -10.17238 -10.17165
 Alpha  occ. eigenvalues --  -10.17044 -10.16979 -10.16113  -1.04616  -1.00837
 Alpha  occ. eigenvalues --   -1.00474  -0.93560  -0.90367  -0.85785  -0.79464
 Alpha  occ. eigenvalues --   -0.77531  -0.75130  -0.73256  -0.68395  -0.65263
 Alpha  occ. eigenvalues --   -0.61805  -0.61653  -0.58318  -0.56386  -0.53634
 Alpha  occ. eigenvalues --   -0.51484  -0.50371  -0.49436  -0.47530  -0.46244
 Alpha  occ. eigenvalues --   -0.45137  -0.44200  -0.43381  -0.42881  -0.42356
 Alpha  occ. eigenvalues --   -0.42127  -0.41262  -0.40931  -0.39123  -0.38395
 Alpha  occ. eigenvalues --   -0.37151  -0.36704  -0.36052  -0.35499  -0.34681
 Alpha  occ. eigenvalues --   -0.33882  -0.32576  -0.29968  -0.27153  -0.26419
 Alpha  occ. eigenvalues --   -0.25789  -0.25604  -0.24616  -0.20677  -0.14821
 Alpha virt. eigenvalues --   -0.03552  -0.01590  -0.00637   0.00209   0.01128
 Alpha virt. eigenvalues --    0.01540   0.01816   0.02333   0.02643   0.03588
 Alpha virt. eigenvalues --    0.03865   0.04494   0.04741   0.05258   0.05633

  Beta  occ. eigenvalues --  -19.09820 -19.07449 -19.07366 -14.34748 -14.30441
  Beta  occ. eigenvalues --  -10.27950 -10.22471 -10.21960 -10.20871 -10.20030
  Beta  occ. eigenvalues --  -10.17845 -10.17317 -10.17249 -10.17212 -10.17105
  Beta  occ. eigenvalues --  -10.17045 -10.16945 -10.16113  -1.04597  -1.00026
  Beta  occ. eigenvalues --   -0.99422  -0.93432  -0.90091  -0.85569  -0.79156
  Beta  occ. eigenvalues --   -0.77415  -0.74901  -0.73121  -0.67792  -0.64900
  Beta  occ. eigenvalues --   -0.61620  -0.61541  -0.58123  -0.56175  -0.53455
  Beta  occ. eigenvalues --   -0.51385  -0.50195  -0.49374  -0.47201  -0.46193
  Beta  occ. eigenvalues --   -0.45066  -0.43934  -0.42975  -0.42722  -0.42202
  Beta  occ. eigenvalues --   -0.41955  -0.40629  -0.40224  -0.38825  -0.37177
  Beta  occ. eigenvalues --   -0.36687  -0.36230  -0.35636  -0.35303  -0.34467
  Beta  occ. eigenvalues --   -0.33755  -0.31112  -0.29482  -0.27081  -0.25157
  Beta  occ. eigenvalues --   -0.25009  -0.24747  -0.24077  -0.19910
  Beta virt. eigenvalues --   -0.08477  -0.02801  -0.01025  -0.00361   0.00283
  Beta virt. eigenvalues --    0.01150   0.01579   0.02024   0.02375   0.02796
  Beta virt. eigenvalues --    0.03597   0.03895   0.04634   0.04795   0.05404

 Mulliken charges and spin densities:
               1          2
     1  C    0.106930   0.059182
     2  C   -0.338799   0.017551
     3  C   -0.407081   0.062209
     4  C    0.504317   0.016870
     5  C   -0.060932   0.053113
     6  C    0.061688   0.022856
     7  C   -0.680734   0.163240
     8  C    0.369865   0.060130
     9  C    0.519346  -0.004631
    10  C   -0.953027   0.105637
    11  O   -0.489398   0.238532
    12  O   -0.476119   0.171687
    13  N   -0.450980   0.049948
    14  H    0.163775  -0.003541
    15  H    0.178347  -0.001605
    16  H    0.180907  -0.004532
    17  H    0.164142  -0.000479
    18  H    0.293302  -0.002809
    19  H    0.295834  -0.000058
    20  N   -0.018082  -0.003483
    21  H    0.365610  -0.001699
    22  C    0.145709   0.000724
    23  C   -0.261453  -0.001658
    24  C   -0.557015   0.000115
    25  O   -0.442919   0.002058
    26  H    0.184059   0.000454
    27  H    0.133154   0.000219
    28  H    0.166006  -0.000102
    29  H    0.156463  -0.000142
    30  H    0.147085   0.000216
 Sum of Mulliken charges =  -1.00000   1.00000

 Dipole moment (field-independent basis, Debye):
    X=              3.0409    Y=             -3.8860    Z=             -0.2641  Tot=              4.9414
 Quadrupole moment (field-independent basis, Debye-Ang):
   XX=           -116.3767   YY=           -136.6921   ZZ=           -113.7670
   XY=              0.9784   XZ=             -5.2232   YZ=             -0.6667

 Normal termination of Gaussian 16 at Sun Jan 21 08:39:51 2024.
