 Gaussian 16, Revision A.03,
 Gaussian 16:  ES64L-G16RevA.03 25-Dec-2016

 ----------------------------------------------------------------
 #P UB3LYP/6-311++G(d,p) SCRF=(PCM,Solvent=n,n-DiMethylFormamide)
 ----------------------------------------------------------------

 ------------------
 Radical PCM in DMF
 ------------------
 Symbolic Z-matrix:
 Charge = -1 Multiplicity = 2

                         Standard orientation:
 ---------------------------------------------------------------------
 Center     Atomic      Atomic             Coordinates (Angstroms)
 Number     Number       Type             X           Y           Z
 ---------------------------------------------------------------------
      1          6           0       -1.191428    2.243825    0.468506
      2          6           0       -0.599300    3.451799   -0.081448
      3          6           0        0.553867    3.442507   -0.799787
      4          6           0        1.282967    2.222449   -1.088526
      5          6           0        0.727320    0.992500   -0.535240
      6          6           0       -0.418281    1.026805    0.242542
      7          8           0       -2.292391    2.261530    1.065150
      8          8           0        2.335467    2.217521   -1.778640
      9         16           0       -1.008263   -0.467064    1.056887
     10          6           0       -2.557934   -0.891617    0.221128
     11          6           0       -3.764157   -0.408883    0.721660
     12          6           0       -2.504739   -1.707649   -0.907027
     13          6           0       -3.694874   -2.050759   -1.545762
     14          6           0       -4.947187   -0.764029    0.076108
     15          6           0       -4.913702   -1.583156   -1.052917
     16          8           0       -1.312722   -0.205678    2.469066
     17          8           0       -0.051662   -1.543343    0.733663
     18          1           0       -1.147484    4.370316    0.104716
     19          1           0        0.974294    4.356352   -1.209092
     20          1           0       -3.754570    0.246088    1.582146
     21          1           0       -1.546334   -2.057888   -1.270833
     22          1           0       -3.668717   -2.683762   -2.426091
     23          1           0       -5.895065   -0.394698    0.452511
     24          1           0       -5.838185   -1.852553   -1.553405
     25          6           0        1.461290   -0.256368   -0.994438
     26          6           0        2.726171   -0.651488   -0.293177
     27          6           0        3.144269   -0.025588    0.883421
     28          6           0        3.502612   -1.681703   -0.834116
     29          6           0        4.321080   -0.424204    1.512796
     30          6           0        5.091469   -1.450219    0.967885
     31          6           0        4.679307   -2.078668   -0.209257
     32          8           0        1.069878   -0.853087   -1.978771
     33          1           0        2.543708    0.769928    1.307754
     34          1           0        3.161971   -2.156190   -1.746482
     35          1           0        4.635392    0.064577    2.428722
     36          1           0        6.008904   -1.760449    1.457805
     37          1           0        5.277237   -2.877572   -0.635791
 ---------------------------------------------------------------------

 SCF Done:  E(UB3LYP) =  -1505.95114299     A.U. after   22 cycles

 The electronic state is 2-A.
 Alpha  occ. eigenvalues --  -89.05593 -19.12369 -19.12242 -19.12062 -19.09622
 Alpha  occ. eigenvalues --  -19.09465 -10.28005 -10.24722 -10.24208 -10.21432
 Alpha  occ. eigenvalues --  -10.21412 -10.20650 -10.19578 -10.19346 -10.19098
 Alpha  occ. eigenvalues --  -10.19094 -10.18927 -10.18871 -10.18766 -10.18748
 Alpha  occ. eigenvalues --  -10.18508 -10.18413 -10.18405 -10.18202 -10.18102
 Alpha  occ. eigenvalues --   -8.11973  -6.08263  -6.08141  -6.08066  -1.11592
 Alpha  occ. eigenvalues --   -1.06013  -1.02345  -1.01970  -1.01061  -0.87905
 Alpha  occ. eigenvalues --   -0.87119  -0.85160  -0.79140  -0.78155  -0.76676
 Alpha  occ. eigenvalues --   -0.76559  -0.75880  -0.72508  -0.67938  -0.65671
 Alpha  occ. eigenvalues --   -0.62811  -0.62467  -0.61915  -0.60615  -0.57983
 Alpha  occ. eigenvalues --   -0.56010  -0.54312  -0.52730  -0.50677  -0.50178
 Alpha  occ. eigenvalues --   -0.48899  -0.48509  -0.47872  -0.46872  -0.46453
 Alpha  occ. eigenvalues --   -0.45722  -0.45545  -0.44945  -0.44357  -0.43862
 Alpha  occ. eigenvalues --   -0.43351  -0.42653  -0.42298  -0.41619  -0.39696
 Alpha  occ. eigenvalues --   -0.39635  -0.39216  -0.38596  -0.38220  -0.37150
 Alpha  occ. eigenvalues --   -0.37013  -0.36255  -0.35357  -0.34645  -0.33333
 Alpha  occ. eigenvalues --   -0.31609  -0.30886  -0.30487  -0.28736  -0.28104
 Alpha  occ. eigenvalues --   -0.27285  -0.27146  -0.26786  -0.26702  -0.26010
 Alpha  occ. eigenvalues --   -0.24824  -0.18305
 Alpha virt. eigenvalues --   -0.06938  -0.05565  -0.03078  -0.02710  -0.02280
 Alpha virt. eigenvalues --   -0.00491   0.00088   0.00431   0.00763   0.01418
 Alpha virt. eigenvalues --    0.01868   0.02042   0.02329   0.02709   0.03213

  Beta  occ. eigenvalues --  -89.05595 -19.12343 -19.12232 -19.12064 -19.08861
  Beta  occ. eigenvalues --  -19.08831 -10.28021 -10.24640 -10.24105 -10.21432
  Beta  occ. eigenvalues --  -10.21291 -10.20385 -10.19573 -10.19342 -10.19093
  Beta  occ. eigenvalues --  -10.19091 -10.18929 -10.18872 -10.18766 -10.18746
  Beta  occ. eigenvalues --  -10.18507 -10.18412 -10.18404 -10.18152 -10.18017
  Beta  occ. eigenvalues --   -8.11975  -6.08264  -6.08143  -6.08070  -1.11574
  Beta  occ. eigenvalues --   -1.05940  -1.01393  -1.00923  -1.00654  -0.87897
  Beta  occ. eigenvalues --   -0.87103  -0.84528  -0.78986  -0.78055  -0.76587
  Beta  occ. eigenvalues --   -0.76553  -0.75871  -0.71849  -0.67511  -0.65502
  Beta  occ. eigenvalues --   -0.62674  -0.62448  -0.61854  -0.60446  -0.57813
  Beta  occ. eigenvalues --   -0.55890  -0.54216  -0.52590  -0.50516  -0.49954
  Beta  occ. eigenvalues --   -0.48774  -0.48440  -0.47857  -0.46792  -0.46270
  Beta  occ. eigenvalues --   -0.45694  -0.45515  -0.44799  -0.44228  -0.43826
  Beta  occ. eigenvalues --   -0.43278  -0.42041  -0.41391  -0.40786  -0.39421
  Beta  occ. eigenvalues --   -0.39105  -0.38696  -0.38226  -0.37264  -0.36999
  Beta  occ. eigenvalues --   -0.36377  -0.36238  -0.35342  -0.34535  -0.33299
  Beta  occ. eigenvalues --   -0.31503  -0.30678  -0.28870  -0.27965  -0.27269
  Beta  occ. eigenvalues --   -0.26958  -0.26765  -0.26553  -0.26407  -0.25412
  Beta  occ. eigenvalues --   -0.24332
  Beta virt. eigenvalues --   -0.11103  -0.06918  -0.04916  -0.02718  -0.02349
  Beta virt. eigenvalues --   -0.01976  -0.00472   0.00123   0.00728   0.01345
  Beta virt. eigenvalues --    0.01847   0.01917   0.02353   0.02459   0.02791

 Mulliken charges and spin densities:
               1          2
     1  C   -0.165898   0.033788
     2  C    0.113603   0.059398
     3  C   -0.314641   0.039213
     4  C   -0.222011   0.080318
     5  C    0.992995   0.188250
     6  C   -0.601923   0.125762
     7  O   -0.381600   0.232515
     8  O   -0.417070   0.278557
     9  S    0.192177  -0.039777
    10  C    0.425287   0.002525
    11  C   -0.044339   0.013871
    12  C   -0.065029   0.009674
    13  C   -0.541485  -0.001200
    14  C   -0.515353  -0.003452
    15  C   -0.265222   0.003741
    16  O   -0.135119   0.007630
    17  O   -0.146824  -0.002991
    18  H    0.218191  -0.005924
    19  H    0.208803  -0.004422
    20  H    0.275938  -0.000465
    21  H    0.244117   0.001119
    22  H    0.214375   0.000057
    23  H    0.212284   0.000127
    24  H    0.194276  -0.000234
    25  C   -0.305578  -0.026379
    26  C    0.558843   0.002565
    27  C   -0.987336   0.000121
    28  C    0.540808   0.005050
    29  C   -0.142394  -0.006304
    30  C   -0.377878  -0.000012
    31  C   -0.458974   0.002048
    32  O   -0.277976   0.004464
    33  H    0.158777   0.000659
    34  H    0.211081  -0.000207
    35  H    0.219563  -0.000119
    36  H    0.182242   0.000029
    37  H    0.203289   0.000007
 Sum of Mulliken charges =  -1.00000   1.00000

 Dipole moment (field-independent basis, Debye):
    X=             -1.2097    Y=             -4.1479    Z=             -0.3987  Tot=              4.3390
 Quadrupole moment (field-independent basis, Debye-Ang):
   XX=           -148.4747   YY=           -165.4686   ZZ=           -176.3941
   XY=             -1.2058   XZ=             27.3834   YZ=              9.2271

 Normal termination of Gaussian 16 at Wed Jan 24 23:05:52 2024.
