 Gaussian 16, Revision A.03,
 Gaussian 16:  ES64L-G16RevA.03 25-Dec-2016

 --------------------------------------
 #P UB3LYP/6-311++G(d,p) nosym opt freq
 --------------------------------------

 -------
 Reduced
 -------
 Symbolic Z-matrix:
 Charge = -2 Multiplicity = 1

 SCF Done:  E(UB3LYP) =  -3112.35759065     A.U. after   46 cycles
 SCF Done:  E(UB3LYP) =  -3112.38459203     A.U. after   35 cycles
 SCF Done:  E(UB3LYP) =  -3112.38959569     A.U. after   30 cycles
 SCF Done:  E(UB3LYP) =  -3112.38978694     A.U. after   30 cycles
 SCF Done:  E(UB3LYP) =  -3112.39013393     A.U. after   29 cycles
 SCF Done:  E(UB3LYP) =  -3112.39017724     A.U. after   30 cycles
 SCF Done:  E(UB3LYP) =  -3112.39060539     A.U. after   32 cycles
 SCF Done:  E(UB3LYP) =  -3112.35309423     A.U. after   32 cycles
 SCF Done:  E(UB3LYP) =  -3112.39341054     A.U. after   32 cycles
 SCF Done:  E(UB3LYP) =  -3112.39463716     A.U. after   30 cycles
 SCF Done:  E(UB3LYP) =  -3112.38840211     A.U. after   29 cycles
 SCF Done:  E(UB3LYP) =  -3112.39781368     A.U. after   32 cycles
 SCF Done:  E(UB3LYP) =  -3112.39818496     A.U. after   27 cycles
 SCF Done:  E(UB3LYP) =  -3112.39827258     A.U. after   34 cycles
 SCF Done:  E(UB3LYP) =  -3112.39837771     A.U. after   26 cycles
 SCF Done:  E(UB3LYP) =  -3112.39838009     A.U. after   26 cycles
 SCF Done:  E(UB3LYP) =  -3112.39838078     A.U. after   24 cycles
 SCF Done:  E(UB3LYP) =  -3112.39838093     A.U. after   25 cycles
 Optimization completed.
    -- Stationary point found.
 Normal termination of Gaussian 16 at Sun Dec 17 22:50:53 2023.

 ----------------------------------------------------------------------
 #P Geom=AllCheck Guess=TCheck SCRF=Check GenChk UB3LYP/6-311++G(d,p) F
 req
 ----------------------------------------------------------------------

 Structure from the checkpoint file:  "004-an.chk"
 -------
 Reduced
 -------
 Charge = -2 Multiplicity = 1

                          Input orientation:
 ---------------------------------------------------------------------
 Center     Atomic      Atomic             Coordinates (Angstroms)
 Number     Number       Type             X           Y           Z
 ---------------------------------------------------------------------
      1          6           0       -1.220399    1.991098   -0.439782
      2          6           0       -2.464331    1.262378   -0.435281
      3          6           0       -2.668875   -0.057132   -0.015078
      4          6           0       -1.561205   -0.847531    0.483610
      5          6           0       -0.312955   -0.154673    0.499962
      6          6           0       -0.178033    1.160045    0.062845
      7         35           0        1.646523    1.955908    0.152093
      8          6           0       -4.069732   -0.703068   -0.057956
      9          6           0       -5.165190    0.236114   -0.599005
     10          6           0       -4.479245   -1.138699    1.370560
     11          6           0       -4.029776   -1.953674   -0.972344
     12          8           0       -1.115567    3.209318   -0.842186
     13          8           0       -1.666369   -2.083425    0.890222
     14          1           0       -3.296974    1.851929   -0.808109
     15          1           0        0.548656   -0.703852    0.864104
     16          1           0       -5.270586    1.133648    0.018489
     17          1           0       -6.130510   -0.289023   -0.603528
     18          1           0       -4.950774    0.559239   -1.622985
     19          1           0       -4.582489   -0.258703    2.016840
     20          1           0       -3.700183   -1.789372    1.775912
     21          1           0       -5.441796   -1.673182    1.360693
     22          1           0       -3.799706   -1.658175   -2.002512
     23          1           0       -5.003378   -2.471651   -0.973887
     24          1           0       -3.250346   -2.629166   -0.613167
 ---------------------------------------------------------------------

 SCF Done:  E(UB3LYP) =  -3112.39838093     A.U. after    2 cycles

 Alpha  occ. eigenvalues -- -482.55593 -62.20866 -56.02844 -56.02550 -56.02531
 Alpha  occ. eigenvalues --  -18.75831 -18.75630  -9.94548  -9.93536  -9.92708
 Alpha  occ. eigenvalues --   -9.92462  -9.92072  -9.91875  -9.91848  -9.88950
 Alpha  occ. eigenvalues --   -9.87868  -9.87712  -8.41802  -6.24755  -6.23770
 Alpha  occ. eigenvalues --   -6.23709  -2.35880  -2.35607  -2.35562  -2.34778
 Alpha  occ. eigenvalues --   -2.34778  -0.67321  -0.66859  -0.57957  -0.54386
 Alpha  occ. eigenvalues --   -0.50171  -0.45632  -0.44636  -0.43819  -0.39843
 Alpha  occ. eigenvalues --   -0.32939  -0.30065  -0.26072  -0.21444  -0.20898
 Alpha  occ. eigenvalues --   -0.20533  -0.17695  -0.16418  -0.16091  -0.16022
 Alpha  occ. eigenvalues --   -0.13571  -0.13334  -0.10628  -0.09911  -0.09857
 Alpha  occ. eigenvalues --   -0.09387  -0.08794  -0.07036  -0.06309  -0.05219
 Alpha  occ. eigenvalues --   -0.03648  -0.02164   0.03382   0.03996   0.06373
 Alpha  occ. eigenvalues --    0.06453   0.13747
 Alpha virt. eigenvalues --    0.15337   0.17814   0.18355   0.19337   0.19897
 Alpha virt. eigenvalues --    0.21312   0.21380   0.21480   0.22687   0.22858
 Alpha virt. eigenvalues --    0.24268   0.24363   0.25312   0.25957   0.26270

  Beta  occ. eigenvalues -- -482.55593 -62.20866 -56.02844 -56.02550 -56.02531
  Beta  occ. eigenvalues --  -18.75831 -18.75630  -9.94548  -9.93536  -9.92708
  Beta  occ. eigenvalues --   -9.92462  -9.92072  -9.91875  -9.91848  -9.88950
  Beta  occ. eigenvalues --   -9.87868  -9.87712  -8.41802  -6.24755  -6.23770
  Beta  occ. eigenvalues --   -6.23709  -2.35880  -2.35607  -2.35562  -2.34778
  Beta  occ. eigenvalues --   -2.34778  -0.67321  -0.66859  -0.57957  -0.54386
  Beta  occ. eigenvalues --   -0.50171  -0.45632  -0.44636  -0.43819  -0.39843
  Beta  occ. eigenvalues --   -0.32939  -0.30065  -0.26072  -0.21444  -0.20898
  Beta  occ. eigenvalues --   -0.20533  -0.17695  -0.16418  -0.16091  -0.16022
  Beta  occ. eigenvalues --   -0.13571  -0.13334  -0.10628  -0.09911  -0.09857
  Beta  occ. eigenvalues --   -0.09387  -0.08794  -0.07036  -0.06309  -0.05219
  Beta  occ. eigenvalues --   -0.03648  -0.02164   0.03382   0.03996   0.06373
  Beta  occ. eigenvalues --    0.06453   0.13747
  Beta virt. eigenvalues --    0.15337   0.17814   0.18355   0.19337   0.19897
  Beta virt. eigenvalues --    0.21312   0.21380   0.21480   0.22687   0.22858
  Beta virt. eigenvalues --    0.24268   0.24363   0.25312   0.25957   0.26270

 Mulliken charges and spin densities:
               1          2
     1  C   -1.114231  -0.000000
     2  C   -0.189848   0.000000
     3  C    1.282055  -0.000000
     4  C   -0.900227   0.000000
     5  C   -0.360880   0.000000
     6  C    0.960622  -0.000000
     7  Br  -0.435106   0.000000
     8  C    0.573825   0.000000
     9  C   -0.499039   0.000000
    10  C   -0.613589   0.000000
    11  C   -0.520817  -0.000000
    12  O   -0.524614   0.000000
    13  O   -0.536553  -0.000000
    14  H    0.113831   0.000000
    15  H    0.126952   0.000000
    16  H    0.092144  -0.000000
    17  H   -0.071696  -0.000000
    18  H    0.100540  -0.000000
    19  H    0.087554  -0.000000
    20  H    0.172348  -0.000000
    21  H    0.049443   0.000000
    22  H    0.082630  -0.000000
    23  H   -0.095169  -0.000000
    24  H    0.219826   0.000000
 Sum of Mulliken charges =  -2.00000  -0.00000

 Dipole moment (field-independent basis, Debye):
    X=             13.5913    Y=             -5.5376    Z=              0.0973  Tot=             14.6764
 Quadrupole moment (field-independent basis, Debye-Ang):
   XX=           -167.0948   YY=           -162.1550   ZZ=           -111.3278
   XY=            -13.8156   XZ=             -2.6622   YZ=             13.1865

  Exact polarizability:2440.707 797.126 599.760 348.161 117.784 247.576
 Approx polarizability:1402.323 431.753 539.455 201.624  34.947 276.877

                      1                      2                      3
                      A                      A                      A
 Frequencies --     54.4351                71.7449               144.1993
 Red. masses --      6.4839                 3.5412                 7.0402
 Frc consts  --      0.0113                 0.0107                 0.0863
 IR Inten    --      8.6076                 0.5223                64.4098

                      4                      5                      6
                      A                      A                      A
 Frequencies --    166.8040               182.7317               197.8048
 Red. masses --      9.0789                 4.0940                 9.0911
 Frc consts  --      0.1488                 0.0805                 0.2096
 IR Inten    --      7.1755                84.5825                26.6824

                      7                      8                      9
                      A                      A                      A
 Frequencies --    219.8843               255.9754               285.3163
 Red. masses --      5.1646                 1.0534                 3.0923
 Frc consts  --      0.1471                 0.0407                 0.1483
 IR Inten    --     52.8104               100.8727               398.6506

                     10                     11                     12
                      A                      A                      A
 Frequencies --    292.1468               298.1641               314.6054
 Red. masses --      4.3428                 1.1706                 2.0835
 Frc consts  --      0.2184                 0.0613                 0.1215
 IR Inten    --     23.4965                 8.6446              1002.3929

                     13                     14                     15
                      A                      A                      A
 Frequencies --    321.4878               361.1544               408.4905
 Red. masses --      1.3367                 3.1544                 3.2866
 Frc consts  --      0.0814                 0.2424                 0.3231
 IR Inten    --    103.0530               101.9883               504.4579

                     16                     17                     18
                      A                      A                      A
 Frequencies --    410.3639               419.5791               442.8994
 Red. masses --      2.9479                 7.1344                 3.9790
 Frc consts  --      0.2925                 0.7400                 0.4599
 IR Inten    --    344.5554              4527.6568                29.6919

                     19                     20                     21
                      A                      A                      A
 Frequencies --    494.9721               560.8207               624.4294
 Red. masses --      3.0925                 3.9495                 4.6795
 Frc consts  --      0.4464                 0.7319                 1.0750
 IR Inten    --     17.6134                 1.2257                14.9376

                     22                     23                     24
                      A                      A                      A
 Frequencies --    661.1019               694.7106               700.6754
 Red. masses --      3.2274                 6.0405                 2.3283
 Frc consts  --      0.8311                 1.7176                 0.6735
 IR Inten    --      4.6719               291.0494                14.8303

                     25                     26                     27
                      A                      A                      A
 Frequencies --    802.8365               804.0626               811.8966
 Red. masses --      3.2064                 4.5661                 3.2015
 Frc consts  --      1.2176                 1.7393                 1.2434
 IR Inten    --    242.3782               150.8446                27.7200

                     28                     29                     30
                      A                      A                      A
 Frequencies --    836.0944               912.9484               918.5955
 Red. masses --      1.6368                 1.8808                 3.2148
 Frc consts  --      0.6742                 0.9236                 1.5983
 IR Inten    --    136.6649               238.8079              1036.2359

                     31                     32                     33
                      A                      A                      A
 Frequencies --    924.3164               952.8522              1026.4383
 Red. masses --      1.7119                 1.2121                 1.6830
 Frc consts  --      0.8618                 0.6484                 1.0447
 IR Inten    --    322.3354                18.6401              1080.4255

                     34                     35                     36
                      A                      A                      A
 Frequencies --   1046.9108              1056.9216              1137.9983
 Red. masses --      1.3830                 2.0024                 9.4785
 Frc consts  --      0.8931                 1.3179                 7.2322
 IR Inten    --    101.0392                43.1876                83.2916

                     37                     38                     39
                      A                      A                      A
 Frequencies --   1196.4636              1207.1767              1214.6944
 Red. masses --      1.9780                 2.5848                 1.8603
 Frc consts  --      1.6683                 2.2193                 1.6172
 IR Inten    --   5433.4065                23.7946              1241.7812

                     40                     41                     42
                      A                      A                      A
 Frequencies --   1249.1124              1271.8582              1317.4405
 Red. masses --      2.2703                 2.7199                 3.8965
 Frc consts  --      2.0870                 2.5922                 3.9846
 IR Inten    --    485.7376               541.7440              5400.3149

                     43                     44                     45
                      A                      A                      A
 Frequencies --   1349.9042              1364.5614              1380.9649
 Red. masses --      1.2138                 1.3289                 5.7407
 Frc consts  --      1.3032                 1.4579                 6.4503
 IR Inten    --     12.1547               278.0339               520.8543

                     46                     47                     48
                      A                      A                      A
 Frequencies --   1389.1375              1433.9700              1453.5619
 Red. masses --      1.4204                 4.6432                 3.4253
 Frc consts  --      1.6149                 5.6253                 4.2640
 IR Inten    --    149.7848              1729.2345               604.8175

                     49                     50                     51
                      A                      A                      A
 Frequencies --   1457.0620              1483.5912              1486.3844
 Red. masses --      1.0601                 1.0551                 1.1957
 Frc consts  --      1.3260                 1.3683                 1.5565
 IR Inten    --     38.8926                13.6083                77.0743

                     52                     53                     54
                      A                      A                      A
 Frequencies --   1492.1836              1509.8098              1526.9784
 Red. masses --      1.0502                 1.0575                 1.0816
 Frc consts  --      1.3777                 1.4203                 1.4858
 IR Inten    --    115.4907                97.9904               336.4844

                     55                     56                     57
                      A                      A                      A
 Frequencies --   1549.0576              2934.9289              2946.2436
 Red. masses --      4.7479                 1.0518                 1.0484
 Frc consts  --      6.7126                 5.3379                 5.3621
 IR Inten    --   9413.0057               185.2036              2635.4454

                     58                     59                     60
                      A                      A                      A
 Frequencies --   2979.6372              3020.7852              3026.6152
 Red. masses --      1.0449                 1.0854                 1.0832
 Frc consts  --      5.4656                 5.8354                 5.8461
 IR Inten    --    463.2598               729.7794                21.2828

                     61                     62                     63
                      A                      A                      A
 Frequencies --   3040.3664              3067.5619              3077.4285
 Red. masses --      1.0876                 1.1009                 1.1006
 Frc consts  --      5.9231                 6.1033                 6.1413
 IR Inten    --    393.7127                57.4323                 3.8701

                     64                     65                     66
                      A                      A                      A
 Frequencies --   3087.6235              3139.3116              3158.0885
 Red. masses --      1.0998                 1.0854                 1.0888
 Frc consts  --      6.1775                 6.3022                 6.3980
 IR Inten    --    312.2998               211.2967               149.3760

 - Thermochemistry -
 -------------------
 Temperature   298.150 Kelvin.  Pressure   1.00000 Atm.
 Atom     1 has atomic number  6 and mass  12.00000

 Molecular mass:   241.99424 amu.
 Principal axes and moments of inertia in atomic units:
                           1         2         3
     Eigenvalues --  1353.466476186.484417142.52698
           X            0.87384  -0.44952  -0.18529
           Y            0.48619   0.81153   0.32410
           Z            0.00468  -0.37330   0.92770
 This molecule is an asymmetric top.
 Rotational symmetry number  1.
 Warning -- assumption of classical behavior for rotation
           may cause significant error
 Rotational temperatures (Kelvin)      0.06399     0.01400     0.01213
 Rotational constants (GHZ):           1.33342     0.29172     0.25268
 Zero-point vibrational energy     476286.4 (Joules/Mol)
                                  113.83519 (Kcal/Mol)
 Warning -- explicit consideration of  20 degrees of freedom as
           vibrations may cause significant error
 Vibrational temperatures:     78.32   103.22   207.47   239.99   262.91
          (Kelvin)            284.60   316.36   368.29   410.51   420.33
                              428.99   452.65   462.55   519.62   587.73
                              590.42   603.68   637.23   712.15   806.90
                              898.41   951.18   999.53  1008.12  1155.10
                             1156.87  1168.14  1202.95  1313.53  1321.65
                             1329.89  1370.94  1476.82  1506.27  1520.67
                             1637.33  1721.44  1736.86  1747.67  1797.19
                             1829.92  1895.50  1942.21  1963.30  1986.90
                             1998.66  2063.16  2091.35  2096.39  2134.56
                             2138.58  2146.92  2172.28  2196.98  2228.75
                             4222.71  4238.99  4287.03  4346.24  4354.62
                             4374.41  4413.54  4427.73  4442.40  4516.77
                             4543.78

 Zero-point correction=                           0.181408 (Hartree/Particle)
 Thermal correction to Energy=                    0.194572
 Thermal correction to Enthalpy=                  0.195516
 Thermal correction to Gibbs Free Energy=         0.141750
 Sum of electronic and zero-point Energies=          -3112.216973
 Sum of electronic and thermal Energies=             -3112.203809
 Sum of electronic and thermal Enthalpies=           -3112.202865
 Sum of electronic and thermal Free Energies=        -3112.256631

                     E (Thermal)             CV                S
                      KCal/Mol        Cal/Mol-Kelvin    Cal/Mol-Kelvin
 Total                  122.096             50.372            113.161
 Electronic               0.000              0.000              0.000
 Translational            0.889              2.981             42.352
 Rotational               0.889              2.981             32.459
 Vibrational            120.318             44.411             38.351
 Vibration     1          0.596              1.976              4.649
 Vibration     2          0.598              1.967              4.105
 Vibration     3          0.616              1.909              2.747
 Vibration     4          0.624              1.883              2.471
 Vibration     5          0.630              1.863              2.300
 Vibration     6          0.637              1.843              2.153
 Vibration     7          0.647              1.811              1.960
 Vibration     8          0.666              1.753              1.689
 Vibration     9          0.683              1.701              1.502
 Vibration    10          0.688              1.688              1.461
 Vibration    11          0.691              1.677              1.427
 Vibration    12          0.702              1.646              1.338
 Vibration    13          0.707              1.632              1.303
 Vibration    14          0.735              1.552              1.117
 Vibration    15          0.773              1.452              0.932
 Vibration    16          0.775              1.448              0.925
 Vibration    17          0.782              1.428              0.893
 Vibration    18          0.803              1.377              0.818
 Vibration    19          0.851              1.261              0.671
 Vibration    20          0.916              1.116              0.522

 Optimization completed.
    -- Stationary point found.
 Normal termination of Gaussian 16 at Sun Dec 17 23:18:35 2023.
