 Gaussian 16, Revision A.03,
 Gaussian 16:  ES64L-G16RevA.03 25-Dec-2016

 --------------------------------------
 #P UB3LYP/6-311++G(d,p) nosym opt freq
 --------------------------------------

 -------
 Reduced
 -------
 Symbolic Z-matrix:
 Charge = -2 Multiplicity = 1

 SCF Done:  E(UB3LYP) =  -1055.04314602     A.U. after   36 cycles
 SCF Done:  E(UB3LYP) =  -1055.04314596     A.U. after   25 cycles
 SCF Done:  E(UB3LYP) =  -1055.04314602     A.U. after   21 cycles
 SCF Done:  E(UB3LYP) =  -1055.04314603     A.U. after   24 cycles
 Optimization completed.
    -- Stationary point found.
 Normal termination of Gaussian 16 at Wed Jan 10 17:32:08 2024.

 ----------------------------------------------------------------------
 #P Geom=AllCheck Guess=TCheck SCRF=Check GenChk UB3LYP/6-311++G(d,p) F
 req
 ----------------------------------------------------------------------

 Structure from the checkpoint file:  "103-an.chk"
 -------
 Reduced
 -------
 Charge = -2 Multiplicity = 1

                          Input orientation:
 ---------------------------------------------------------------------
 Center     Atomic      Atomic             Coordinates (Angstroms)
 Number     Number       Type             X           Y           Z
 ---------------------------------------------------------------------
      1          6           0       -0.124515    1.897882    5.040570
      2          6           0        1.052098    1.315987    4.458766
      3          6           0        1.377679    1.304481    3.100663
      4          6           0        0.483607    1.911273    2.129418
      5          6           0       -0.697895    2.475406    2.690267
      6          6           0       -0.991484    2.499181    4.062150
      7          8           0       -0.364084    1.852553    6.310279
      8          8           0        0.725001    1.942560    0.848475
      9         16           0       -2.477597    3.355923    4.597734
     10          6           0       -3.374256    2.038640    5.555092
     11          6           0       -4.490886    2.692943    6.367332
     12          6           0       -3.902385    0.929063    4.647905
     13          6           0        2.681465    0.653966    2.593662
     14          6           0        3.539349    0.041294    3.717465
     15          6           0        3.539771    1.722076    1.871200
     16          6           0        2.337924   -0.475926    1.591310
     17          1           0        1.712681    0.853722    5.186851
     18          1           0       -1.394280    2.929272    1.989651
     19          1           0       -2.599982    1.646457    6.221550
     20          1           0       -4.088701    3.433768    7.064449
     21          1           0       -5.041210    1.939839    6.949424
     22          1           0       -5.216826    3.196469    5.715627
     23          1           0       -3.097455    0.521546    4.032264
     24          1           0       -4.686891    1.304227    3.979631
     25          1           0       -4.326843    0.109058    5.248815
     26          1           0        3.001312   -0.746885    4.253540
     27          1           0        3.844512    0.794571    4.450561
     28          1           0        4.447598   -0.400387    3.284522
     29          1           0        3.849047    2.499151    2.579982
     30          1           0        2.940750    2.179110    1.080232
     31          1           0        4.446940    1.270825    1.438353
     32          1           0        1.785508   -1.274987    2.099297
     33          1           0        3.254037   -0.911309    1.160882
     34          1           0        1.715150   -0.063079    0.794519
 ---------------------------------------------------------------------

 SCF Done:  E(UB3LYP) =  -1055.04314603     A.U. after    2 cycles

 Alpha  occ. eigenvalues --  -88.58779 -18.77081 -18.76766  -9.96469  -9.95925
 Alpha  occ. eigenvalues --   -9.95483  -9.94596  -9.94507  -9.93191  -9.92820
 Alpha  occ. eigenvalues --   -9.92807  -9.92784  -9.91353  -9.90007  -9.88470
 Alpha  occ. eigenvalues --   -9.88318  -7.67346  -5.63727  -5.63373  -5.62762
 Alpha  occ. eigenvalues --   -0.68469  -0.67869  -0.58922  -0.58656  -0.53903
 Alpha  occ. eigenvalues --   -0.48936  -0.47648  -0.46589  -0.45575  -0.43372
 Alpha  occ. eigenvalues --   -0.40177  -0.35225  -0.32431  -0.30625  -0.27007
 Alpha  occ. eigenvalues --   -0.24054  -0.22633  -0.22041  -0.21494  -0.21479
 Alpha  occ. eigenvalues --   -0.20122  -0.18540  -0.18065  -0.17033  -0.16949
 Alpha  occ. eigenvalues --   -0.16038  -0.14573  -0.14263  -0.13434  -0.12982
 Alpha  occ. eigenvalues --   -0.11462  -0.10813  -0.10662  -0.09957  -0.09619
 Alpha  occ. eigenvalues --   -0.07829  -0.07520  -0.06082  -0.05814   0.00415
 Alpha  occ. eigenvalues --    0.02413   0.04021   0.05313   0.05637   0.12938
 Alpha virt. eigenvalues --    0.14526   0.15299   0.17057   0.17666   0.17881
 Alpha virt. eigenvalues --    0.17970   0.19099   0.19907   0.20624   0.20890
 Alpha virt. eigenvalues --    0.20976   0.21292   0.21929   0.22501   0.22850

  Beta  occ. eigenvalues --  -88.58779 -18.77081 -18.76766  -9.96469  -9.95925
  Beta  occ. eigenvalues --   -9.95483  -9.94596  -9.94507  -9.93191  -9.92820
  Beta  occ. eigenvalues --   -9.92807  -9.92784  -9.91353  -9.90007  -9.88470
  Beta  occ. eigenvalues --   -9.88318  -7.67346  -5.63727  -5.63373  -5.62762
  Beta  occ. eigenvalues --   -0.68469  -0.67869  -0.58922  -0.58656  -0.53903
  Beta  occ. eigenvalues --   -0.48936  -0.47648  -0.46589  -0.45575  -0.43372
  Beta  occ. eigenvalues --   -0.40177  -0.35225  -0.32431  -0.30625  -0.27007
  Beta  occ. eigenvalues --   -0.24054  -0.22633  -0.22041  -0.21494  -0.21479
  Beta  occ. eigenvalues --   -0.20122  -0.18540  -0.18065  -0.17033  -0.16949
  Beta  occ. eigenvalues --   -0.16038  -0.14573  -0.14263  -0.13434  -0.12982
  Beta  occ. eigenvalues --   -0.11462  -0.10813  -0.10662  -0.09957  -0.09619
  Beta  occ. eigenvalues --   -0.07829  -0.07520  -0.06082  -0.05814   0.00415
  Beta  occ. eigenvalues --    0.02413   0.04021   0.05313   0.05637   0.12938
  Beta virt. eigenvalues --    0.14526   0.15299   0.17057   0.17666   0.17881
  Beta virt. eigenvalues --    0.17970   0.19099   0.19907   0.20624   0.20890
  Beta virt. eigenvalues --    0.20976   0.21292   0.21929   0.22501   0.22850

 Mulliken charges and spin densities:
               1          2
     1  C   -1.092699  -0.000000
     2  C   -0.307284   0.000000
     3  C    1.105373  -0.000000
     4  C   -1.206642  -0.000000
     5  C   -0.592955   0.000000
     6  C    1.948045  -0.000000
     7  O   -0.506584  -0.000000
     8  O   -0.520565   0.000000
     9  S   -0.486952   0.000000
    10  C   -0.086083   0.000000
    11  C    0.045766   0.000000
    12  C   -0.534187  -0.000000
    13  C    0.779540   0.000000
    14  C   -0.633467  -0.000000
    15  C   -0.713682   0.000000
    16  C   -0.692474   0.000000
    17  H    0.104230   0.000000
    18  H    0.108040   0.000000
    19  H    0.249523  -0.000000
    20  H    0.106295  -0.000000
    21  H   -0.310037   0.000000
    22  H    0.031623  -0.000000
    23  H    0.158545   0.000000
    24  H    0.076522  -0.000000
    25  H   -0.068079  -0.000000
    26  H    0.111247   0.000000
    27  H    0.112817  -0.000000
    28  H    0.109412  -0.000000
    29  H    0.088443   0.000000
    30  H    0.198012  -0.000000
    31  H    0.066625   0.000000
    32  H    0.090557  -0.000000
    33  H    0.057954  -0.000000
    34  H    0.203120  -0.000000
 Sum of Mulliken charges =  -2.00000  -0.00000

 Dipole moment (field-independent basis, Debye):
    X=              4.5285    Y=            -18.3757    Z=            -37.1923  Tot=             41.7305
 Quadrupole moment (field-independent basis, Debye-Ang):
   XX=           -183.5779   YY=           -167.7585   ZZ=           -326.8713
   XY=             18.0186   XZ=             50.8352   YZ=            -73.0338

  Exact polarizability:1514.179 -30.058 415.144-743.001  39.083 768.589
 Approx polarizability:3009.612 201.465 433.810********-138.4231397.064

                      1                      2                      3
                      A                      A                      A
 Frequencies --     36.1878                44.7939                53.8103
 Red. masses --      3.9097                 3.0214                 3.5188
 Frc consts  --      0.0030                 0.0036                 0.0060
 IR Inten    --      2.6131                 1.9186                 9.2731

                      4                      5                      6
                      A                      A                      A
 Frequencies --     77.8094               104.8912               174.9204
 Red. masses --      3.8687                 4.2991                 5.6233
 Frc consts  --      0.0138                 0.0279                 0.1014
 IR Inten    --      1.5274                19.8759                 8.4759

                      7                      8                      9
                      A                      A                      A
 Frequencies --    183.1444               213.3766               216.3721
 Red. masses --      4.5857                 4.3350                 1.2053
 Frc consts  --      0.0906                 0.1163                 0.0332
 IR Inten    --     30.0440                 8.2977                 5.6470

                     10                     11                     12
                      A                      A                      A
 Frequencies --    233.9564               242.6382               254.5833
 Red. masses --      1.9477                 2.8092                 1.0419
 Frc consts  --      0.0628                 0.0974                 0.0398
 IR Inten    --     13.8011                 6.6221                 0.0934

                     13                     14                     15
                      A                      A                      A
 Frequencies --    262.8684               292.9150               295.8968
 Red. masses --      1.7463                 1.9470                 1.4121
 Frc consts  --      0.0711                 0.0984                 0.0728
 IR Inten    --     26.3378                 1.4178                 5.0277

                     16                     17                     18
                      A                      A                      A
 Frequencies --    298.8453               318.2744               325.7925
 Red. masses --      3.6675                 1.0485                 3.0907
 Frc consts  --      0.1930                 0.0626                 0.1933
 IR Inten    --      0.5862                 0.1118                46.3849

                     19                     20                     21
                      A                      A                      A
 Frequencies --    338.6750               362.1359               382.5094
 Red. masses --      3.2530                 5.1817                 2.7262
 Frc consts  --      0.2198                 0.4004                 0.2350
 IR Inten    --      8.7134                32.8326                 3.8345

                     22                     23                     24
                      A                      A                      A
 Frequencies --    412.3344               415.0270               439.0648
 Red. masses --      2.5683                 2.7017                 4.1706
 Frc consts  --      0.2573                 0.2742                 0.4737
 IR Inten    --      1.9152                16.0356                 2.5896

                     25                     26                     27
                      A                      A                      A
 Frequencies --    457.2345               486.9745               501.0075
 Red. masses --      5.5691                 5.1028                 3.3188
 Frc consts  --      0.6860                 0.7130                 0.4908
 IR Inten    --    811.3130               418.5233                 7.1142

                     28                     29                     30
                      A                      A                      A
 Frequencies --    596.3158               611.8466               640.5380
 Red. masses --      4.5360                 3.8375                 4.5913
 Frc consts  --      0.9503                 0.8464                 1.1099
 IR Inten    --      1.0536                13.2125                15.8405

                     31                     32                     33
                      A                      A                      A
 Frequencies --    693.0863               701.5470               729.8653
 Red. masses --      4.2867                 6.7305                 2.6634
 Frc consts  --      1.2132                 1.9517                 0.8359
 IR Inten    --      8.3176                17.7509                 7.9306

                     34                     35                     36
                      A                      A                      A
 Frequencies --    810.0128               830.4337               836.5641
 Red. masses --      3.4727                 2.0075                 4.0332
 Frc consts  --      1.3425                 0.8157                 1.6630
 IR Inten    --      8.9135                31.8116                32.2895

                     37                     38                     39
                      A                      A                      A
 Frequencies --    851.3554               875.6772               914.8158
 Red. masses --      1.6167                 2.6400                 1.7979
 Frc consts  --      0.6904                 1.1927                 0.8865
 IR Inten    --     16.7568                 6.5027                 0.4495

                     40                     41                     42
                      A                      A                      A
 Frequencies --    927.9357               939.3364               952.2984
 Red. masses --      1.7460                 1.2578                 1.2147
 Frc consts  --      0.8858                 0.6539                 0.6490
 IR Inten    --     28.3556                39.2818                 0.2623

                     43                     44                     45
                      A                      A                      A
 Frequencies --    955.1080               967.5403              1033.8002
 Red. masses --      1.3443                 4.3389                 1.5325
 Frc consts  --      0.7225                 2.3931                 0.9650
 IR Inten    --     24.4410               323.0647               153.9035

                     46                     47                     48
                      A                      A                      A
 Frequencies --   1046.3987              1066.4077              1072.7680
 Red. masses --      1.3817                 1.7540                 1.5828
 Frc consts  --      0.8914                 1.1752                 1.0732
 IR Inten    --      1.1071                 5.4746               214.0485

                     49                     50                     51
                      A                      A                      A
 Frequencies --   1123.1858              1166.6111              1168.2393
 Red. masses --      2.5838                 2.6009                 3.8334
 Frc consts  --      1.9205                 2.0856                 3.0825
 IR Inten    --      0.2780               198.8029                 8.5836

                     52                     53                     54
                      A                      A                      A
 Frequencies --   1206.6688              1210.1104              1227.6474
 Red. masses --      2.6108                 2.3444                 1.4986
 Frc consts  --      2.2398                 2.0227                 1.3307
 IR Inten    --      8.7444               327.3583               935.2404

                     55                     56                     57
                      A                      A                      A
 Frequencies --   1242.4323              1255.9517              1275.4121
 Red. masses --      1.5949                 1.8149                 2.7075
 Frc consts  --      1.4506                 1.6868                 2.5949
 IR Inten    --    417.4315                80.4368               181.9171

                     58                     59                     60
                      A                      A                      A
 Frequencies --   1331.2395              1350.2807              1367.2407
 Red. masses --      3.9659                 1.2131                 1.3795
 Frc consts  --      4.1410                 1.3032                 1.5194
 IR Inten    --   2727.1591                17.9228               149.6137

                     61                     62                     63
                      A                      A                      A
 Frequencies --   1371.4361              1388.1995              1393.7329
 Red. masses --      1.2652                 1.5602                 1.2812
 Frc consts  --      1.4021                 1.7715                 1.4663
 IR Inten    --    132.6588                31.7109               149.3503

                     64                     65                     66
                      A                      A                      A
 Frequencies --   1395.4405              1405.3051              1429.3827
 Red. masses --      1.2715                 3.4491                 7.1898
 Frc consts  --      1.4587                 4.0132                 8.6549
 IR Inten    --     61.5148               106.4271               719.3374

                     67                     68                     69
                      A                      A                      A
 Frequencies --   1453.4861              1457.4624              1472.4131
 Red. masses --      2.5229                 1.0478                 1.0576
 Frc consts  --      3.1403                 1.3113                 1.3509
 IR Inten    --    478.9565                 1.3995                24.1511

                     70                     71                     72
                      A                      A                      A
 Frequencies --   1478.3064              1484.9387              1485.0917
 Red. masses --      1.0428                 1.0501                 1.0511
 Frc consts  --      1.3428                 1.3643                 1.3658
 IR Inten    --     25.5670                29.9547               104.6547

                     73                     74                     75
                      A                      A                      A
 Frequencies --   1486.5763              1493.5785              1500.9461
 Red. masses --      1.2142                 1.0518                 1.0481
 Frc consts  --      1.5810                 1.3824                 1.3912
 IR Inten    --     40.7077                 1.7959                51.8587

                     76                     77                     78
                      A                      A                      A
 Frequencies --   1510.8258              1528.4794              1568.7663
 Red. masses --      1.0539                 1.0605                 5.5730
 Frc consts  --      1.4173                 1.4597                 8.0809
 IR Inten    --      1.4968                37.6616              4118.9639

                     79                     80                     81
                      A                      A                      A
 Frequencies --   2940.2705              2950.5902              2952.8321
 Red. masses --      1.0505                 1.0490                 1.0514
 Frc consts  --      5.3510                 5.3805                 5.4011
 IR Inten    --     76.5717              1274.3033               115.9138

                     82                     83                     84
                      A                      A                      A
 Frequencies --   2970.2289              2983.3976              3010.7239
 Red. masses --      1.0422                 1.0437                 1.0927
 Frc consts  --      5.4172                 5.4735                 5.8358
 IR Inten    --     83.6732               560.8605               145.7888

                     85                     86                     87
                      A                      A                      A
 Frequencies --   3019.7374              3023.2599              3028.0625
 Red. masses --      1.0896                 1.0835                 1.0849
 Frc consts  --      5.8543                 5.8351                 5.8608
 IR Inten    --     10.0333                45.3780                14.2335

                     88                     89                     90
                      A                      A                      A
 Frequencies --   3043.8687              3046.4341              3069.7961
 Red. masses --      1.0887                 1.0861                 1.1010
 Frc consts  --      5.9430                 5.9388                 6.1131
 IR Inten    --    132.8743                92.2284                52.3958

                     91                     92                     93
                      A                      A                      A
 Frequencies --   3070.2573              3083.4087              3086.7028
 Red. masses --      1.0967                 1.1004                 1.0997
 Frc consts  --      6.0909                 6.1643                 6.1733
 IR Inten    --     23.4350                 1.4290               115.2202

                     94                     95                     96
                      A                      A                      A
 Frequencies --   3092.1283              3131.1266              3138.5110
 Red. masses --      1.0961                 1.0876                 1.0858
 Frc consts  --      6.1750                 6.2823                 6.3016
 IR Inten    --      5.7248                95.0760               128.4596

 - Thermochemistry -
 -------------------
 Temperature   298.150 Kelvin.  Pressure   1.00000 Atm.
 Atom     1 has atomic number  6 and mass  12.00000

 Molecular mass:   238.10275 amu.
 Principal axes and moments of inertia in atomic units:
                           1         2         3
     Eigenvalues --  1716.705787521.179198132.98670
           X            0.85772   0.37795   0.34852
           Y           -0.24028  -0.30462   0.92167
           Z           -0.45451   0.87428   0.17047
 This molecule is an asymmetric top.
 Rotational symmetry number  1.
 Warning -- assumption of classical behavior for rotation
           may cause significant error
 Rotational temperatures (Kelvin)      0.05045     0.01152     0.01065
 Rotational constants (GHZ):           1.05128     0.23995     0.22190
 Zero-point vibrational energy     725836.7 (Joules/Mol)
                                  173.47913 (Kcal/Mol)
 Warning -- explicit consideration of  29 degrees of freedom as
           vibrations may cause significant error
 Vibrational temperatures:     52.07    64.45    77.42   111.95   150.91
          (Kelvin)            251.67   263.50   307.00   311.31   336.61
                              349.10   366.29   378.21   421.44   425.73
                              429.97   457.93   468.74   487.28   521.03
                              550.35   593.26   597.13   631.72   657.86
                              700.65   720.84   857.97   880.31   921.59
                              997.20  1009.37  1050.11  1165.43  1194.81
                             1203.63  1224.91  1259.90  1316.22  1335.09
                             1351.50  1370.15  1374.19  1392.07  1487.41
                             1505.53  1534.32  1543.47  1616.01  1678.49
                             1680.84  1736.13  1741.08  1766.31  1787.58
                             1807.03  1835.03  1915.36  1942.75  1967.15
                             1973.19  1997.31  2005.27  2007.73  2021.92
                             2056.56  2091.24  2096.96  2118.47  2126.95
                             2136.50  2136.72  2138.85  2148.93  2159.53
                             2173.74  2199.14  2257.10  4230.39  4245.24
                             4248.47  4273.50  4292.44  4331.76  4344.73
                             4349.80  4356.71  4379.45  4383.14  4416.75
                             4417.42  4436.34  4441.08  4448.88  4504.99
                             4515.62

 Zero-point correction=                           0.276457 (Hartree/Particle)
 Thermal correction to Energy=                    0.294040
 Thermal correction to Enthalpy=                  0.294984
 Thermal correction to Gibbs Free Energy=         0.231672
 Sum of electronic and zero-point Energies=          -1054.766689
 Sum of electronic and thermal Energies=             -1054.749106
 Sum of electronic and thermal Enthalpies=           -1054.748162
 Sum of electronic and thermal Free Energies=        -1054.811474

                     E (Thermal)             CV                S
                      KCal/Mol        Cal/Mol-Kelvin    Cal/Mol-Kelvin
 Total                  184.513             67.420            133.252
 Electronic               0.000              0.000              0.000
 Translational            0.889              2.981             42.304
 Rotational               0.889              2.981             33.018
 Vibrational            182.735             61.458             57.930
 Vibration     1          0.594              1.982              5.458
 Vibration     2          0.595              1.979              5.035
 Vibration     3          0.596              1.976              4.672
 Vibration     4          0.599              1.964              3.945
 Vibration     5          0.605              1.945              3.361
 Vibration     6          0.627              1.873              2.382
 Vibration     7          0.631              1.863              2.296
 Vibration     8          0.644              1.821              2.015
 Vibration     9          0.645              1.816              1.989
 Vibration    10          0.654              1.789              1.848
 Vibration    11          0.659              1.775              1.783
 Vibration    12          0.665              1.755              1.699
 Vibration    13          0.670              1.741              1.643
 Vibration    14          0.688              1.687              1.457
 Vibration    15          0.690              1.681              1.440
 Vibration    16          0.692              1.676              1.423
 Vibration    17          0.705              1.639              1.319
 Vibration    18          0.710              1.624              1.281
 Vibration    19          0.719              1.598              1.218
 Vibration    20          0.736              1.550              1.113
 Vibration    21          0.752              1.507              1.029
 Vibration    22          0.776              1.443              0.918
 Vibration    23          0.778              1.438              0.909
 Vibration    24          0.799              1.385              0.830
 Vibration    25          0.815              1.345              0.774
 Vibration    26          0.843              1.279              0.692
 Vibration    27          0.856              1.248              0.656
 Vibration    28          0.954              1.040              0.456
 Vibration    29          0.971              1.007              0.430

 Optimization completed.
    -- Stationary point found.
 Normal termination of Gaussian 16 at Wed Jan 10 18:45:29 2024.
