 Q-Chem 5.4, Q-Chem, Inc., Pleasanton, CA (2021)
 Q-Chem 5.4.0 for Intel X86 EM64T Linux

User input:
--------------------------------------------------------------
$molecule
-2 1
C                 -0.1245150000      1.8978820000      5.0405700000
C                  1.0520980000      1.3159870000      4.4587660000
C                  1.3776790000      1.3044810000      3.1006630000
C                  0.4836070000      1.9112730000      2.1294180000
C                 -0.6978950000      2.4754060000      2.6902670000
C                 -0.9914840000      2.4991810000      4.0621500000
O                 -0.3640840000      1.8525530000      6.3102790000
O                  0.7250010000      1.9425600000      0.8484750000
S                 -2.4775970000      3.3559230000      4.5977340000
C                 -3.3742560000      2.0386400000      5.5550920000
C                 -4.4908860000      2.6929430000      6.3673320000
C                 -3.9023850000      0.9290630000      4.6479050000
C                  2.6814650000      0.6539660000      2.5936620000
C                  3.5393490000      0.0412940000      3.7174650000
C                  3.5397710000      1.7220760000      1.8712000000
C                  2.3379240000     -0.4759260000      1.5913100000
H                  1.7126810000      0.8537220000      5.1868510000
H                 -1.3942800000      2.9292720000      1.9896510000
H                 -2.5999820000      1.6464570000      6.2215500000
H                 -4.0887010000      3.4337680000      7.0644490000
H                 -5.0412100000      1.9398390000      6.9494240000
H                 -5.2168260000      3.1964690000      5.7156270000
H                 -3.0974550000      0.5215460000      4.0322640000
H                 -4.6868910000      1.3042270000      3.9796310000
H                 -4.3268430000      0.1090580000      5.2488150000
H                  3.0013120000     -0.7468850000      4.2535400000
H                  3.8445120000      0.7945710000      4.4505610000
H                  4.4475980000     -0.4003870000      3.2845220000
H                  3.8490470000      2.4991510000      2.5799820000
H                  2.9407500000      2.1791100000      1.0802320000
H                  4.4469400000      1.2708250000      1.4383530000
H                  1.7855080000     -1.2749870000      2.0992970000
H                  3.2540370000     -0.9113090000      1.1608820000
H                  1.7151500000     -0.0630790000      0.7945190000
$end
$rem
MAX_SCF_CYCLES=200
BASIS  =  6-311++G(d,p)
GUI  =  2
JOB_TYPE  =  SP
METHOD  =  B3LYP
SOLVENT_METHOD = PCM
$end
$pcm
theory = CPCM
$end
$solvent
dielectric 37.219
opticaldielectric 1.43
$end

--------------------------------------------------------------

             Standard Nuclear Orientation (Angstroms)
    I     Atom           X                Y                Z
 ----------------------------------------------------------------
    1      C      -0.1245150000     1.8978820000     5.0405700000
    2      C       1.0520980000     1.3159870000     4.4587660000
    3      C       1.3776790000     1.3044810000     3.1006630000
    4      C       0.4836070000     1.9112730000     2.1294180000
    5      C      -0.6978950000     2.4754060000     2.6902670000
    6      C      -0.9914840000     2.4991810000     4.0621500000
    7      O      -0.3640840000     1.8525530000     6.3102790000
    8      O       0.7250010000     1.9425600000     0.8484750000
    9      S      -2.4775970000     3.3559230000     4.5977340000
   10      C      -3.3742560000     2.0386400000     5.5550920000
   11      C      -4.4908860000     2.6929430000     6.3673320000
   12      C      -3.9023850000     0.9290630000     4.6479050000
   13      C       2.6814650000     0.6539660000     2.5936620000
   14      C       3.5393490000     0.0412940000     3.7174650000
   15      C       3.5397710000     1.7220760000     1.8712000000
   16      C       2.3379240000    -0.4759260000     1.5913100000
   17      H       1.7126810000     0.8537220000     5.1868510000
   18      H      -1.3942800000     2.9292720000     1.9896510000
   19      H      -2.5999820000     1.6464570000     6.2215500000
   20      H      -4.0887010000     3.4337680000     7.0644490000
   21      H      -5.0412100000     1.9398390000     6.9494240000
   22      H      -5.2168260000     3.1964690000     5.7156270000
   23      H      -3.0974550000     0.5215460000     4.0322640000
   24      H      -4.6868910000     1.3042270000     3.9796310000
   25      H      -4.3268430000     0.1090580000     5.2488150000
   26      H       3.0013120000    -0.7468850000     4.2535400000
   27      H       3.8445120000     0.7945710000     4.4505610000
   28      H       4.4475980000    -0.4003870000     3.2845220000
   29      H       3.8490470000     2.4991510000     2.5799820000
   30      H       2.9407500000     2.1791100000     1.0802320000
   31      H       4.4469400000     1.2708250000     1.4383530000
   32      H       1.7855080000    -1.2749870000     2.0992970000
   33      H       3.2540370000    -0.9113090000     1.1608820000
   34      H       1.7151500000    -0.0630790000     0.7945190000
 ----------------------------------------------------------------

    9   -1055.3167110413      6.87e-06  Convergence criterion met
 Total energy in the final basis set =    -1055.3167110413

                    Orbital Energies (a.u.)
 --------------------------------------------------------------

 Alpha MOs
 -- Occupied --
-88.8146 -19.0167 -19.0094 -10.1792 -10.1707 -10.1656 -10.1612 -10.1517
-10.1490 -10.1476 -10.1379 -10.1310 -10.1309 -10.1308 -10.1202 -10.1187
 -7.9007  -5.8643  -5.8609  -5.8550  -0.9321  -0.9224  -0.8032  -0.7974
 -0.7681  -0.7141  -0.6758  -0.6667  -0.6607  -0.6594  -0.6337  -0.5671
 -0.5485  -0.5289  -0.4904  -0.4476  -0.4410  -0.4353  -0.4270  -0.4150
 -0.4057  -0.4018  -0.3930  -0.3847  -0.3777  -0.3756  -0.3613  -0.3528
 -0.3502  -0.3445  -0.3376  -0.3357  -0.3221  -0.3178  -0.3097  -0.3037
 -0.3010  -0.2975  -0.2901  -0.2309  -0.2193  -0.1965  -0.1943  -0.1862
 -0.1175

          Ground-State Mulliken Net Atomic Charges

     Atom                 Charge (a.u.)
  ----------------------------------------
      1 C                    -0.683642
      2 C                    -0.477802
      3 C                     0.769034
      4 C                    -0.863133
      5 C                    -0.696882
      6 C                     1.622459
      7 O                    -0.697316
      8 O                    -0.705485
      9 S                    -0.574461
     10 C                     0.248831
     11 C                    -0.678706
     12 C                    -0.727229
     13 C                     0.664281
     14 C                    -0.562982
     15 C                    -0.702281
     16 C                    -0.686876
     17 H                     0.157806
     18 H                     0.149586
     19 H                     0.245828
     20 H                     0.156550
     21 H                     0.150199
     22 H                     0.144499
     23 H                     0.153629
     24 H                     0.156866
     25 H                     0.142829
     26 H                     0.130667
     27 H                     0.131798
     28 H                     0.166247
     29 H                     0.122371
     30 H                     0.171976
     31 H                     0.139995
     32 H                     0.123091
     33 H                     0.138130
     34 H                     0.170123
  ----------------------------------------
  Sum of atomic charges =    -2.000000

                    Cartesian Multipole Moments
 -----------------------------------------------------------------
    Charge (ESU x 10^10)
                -9.6064
    Dipole Moment (Debye)
         X      -0.1586      Y     -20.9479      Z     -34.1108
       Tot      40.0298
    Quadrupole Moments (Debye-Ang)
        XX    -126.8725     XY       7.9881     YY    -169.0305
        XZ       9.7823     YZ     -77.4324     ZZ    -295.6757

 Total job time:  89.96s(wall), 472.99s(cpu)
        *  Thank you very much for using Q-Chem.  Have a nice day.  *
