 Gaussian 16, Revision A.03,
 Gaussian 16:  ES64L-G16RevA.03 25-Dec-2016

 ----------------------------------------------------------------
 #P UB3LYP/6-311++G(d,p) SCRF=(PCM,Solvent=n,n-DiMethylFormamide)
 ----------------------------------------------------------------

 -------
 Reduced
 -------
 Symbolic Z-matrix:
 Charge = -2 Multiplicity = 1

                         Standard orientation:
 ---------------------------------------------------------------------
 Center     Atomic      Atomic             Coordinates (Angstroms)
 Number     Number       Type             X           Y           Z
 ---------------------------------------------------------------------
      1          6           0       -2.826209    0.519204   -0.000240
      2          6           0       -3.544516   -0.648465   -0.000051
      3          6           0       -1.396239    0.527567   -0.000239
      4          6           0       -0.724009   -0.747107   -0.000013
      5          6           0       -2.898779   -1.901896    0.000197
      6          6           0       -1.504909   -1.916207    0.000334
      7          6           0       -0.732390    1.824265   -0.000315
      8          6           0        0.732426    1.824263    0.000284
      9          6           0        1.396250    0.527574    0.000231
     10          6           0        0.723972   -0.747109    0.000038
     11          6           0        2.826219    0.519192    0.000331
     12          6           0        3.544520   -0.648470   -0.000055
     13          6           0        2.898750   -1.901888   -0.000332
     14          6           0        1.504881   -1.916188   -0.000161
     15          8           0       -1.425847    2.897991   -0.000356
     16          8           0        1.425877    2.897995    0.000433
     17          8           0        4.952915   -0.649961   -0.000171
     18          8           0       -4.952913   -0.649912    0.000024
     19          1           0       -3.306299    1.496497   -0.000249
     20          1           0       -3.480166   -2.818309    0.000858
     21          1           0       -1.010906   -2.883880    0.000712
     22          1           0        3.306290    1.496492    0.000728
     23          1           0        3.480113   -2.818317   -0.000246
     24          1           0        1.010882   -2.883863   -0.000345
     25          1           0        5.212666    0.277010   -0.000694
     26          1           0       -5.212631    0.277070   -0.000255
 ---------------------------------------------------------------------

 SCF Done:  E(UB3LYP) =  -839.692150432     A.U. after   18 cycles

 The electronic state is 1-A.
 Alpha  occ. eigenvalues --  -19.14016 -19.14016 -19.01761 -19.01760 -10.21277
 Alpha  occ. eigenvalues --  -10.21277 -10.16522 -10.16489 -10.15856 -10.15855
 Alpha  occ. eigenvalues --  -10.15139 -10.15102 -10.15027 -10.15027 -10.14436
 Alpha  occ. eigenvalues --  -10.14435 -10.14036 -10.14036  -1.04040  -1.04040
 Alpha  occ. eigenvalues --   -0.94874  -0.92114  -0.84305  -0.81827  -0.75625
 Alpha  occ. eigenvalues --   -0.73677  -0.72266  -0.69099  -0.65506  -0.61306
 Alpha  occ. eigenvalues --   -0.59359  -0.56593  -0.56409  -0.52665  -0.51927
 Alpha  occ. eigenvalues --   -0.49250  -0.45670  -0.45278  -0.43447  -0.42334
 Alpha  occ. eigenvalues --   -0.41403  -0.40830  -0.39871  -0.39121  -0.38959
 Alpha  occ. eigenvalues --   -0.38904  -0.36518  -0.36498  -0.36384  -0.35111
 Alpha  occ. eigenvalues --   -0.34230  -0.32536  -0.31722  -0.31441  -0.30727
 Alpha  occ. eigenvalues --   -0.27867  -0.24299  -0.23219  -0.22424  -0.20831
 Alpha  occ. eigenvalues --   -0.18390  -0.18232  -0.11092
 Alpha virt. eigenvalues --   -0.01187  -0.01025  -0.00090   0.00404   0.01135
 Alpha virt. eigenvalues --    0.02330   0.02563   0.03264   0.04275   0.04741
 Alpha virt. eigenvalues --    0.04784   0.04992   0.05261   0.06938   0.07350

  Beta  occ. eigenvalues --  -19.14016 -19.14016 -19.01761 -19.01760 -10.21277
  Beta  occ. eigenvalues --  -10.21277 -10.16522 -10.16489 -10.15856 -10.15855
  Beta  occ. eigenvalues --  -10.15139 -10.15102 -10.15027 -10.15027 -10.14436
  Beta  occ. eigenvalues --  -10.14435 -10.14036 -10.14036  -1.04040  -1.04040
  Beta  occ. eigenvalues --   -0.94874  -0.92114  -0.84305  -0.81827  -0.75625
  Beta  occ. eigenvalues --   -0.73677  -0.72266  -0.69099  -0.65506  -0.61306
  Beta  occ. eigenvalues --   -0.59359  -0.56593  -0.56409  -0.52665  -0.51927
  Beta  occ. eigenvalues --   -0.49250  -0.45670  -0.45278  -0.43447  -0.42334
  Beta  occ. eigenvalues --   -0.41403  -0.40830  -0.39871  -0.39121  -0.38959
  Beta  occ. eigenvalues --   -0.38904  -0.36518  -0.36498  -0.36384  -0.35111
  Beta  occ. eigenvalues --   -0.34230  -0.32536  -0.31722  -0.31441  -0.30727
  Beta  occ. eigenvalues --   -0.27867  -0.24299  -0.23219  -0.22424  -0.20831
  Beta  occ. eigenvalues --   -0.18390  -0.18232  -0.11092
  Beta virt. eigenvalues --   -0.01187  -0.01025  -0.00090   0.00404   0.01135
  Beta virt. eigenvalues --    0.02330   0.02563   0.03264   0.04275   0.04741
  Beta virt. eigenvalues --    0.04784   0.04992   0.05261   0.06938   0.07350

 Mulliken charges and spin densities:
               1          2
     1  C    0.138179  -0.000000
     2  C   -0.549891   0.000000
     3  C    0.577124   0.000000
     4  C    0.450990   0.000000
     5  C   -0.531125   0.000000
     6  C   -0.308266   0.000000
     7  C   -0.473566  -0.000000
     8  C   -0.473585  -0.000000
     9  C    0.577126  -0.000000
    10  C    0.450933   0.000000
    11  C    0.138224   0.000000
    12  C   -0.549901  -0.000000
    13  C   -0.531111  -0.000000
    14  C   -0.308213  -0.000000
    15  O   -0.679124  -0.000000
    16  O   -0.679134  -0.000000
    17  O   -0.326874   0.000000
    18  O   -0.326870  -0.000000
    19  H    0.133545   0.000000
    20  H    0.185496   0.000000
    21  H    0.092317   0.000000
    22  H    0.133544   0.000000
    23  H    0.185494   0.000000
    24  H    0.092311  -0.000000
    25  H    0.291188  -0.000000
    26  H    0.291188   0.000000
 Sum of Mulliken charges =  -2.00000  -0.00000

 Dipole moment (field-independent basis, Debye):
    X=             -0.0003    Y=            -14.6438    Z=             -0.0003  Tot=             14.6438
 Quadrupole moment (field-independent basis, Debye-Ang):
   XX=           -152.6430   YY=           -170.7994   ZZ=           -116.4118
   XY=              0.0001   XZ=             -0.0077   YZ=             -0.0044

 Normal termination of Gaussian 16 at Sat Jan 13 19:22:12 2024.
