 Q-Chem 5.4, Q-Chem, Inc., Pleasanton, CA (2021)
 Q-Chem 5.4.0 for Intel X86 EM64T Linux

User input:
--------------------------------------------------------------
$molecule
0 1
C                 -4.3881690000     -0.4533180000     -0.1694230000
C                 -2.9049950000     -0.7072710000     -0.1351970000
C                 -2.4040560000     -1.9758120000     -0.3095350000
C                 -1.0300100000     -2.2550360000     -0.2709960000
Cl                -0.6240120000     -3.9417010000     -0.5213490000
C                 -0.1048120000     -1.2324890000     -0.0625060000
C                  1.3685070000     -1.5069170000      0.0049500000
O                  1.8253270000     -2.6363750000     -0.0135310000
C                  2.2922460000     -0.3418790000      0.1027490000
C                  3.6729390000     -0.5693480000      0.0768250000
C                  4.5557790000      0.4979680000      0.1729040000
C                  4.0674820000      1.8023360000      0.3037890000
C                  2.6989380000      2.0339210000      0.3369650000
C                  1.8037930000      0.9621890000      0.2334370000
C                  0.3432550000      1.2300640000      0.2725420000
O                 -0.0396670000      2.3958260000      0.4335590000
C                 -0.5935610000      0.1061280000      0.1026130000
C                 -1.9950530000      0.3695620000      0.0801820000
N                 -2.4982080000      1.6166440000      0.2651860000
H                 -4.7448270000     -0.0265990000      0.7751110000
H                 -4.6607060000      0.2445200000     -0.9700920000
H                 -4.9361130000     -1.3798900000     -0.3414110000
H                 -3.0869770000     -2.7995220000     -0.4786090000
H                  4.0262870000     -1.5881690000     -0.0193480000
H                  5.6248200000      0.3193540000      0.1480310000
H                  4.7583440000      2.6343090000      0.3809900000
H                  2.2984650000      3.0339650000      0.4422640000
H                 -1.8419430000      2.3815990000      0.3751140000
H                 -3.4830710000      1.7859400000      0.1678530000
$end
$rem
MAX_SCF_CYCLES=200
BASIS  =  6-311++G(d,p)
GUI  =  2
JOB_TYPE  =  SP
METHOD  =  B3LYP
SOLVENT_METHOD = COSMO
$end
$solvent
dielectric 37.219
opticaldielectric 1.43
$end

--------------------------------------------------------------

             Standard Nuclear Orientation (Angstroms)
    I     Atom           X                Y                Z
 ----------------------------------------------------------------
    1      C       4.2892661287    -1.5651221107    -0.0552600362
    2      C       2.9812655687    -0.8208617840    -0.0291878167
    3      C       2.9530674155     0.5535794538    -0.0546050700
    4      C       1.7557287895     1.2833062846    -0.0180992665
    5      Cl      1.9635299995     3.0231709551    -0.0632590736
    6      C       0.5267535360     0.6260521232     0.0338485936
    7      C      -0.7673534761     1.3823503857     0.0957347347
    8      O      -0.8120256970     2.5947911686     0.2083987227
    9      C      -2.0356082150     0.6039234861     0.0198835308
   10      C      -3.2522754580     1.2947789494    -0.0142765157
   11      C      -4.4489240924     0.5935437466    -0.0783258717
   12      C      -4.4417314607    -0.8051628617    -0.1008827484
   13      C      -3.2383584760    -1.4964646416    -0.0603827760
   14      C      -2.0281539738    -0.7945355690    -0.0028263911
   15      C      -0.7511663980    -1.5520322610     0.0414337402
   16      O      -0.7979624529    -2.7885111991     0.0634958734
   17      C       0.5204052901    -0.8085019157     0.0409020431
   18      C       1.7477365078    -1.5347402449     0.0231138646
   19      N       1.7845495539    -2.8911126666     0.0618901746
   20      H       4.4142151002    -2.1897004185     0.8367759513
   21      H       4.3637474813    -2.2216185311    -0.9303543833
   22      H       5.1292213196    -0.8713070285    -0.0933924294
   23      H       3.8846200959     1.1046524083    -0.0992534334
   24      H      -3.2319886735     2.3769499609     0.0101085863
   25      H      -5.3897889083     1.1313069652    -0.1092193276
   26      H      -5.3772006270    -1.3511028270    -0.1485939992
   27      H      -3.2086940371    -2.5783787405    -0.0720621900
   28      H       0.9019946900    -3.3900987393     0.0560696129
   29      H       2.6580117717    -3.3777386193    -0.0294822152
 ----------------------------------------------------------------

    9   -1243.2760165029      3.12e-06  Convergence criterion met
 Total energy in the final basis set =    -1243.2760165029
    5   -1243.2933557842      4.37e-06  Convergence criterion met
 Total energy in the final basis set =    -1243.2933557842

                    Orbital Energies (a.u.)
 --------------------------------------------------------------

 Alpha MOs
 -- Occupied --
******** -19.1261 -19.1254 -14.3346 -10.2828 -10.2791 -10.2520 -10.2492
-10.2177 -10.2085 -10.2073 -10.2039 -10.2031 -10.1998 -10.1938 -10.1932
-10.1926 -10.1923 -10.1772  -9.4759  -7.2404  -7.2312  -7.2300  -1.0655
 -1.0600  -0.9487  -0.9026  -0.8856  -0.8457  -0.8189  -0.7795  -0.7744
 -0.7461  -0.7218  -0.6808  -0.6601  -0.6400  -0.6063  -0.5876  -0.5765
 -0.5488  -0.5358  -0.5107  -0.5007  -0.4770  -0.4755  -0.4703  -0.4605
 -0.4537  -0.4479  -0.4457  -0.4367  -0.4329  -0.4202  -0.4126  -0.3981
 -0.3907  -0.3875  -0.3753  -0.3729  -0.3656  -0.3644  -0.3314  -0.3161
 -0.2855  -0.2828  -0.2752  -0.2730  -0.2663  -0.2254

          Ground-State Mulliken Net Atomic Charges

     Atom                 Charge (a.u.)
  ----------------------------------------
      1 C                    -0.465011
      2 C                     0.489229
      3 C                    -0.815990
      4 C                     0.932303
      5 Cl                    0.391051
      6 C                     0.523192
      7 C                    -1.478072
      8 O                    -0.205175
      9 C                    -0.033530
     10 C                     0.206615
     11 C                    -0.434737
     12 C                    -0.495320
     13 C                     0.188531
     14 C                    -0.182385
     15 C                    -0.359071
     16 O                    -0.333288
     17 C                     0.158518
     18 C                    -0.001757
     19 N                    -0.427216
     20 H                     0.195106
     21 H                     0.198222
     22 H                     0.192346
     23 H                     0.227676
     24 H                     0.192374
     25 H                     0.225076
     26 H                     0.223623
     27 H                     0.200540
     28 H                     0.360189
     29 H                     0.326960
  ----------------------------------------
  Sum of atomic charges =     0.000000

                    Cartesian Multipole Moments
 -----------------------------------------------------------------
    Charge (ESU x 10^10)
                 0.0000
    Dipole Moment (Debye)
         X       2.3428      Y      -5.0547      Z      -0.6800
       Tot       5.6126
    Quadrupole Moments (Debye-Ang)
        XX     -77.2746     XY     -12.4301     YY    -125.2063
        XZ       0.2263     YZ      -0.0122     ZZ    -119.9365

 Total job time:  81.57s(wall), 522.67s(cpu)
        *  Thank you very much for using Q-Chem.  Have a nice day.  *
