 Q-Chem 5.4, Q-Chem, Inc., Pleasanton, CA (2021)
 Q-Chem 5.4.0 for Intel X86 EM64T Linux

User input:
--------------------------------------------------------------
$molecule
-1 2
C                 -1.8580460000      3.4852600000     -0.9492790000
C                 -2.9662840000      2.9043930000     -0.3678310000
C                 -0.6275710000      2.8007620000     -1.0207650000
C                 -0.5276360000      1.4889560000     -0.4841730000
C                 -2.8857310000      1.6115470000      0.1664390000
C                 -1.6798140000      0.9299250000      0.1010350000
C                  0.5057380000      3.5010470000     -1.6609870000
C                  1.7969210000      2.7877430000     -1.7379250000
C                  1.8625130000      1.4249530000     -1.1694700000
C                  0.7511090000      0.7823740000     -0.5606280000
C                  3.0966710000      0.7475970000     -1.2453480000
C                  3.2444480000     -0.5274280000     -0.7392570000
C                  2.1590770000     -1.1761460000     -0.1354860000
C                  0.9408760000     -0.5182930000     -0.0559350000
O                  0.3583690000      4.6571460000     -2.1159510000
O                  2.8093300000      3.3031200000     -2.2620370000
O                  4.4451130000     -1.2153120000     -0.8007080000
O                 -4.1865930000      3.5543630000     -0.2844220000
H                 -1.8892650000      4.4858040000     -1.3719150000
H                 -3.7618270000      1.1637180000      0.6212240000
H                 -1.6404230000     -0.0685380000      0.5205340000
H                  3.9193130000      1.2764260000     -1.7189310000
H                  2.2850120000     -2.1778120000      0.2591450000
H                  0.1153180000     -1.0389710000      0.4150270000
H                  5.0878530000     -0.6471790000     -1.2377210000
H                 -4.0861830000      4.4221440000     -0.6890770000
$end
$rem
MAX_SCF_CYCLES=200
BASIS  =  6-311++G(d,p)
GUI  =  2
JOB_TYPE  =  SP
METHOD  =  B3LYP
SOLVENT_METHOD = PCM
$end
$pcm
theory = CPCM
$end
$solvent
dielectric 37.219
opticaldielectric 1.43
$end

--------------------------------------------------------------

             Standard Nuclear Orientation (Angstroms)
    I     Atom           X                Y                Z
 ----------------------------------------------------------------
    1      C      -1.8580460000     3.4852600000    -0.9492790000
    2      C      -2.9662840000     2.9043930000    -0.3678310000
    3      C      -0.6275710000     2.8007620000    -1.0207650000
    4      C      -0.5276360000     1.4889560000    -0.4841730000
    5      C      -2.8857310000     1.6115470000     0.1664390000
    6      C      -1.6798140000     0.9299250000     0.1010350000
    7      C       0.5057380000     3.5010470000    -1.6609870000
    8      C       1.7969210000     2.7877430000    -1.7379250000
    9      C       1.8625130000     1.4249530000    -1.1694700000
   10      C       0.7511090000     0.7823740000    -0.5606280000
   11      C       3.0966710000     0.7475970000    -1.2453480000
   12      C       3.2444480000    -0.5274280000    -0.7392570000
   13      C       2.1590770000    -1.1761460000    -0.1354860000
   14      C       0.9408760000    -0.5182930000    -0.0559350000
   15      O       0.3583690000     4.6571460000    -2.1159510000
   16      O       2.8093300000     3.3031200000    -2.2620370000
   17      O       4.4451130000    -1.2153120000    -0.8007080000
   18      O      -4.1865930000     3.5543630000    -0.2844220000
   19      H      -1.8892650000     4.4858040000    -1.3719150000
   20      H      -3.7618270000     1.1637180000     0.6212240000
   21      H      -1.6404230000    -0.0685380000     0.5205340000
   22      H       3.9193130000     1.2764260000    -1.7189310000
   23      H       2.2850120000    -2.1778120000     0.2591450000
   24      H       0.1153180000    -1.0389710000     0.4150270000
   25      H       5.0878530000    -0.6471790000    -1.2377210000
   26      H      -4.0861830000     4.4221440000    -0.6890770000
 ----------------------------------------------------------------

    8    -839.6027644650      9.44e-06  Convergence criterion met
 Total energy in the final basis set =     -839.6027644650

                    Orbital Energies (a.u.)
 --------------------------------------------------------------

 Alpha MOs
 -- Occupied --
-19.1530 -19.1529 -19.0802 -19.0802 -10.2339 -10.2338 -10.2202 -10.2199
-10.1820 -10.1817 -10.1766 -10.1766 -10.1762 -10.1761 -10.1723 -10.1723
-10.1668 -10.1668  -1.0593  -1.0593  -1.0193  -0.9918  -0.8731  -0.8462
 -0.7843  -0.7642  -0.7512  -0.7165  -0.6902  -0.6377  -0.6205  -0.5965
 -0.5924  -0.5539  -0.5427  -0.5151  -0.4888  -0.4808  -0.4588  -0.4583
 -0.4360  -0.4319  -0.4312  -0.4210  -0.4122  -0.4115  -0.4043  -0.4016
 -0.4001  -0.3782  -0.3612  -0.3611  -0.3575  -0.3511  -0.3353  -0.3208
 -0.2654  -0.2632  -0.2612  -0.2567  -0.2313  -0.2058  -0.1562

 Beta MOs
 -- Occupied --
-19.1530 -19.1530 -19.0743 -19.0743 -10.2341 -10.2341 -10.2180 -10.2177
-10.1813 -10.1810 -10.1769 -10.1768 -10.1765 -10.1765 -10.1715 -10.1714
-10.1660 -10.1660  -1.0594  -1.0594  -1.0088  -0.9808  -0.8716  -0.8452
 -0.7815  -0.7620  -0.7495  -0.7159  -0.6819  -0.6369  -0.6182  -0.5925
 -0.5909  -0.5533  -0.5422  -0.5141  -0.4849  -0.4796  -0.4577  -0.4567
 -0.4357  -0.4309  -0.4219  -0.4159  -0.4111  -0.4102  -0.3989  -0.3983
 -0.3919  -0.3779  -0.3603  -0.3518  -0.3500  -0.3415  -0.3343  -0.3078
 -0.2580  -0.2574  -0.2550  -0.2480  -0.2258  -0.2026

          Ground-State Mulliken Net Atomic Charges

     Atom                 Charge (a.u.)    Spin (a.u.)
  --------------------------------------------------------
      1 C                     0.224648       0.089575
      2 C                    -0.571456      -0.024781
      3 C                     0.660113      -0.013674
      4 C                     0.460516       0.038190
      5 C                    -0.492538       0.066588
      6 C                    -0.339859      -0.026176
      7 C                    -0.466519       0.151336
      8 C                    -0.468884       0.151401
      9 C                     0.662445      -0.013767
     10 C                     0.459554       0.038390
     11 C                     0.223637       0.089649
     12 C                    -0.571751      -0.024774
     13 C                    -0.492428       0.066678
     14 C                    -0.338987      -0.026230
     15 O                    -0.498812       0.229524
     16 O                    -0.498622       0.229472
     17 O                    -0.314036      -0.000431
     18 O                    -0.314192      -0.000432
     19 H                     0.162640      -0.007465
     20 H                     0.223379      -0.004600
     21 H                     0.133921       0.001809
     22 H                     0.162226      -0.007479
     23 H                     0.223673      -0.004603
     24 H                     0.133352       0.001812
     25 H                     0.318963      -0.000007
     26 H                     0.319015      -0.000006
  --------------------------------------------------------
  Sum of atomic charges =    -1.000000

                    Cartesian Multipole Moments
 -----------------------------------------------------------------
    Charge (ESU x 10^10)
                -4.8032
    Dipole Moment (Debye)
         X      -6.3040      Y     -16.5967      Z       9.0386
       Tot      19.9220
    Quadrupole Moments (Debye-Ang)
        XX    -124.6207     XY     -22.0953     YY    -174.5166
        XZ      13.7773     YZ      34.2519     ZZ    -129.2378

 Total job time:  56.40s(wall), 384.17s(cpu)
        *  Thank you very much for using Q-Chem.  Have a nice day.  *
