 Q-Chem 5.4, Q-Chem, Inc., Pleasanton, CA (2021)
 Q-Chem 5.4.0 for Intel X86 EM64T Linux

User input:
--------------------------------------------------------------
$molecule
0 1
C                 16.3756520000      2.9520330000      0.9729340000
C                 15.5665540000      1.9567320000      1.7036950000
C                 16.0066260000      1.3431470000      2.8124860000
C                 17.3738180000      1.6760210000      3.3288400000
C                 18.2104360000      2.6784130000      2.5984150000
C                 17.7397690000      3.2879440000      1.4859490000
O                 15.9294870000      3.4848900000     -0.0339150000
O                 17.7936820000      1.1272990000      4.3367000000
C                 18.5326950000      4.3059200000      0.7167010000
C                 19.5728790000      2.9686600000      3.1644960000
H                 14.5898080000      1.7477700000      1.2823350000
H                 18.8080870000      5.1519880000      1.3543140000
H                 17.9561750000      4.6769330000     -0.1289600000
H                 19.4657860000      3.8732110000      0.3411930000
H                 19.7664960000      2.3460200000      4.0359700000
H                 19.6561320000      4.0192170000      3.4619190000
H                 20.3533820000      2.7858160000      2.4194220000
C                 15.2263770000      0.3108180000      3.5931320000
C                 13.7797680000      0.1788360000      3.2068840000
C                 13.1738300000     -0.8524720000      2.6019240000
C                 11.6843790000     -0.8020530000      2.3288920000
C                 11.3112280000     -0.7366460000      0.8264920000
C                  9.8224330000     -0.7405580000      0.6138850000
C                  9.0463020000      0.2136550000      0.0805430000
C                  7.5492490000      0.0022170000     -0.0248630000
C                  6.7114750000      0.9118600000      0.9082640000
C                  5.2331790000      0.7000250000      0.7322070000
C                  4.3357480000      0.2563140000      1.6238760000
C                  2.8786470000      0.1181790000      1.2317670000
C                 13.8739550000     -2.1152550000      2.1645350000
C                  9.5552890000      1.5285360000     -0.4578030000
C                  4.6660620000     -0.1343450000      3.0442660000
C                  1.9316530000      1.1165120000      1.9441860000
C                  0.4929330000      0.9080190000      1.5598390000
C                 -0.3328120000      1.7379490000      0.9065580000
C                 -1.7561540000      1.3125620000      0.6059900000
C                 -2.0375720000      1.0524200000     -0.8956160000
C                 -3.4743390000      0.6892980000     -1.1507340000
C                 -3.9821140000     -0.4636850000     -1.6092630000
C                 -5.4802000000     -0.6212480000     -1.7768860000
C                 -6.1327750000     -1.5985590000     -0.7666360000
C                 -7.6059510000     -1.7726280000     -1.0128600000
C                 -8.6368350000     -1.4329270000     -0.2258920000
C                -10.0588530000     -1.6895050000     -0.6833360000
C                -10.8585320000     -0.4062750000     -1.0231140000
C                -12.2801110000     -0.7077140000     -1.4097030000
C                -12.8904860000     -0.5172160000     -2.5881070000
C                  0.0434420000      3.1215110000      0.4349780000
C                 -3.1564450000     -1.6651130000     -2.0005370000
C                 -8.4988110000     -0.8022350000      1.1384090000
C                -12.2333110000      0.0938130000     -3.8017830000
C                -14.3427050000     -0.9135690000     -2.7645640000
C                -14.5598120000     -2.1326200000     -3.6964210000
C                -16.0170770000     -2.4500700000     -3.8882600000
C                -16.6959120000     -3.5453010000     -3.5179610000
C                -16.0817360000     -4.7376650000     -2.8256360000
C                -18.1810930000     -3.6508990000     -3.8011430000
C                -19.0756910000     -3.5829290000     -2.5378470000
C                -20.5340110000     -3.7514230000     -2.8633340000
C                -21.5342330000     -2.8741030000     -2.7057890000
C                -21.3831980000     -1.4871610000     -2.1329070000
C                -22.9460000000     -3.2309940000     -3.1042280000
H                 15.3030970000      0.5789030000      4.6535930000
H                 15.7602700000     -0.6409390000      3.5159780000
H                 13.1606480000      1.0337800000      3.4749370000
H                 11.2481610000      0.0642180000      2.8341290000
H                 11.2096510000     -1.6909190000      2.7657950000
H                 11.7402140000     -1.6052610000      0.3124080000
H                 11.7786220000      0.1462070000      0.3846710000
H                  9.3246440000     -1.6485380000      0.9553630000
H                  7.3094030000     -1.0408720000      0.2004650000
H                  7.2300160000      0.1797910000     -1.0607980000
H                  6.9417580000      1.9612050000      0.6867780000
H                  7.0234100000      0.7411780000      1.9411220000
H                  4.8632650000      0.9337890000     -0.2664900000
H                  2.5382390000     -0.9021460000      1.4552960000
H                  2.7752070000      0.2521370000      0.1511400000
H                 14.9267520000     -2.1416820000      2.4444600000
H                 13.8200340000     -2.2387530000      1.0779990000
H                 13.3861860000     -2.9928260000      2.6038970000
H                 10.6396930000      1.6208860000     -0.4087560000
H                  9.1269010000      2.3741540000      0.0905780000
H                  9.2555780000      1.6520980000     -1.5050500000
H                  5.7370930000     -0.1443270000      3.2444720000
H                  4.2734690000     -1.1336280000      3.2649610000
H                  4.2024000000      0.5492490000      3.7639010000
H                  2.2651500000      2.1333570000      1.7251280000
H                  2.0259230000      0.9860470000      3.0291460000
H                  0.0879520000     -0.0613080000      1.8520610000
H                 -2.4494290000      2.0875200000      0.9602100000
H                 -1.9932220000      0.4029690000      1.1652820000
H                 -1.3558500000      0.2761110000     -1.2499900000
H                 -1.7997120000      1.9581990000     -1.4664910000
H                 -4.1852330000      1.4813210000     -0.9134410000
H                 -5.6963920000     -0.9768890000     -2.7934720000
H                 -5.9653840000      0.3540640000     -1.6781300000
H                 -5.9318910000     -1.2411930000      0.2457390000
H                 -5.6468040000     -2.5781220000     -0.8516750000
H                 -7.8482040000     -2.2300860000     -1.9725680000
H                -10.5989000000     -2.2380240000      0.1003310000
H                -10.0496210000     -2.3354850000     -1.5659440000
H                -10.3317660000      0.1358710000     -1.8115060000
H                -10.8673250000      0.2526090000     -0.1463280000
H                -12.8761250000     -1.1518530000     -0.6118880000
H                  1.0631020000      3.4000110000      0.6990690000
H                 -0.6321740000      3.8682320000      0.8687700000
H                 -0.0517930000      3.2096380000     -0.6524680000
H                 -2.0847490000     -1.4985670000     -1.8969780000
H                 -3.3549310000     -1.9402670000     -3.0431770000
H                 -3.4149100000     -2.5390020000     -1.3931320000
H                 -7.4615950000     -0.6613890000      1.4406730000
H                 -8.9886060000     -1.4245360000      1.8967650000
H                 -8.9890770000      0.1764220000      1.1744970000
H                -11.2023900000      0.3968960000     -3.6218800000
H                -12.7910890000      0.9781440000     -4.1320230000
H                -12.2296660000     -0.6050050000     -4.6450300000
H                -14.9048990000     -0.0616150000     -3.1705190000
H                -14.7822700000     -1.1407220000     -1.7890920000
H                -14.0106120000     -2.9852260000     -3.2909630000
H                -14.1176950000     -1.9168070000     -4.6766790000
H                -16.5837640000     -1.6649710000     -4.3897240000
H                -15.0082650000     -4.6350020000     -2.6702340000
H                -16.2510570000     -5.6478270000     -3.4131590000
H                -16.5421850000     -4.9085780000     -1.8467680000
H                -18.3852200000     -4.5971150000     -4.3205020000
H                -18.4826250000     -2.8503100000     -4.4826720000
H                -18.8843800000     -2.6391030000     -2.0223180000
H                -18.7780840000     -4.3793620000     -1.8448610000
H                -20.7887610000     -4.7192410000     -3.2957410000
H                -20.3558080000     -1.2377670000     -1.8695760000
H                -21.9989630000     -1.3742990000     -1.2326150000
H                -21.7396680000     -0.7368100000     -2.8483910000
H                -23.0096220000     -4.2415740000     -3.5127000000
H                -23.3297930000     -2.5328810000     -3.8578500000
H                -23.6246710000     -3.1667430000     -2.2451600000
$end
$rem
MAX_SCF_CYCLES=200
BASIS  =  6-311++G(d,p)
GUI  =  2
JOB_TYPE  =  SP
METHOD  =  B3LYP
SCF_ALGORITHM = DIIS_GDM
THRESH = 14
SOLVENT_METHOD = PCM
$end
$pcm
theory = CPCM
$end
$solvent
dielectric 37.219
opticaldielectric 1.43
$end

--------------------------------------------------------------

             Standard Nuclear Orientation (Angstroms)
    I     Atom           X                Y                Z
 ----------------------------------------------------------------
    1      C      16.3756520000     2.9520330000     0.9729340000
    2      C      15.5665540000     1.9567320000     1.7036950000
    3      C      16.0066260000     1.3431470000     2.8124860000
    4      C      17.3738180000     1.6760210000     3.3288400000
    5      C      18.2104360000     2.6784130000     2.5984150000
    6      C      17.7397690000     3.2879440000     1.4859490000
    7      O      15.9294870000     3.4848900000    -0.0339150000
    8      O      17.7936820000     1.1272990000     4.3367000000
    9      C      18.5326950000     4.3059200000     0.7167010000
   10      C      19.5728790000     2.9686600000     3.1644960000
   11      H      14.5898080000     1.7477700000     1.2823350000
   12      H      18.8080870000     5.1519880000     1.3543140000
   13      H      17.9561750000     4.6769330000    -0.1289600000
   14      H      19.4657860000     3.8732110000     0.3411930000
   15      H      19.7664960000     2.3460200000     4.0359700000
   16      H      19.6561320000     4.0192170000     3.4619190000
   17      H      20.3533820000     2.7858160000     2.4194220000
   18      C      15.2263770000     0.3108180000     3.5931320000
   19      C      13.7797680000     0.1788360000     3.2068840000
   20      C      13.1738300000    -0.8524720000     2.6019240000
   21      C      11.6843790000    -0.8020530000     2.3288920000
   22      C      11.3112280000    -0.7366460000     0.8264920000
   23      C       9.8224330000    -0.7405580000     0.6138850000
   24      C       9.0463020000     0.2136550000     0.0805430000
   25      C       7.5492490000     0.0022170000    -0.0248630000
   26      C       6.7114750000     0.9118600000     0.9082640000
   27      C       5.2331790000     0.7000250000     0.7322070000
   28      C       4.3357480000     0.2563140000     1.6238760000
   29      C       2.8786470000     0.1181790000     1.2317670000
   30      C      13.8739550000    -2.1152550000     2.1645350000
   31      C       9.5552890000     1.5285360000    -0.4578030000
   32      C       4.6660620000    -0.1343450000     3.0442660000
   33      C       1.9316530000     1.1165120000     1.9441860000
   34      C       0.4929330000     0.9080190000     1.5598390000
   35      C      -0.3328120000     1.7379490000     0.9065580000
   36      C      -1.7561540000     1.3125620000     0.6059900000
   37      C      -2.0375720000     1.0524200000    -0.8956160000
   38      C      -3.4743390000     0.6892980000    -1.1507340000
   39      C      -3.9821140000    -0.4636850000    -1.6092630000
   40      C      -5.4802000000    -0.6212480000    -1.7768860000
   41      C      -6.1327750000    -1.5985590000    -0.7666360000
   42      C      -7.6059510000    -1.7726280000    -1.0128600000
   43      C      -8.6368350000    -1.4329270000    -0.2258920000
   44      C     -10.0588530000    -1.6895050000    -0.6833360000
   45      C     -10.8585320000    -0.4062750000    -1.0231140000
   46      C     -12.2801110000    -0.7077140000    -1.4097030000
   47      C     -12.8904860000    -0.5172160000    -2.5881070000
   48      C       0.0434420000     3.1215110000     0.4349780000
   49      C      -3.1564450000    -1.6651130000    -2.0005370000
   50      C      -8.4988110000    -0.8022350000     1.1384090000
   51      C     -12.2333110000     0.0938130000    -3.8017830000
   52      C     -14.3427050000    -0.9135690000    -2.7645640000
   53      C     -14.5598120000    -2.1326200000    -3.6964210000
   54      C     -16.0170770000    -2.4500700000    -3.8882600000
   55      C     -16.6959120000    -3.5453010000    -3.5179610000
   56      C     -16.0817360000    -4.7376650000    -2.8256360000
   57      C     -18.1810930000    -3.6508990000    -3.8011430000
   58      C     -19.0756910000    -3.5829290000    -2.5378470000
   59      C     -20.5340110000    -3.7514230000    -2.8633340000
   60      C     -21.5342330000    -2.8741030000    -2.7057890000
   61      C     -21.3831980000    -1.4871610000    -2.1329070000
   62      C     -22.9460000000    -3.2309940000    -3.1042280000
   63      H      15.3030970000     0.5789030000     4.6535930000
   64      H      15.7602700000    -0.6409390000     3.5159780000
   65      H      13.1606480000     1.0337800000     3.4749370000
   66      H      11.2481610000     0.0642180000     2.8341290000
   67      H      11.2096510000    -1.6909190000     2.7657950000
   68      H      11.7402140000    -1.6052610000     0.3124080000
   69      H      11.7786220000     0.1462070000     0.3846710000
   70      H       9.3246440000    -1.6485380000     0.9553630000
   71      H       7.3094030000    -1.0408720000     0.2004650000
   72      H       7.2300160000     0.1797910000    -1.0607980000
   73      H       6.9417580000     1.9612050000     0.6867780000
   74      H       7.0234100000     0.7411780000     1.9411220000
   75      H       4.8632650000     0.9337890000    -0.2664900000
   76      H       2.5382390000    -0.9021460000     1.4552960000
   77      H       2.7752070000     0.2521370000     0.1511400000
   78      H      14.9267520000    -2.1416820000     2.4444600000
   79      H      13.8200340000    -2.2387530000     1.0779990000
   80      H      13.3861860000    -2.9928260000     2.6038970000
   81      H      10.6396930000     1.6208860000    -0.4087560000
   82      H       9.1269010000     2.3741540000     0.0905780000
   83      H       9.2555780000     1.6520980000    -1.5050500000
   84      H       5.7370930000    -0.1443270000     3.2444720000
   85      H       4.2734690000    -1.1336280000     3.2649610000
   86      H       4.2024000000     0.5492490000     3.7639010000
   87      H       2.2651500000     2.1333570000     1.7251280000
   88      H       2.0259230000     0.9860470000     3.0291460000
   89      H       0.0879520000    -0.0613080000     1.8520610000
   90      H      -2.4494290000     2.0875200000     0.9602100000
   91      H      -1.9932220000     0.4029690000     1.1652820000
   92      H      -1.3558500000     0.2761110000    -1.2499900000
   93      H      -1.7997120000     1.9581990000    -1.4664910000
   94      H      -4.1852330000     1.4813210000    -0.9134410000
   95      H      -5.6963920000    -0.9768890000    -2.7934720000
   96      H      -5.9653840000     0.3540640000    -1.6781300000
   97      H      -5.9318910000    -1.2411930000     0.2457390000
   98      H      -5.6468040000    -2.5781220000    -0.8516750000
   99      H      -7.8482040000    -2.2300860000    -1.9725680000
  100      H     -10.5989000000    -2.2380240000     0.1003310000
  101      H     -10.0496210000    -2.3354850000    -1.5659440000
  102      H     -10.3317660000     0.1358710000    -1.8115060000
  103      H     -10.8673250000     0.2526090000    -0.1463280000
  104      H     -12.8761250000    -1.1518530000    -0.6118880000
  105      H       1.0631020000     3.4000110000     0.6990690000
  106      H      -0.6321740000     3.8682320000     0.8687700000
  107      H      -0.0517930000     3.2096380000    -0.6524680000
  108      H      -2.0847490000    -1.4985670000    -1.8969780000
  109      H      -3.3549310000    -1.9402670000    -3.0431770000
  110      H      -3.4149100000    -2.5390020000    -1.3931320000
  111      H      -7.4615950000    -0.6613890000     1.4406730000
  112      H      -8.9886060000    -1.4245360000     1.8967650000
  113      H      -8.9890770000     0.1764220000     1.1744970000
  114      H     -11.2023900000     0.3968960000    -3.6218800000
  115      H     -12.7910890000     0.9781440000    -4.1320230000
  116      H     -12.2296660000    -0.6050050000    -4.6450300000
  117      H     -14.9048990000    -0.0616150000    -3.1705190000
  118      H     -14.7822700000    -1.1407220000    -1.7890920000
  119      H     -14.0106120000    -2.9852260000    -3.2909630000
  120      H     -14.1176950000    -1.9168070000    -4.6766790000
  121      H     -16.5837640000    -1.6649710000    -4.3897240000
  122      H     -15.0082650000    -4.6350020000    -2.6702340000
  123      H     -16.2510570000    -5.6478270000    -3.4131590000
  124      H     -16.5421850000    -4.9085780000    -1.8467680000
  125      H     -18.3852200000    -4.5971150000    -4.3205020000
  126      H     -18.4826250000    -2.8503100000    -4.4826720000
  127      H     -18.8843800000    -2.6391030000    -2.0223180000
  128      H     -18.7780840000    -4.3793620000    -1.8448610000
  129      H     -20.7887610000    -4.7192410000    -3.2957410000
  130      H     -20.3558080000    -1.2377670000    -1.8695760000
  131      H     -21.9989630000    -1.3742990000    -1.2326150000
  132      H     -21.7396680000    -0.7368100000    -2.8483910000
  133      H     -23.0096220000    -4.2415740000    -3.5127000000
  134      H     -23.3297930000    -2.5328810000    -3.8578500000
  135      H     -23.6246710000    -3.1667430000    -2.2451600000
 ----------------------------------------------------------------

   17   -2218.7787286476      6.90e-06  Convergence criterion met
 Total energy in the final basis set =    -2218.7787286476

                    Orbital Energies (a.u.)
 --------------------------------------------------------------

 Alpha MOs
 -- Occupied --
-19.1386 -19.1357 -10.2821 -10.2796 -10.2145 -10.2082 -10.2074 -10.1958
-10.1829 -10.1795 -10.1741 -10.1728 -10.1724 -10.1724 -10.1724 -10.1724
-10.1723 -10.1723 -10.1691 -10.1690 -10.1663 -10.1655 -10.1646 -10.1643
-10.1643 -10.1642 -10.1642 -10.1642 -10.1642 -10.1641 -10.1639 -10.1639
-10.1639 -10.1639 -10.1639 -10.1639 -10.1637 -10.1603 -10.1583 -10.1579
-10.1579 -10.1579 -10.1579 -10.1579 -10.1578 -10.1578 -10.1576 -10.1574
-10.1574 -10.1574 -10.1574 -10.1574 -10.1574 -10.1573 -10.1572  -1.0705
 -1.0661  -0.8655  -0.8337  -0.8296  -0.8280  -0.8254  -0.8221  -0.8180
 -0.8135  -0.8088  -0.8044  -0.8015  -0.7751  -0.7692  -0.7616  -0.7532
 -0.7461  -0.7442  -0.7362  -0.7288  -0.7226  -0.7185  -0.6896  -0.6887
 -0.6879  -0.6858  -0.6853  -0.6844  -0.6830  -0.6807  -0.6771  -0.6720
 -0.6662  -0.6509  -0.6408  -0.6304  -0.6195  -0.6090  -0.5997  -0.5925
 -0.5885  -0.5839  -0.5806  -0.5748  -0.5373  -0.5209  -0.5200  -0.5190
 -0.5176  -0.5158  -0.5137  -0.5117  -0.5101  -0.5090  -0.4938  -0.4790
 -0.4771  -0.4764  -0.4755  -0.4750  -0.4744  -0.4718  -0.4690  -0.4661
 -0.4613  -0.4595  -0.4481  -0.4446  -0.4430  -0.4409  -0.4381  -0.4351
 -0.4333  -0.4315  -0.4308  -0.4284  -0.4275  -0.4260  -0.4253  -0.4199
 -0.4195  -0.4154  -0.4141  -0.4139  -0.4127  -0.4103  -0.4088  -0.4084
 -0.4071  -0.4053  -0.4034  -0.4011  -0.4004  -0.3995  -0.3983  -0.3967
 -0.3934  -0.3903  -0.3884  -0.3856  -0.3812  -0.3801  -0.3738  -0.3712
 -0.3708  -0.3704  -0.3697  -0.3695  -0.3685  -0.3679  -0.3672  -0.3669
 -0.3661  -0.3644  -0.3629  -0.3623  -0.3603  -0.3584  -0.3568  -0.3540
 -0.3538  -0.3519  -0.3478  -0.3420  -0.3359  -0.3348  -0.3336  -0.3318
 -0.3315  -0.3286  -0.3259  -0.3254  -0.3250  -0.3238  -0.3188  -0.3134
 -0.3089  -0.3061  -0.2979  -0.2908  -0.2747  -0.2703  -0.2519  -0.2502
 -0.2475  -0.2441  -0.2394  -0.2340  -0.2292  -0.2252  -0.2221

          Ground-State Mulliken Net Atomic Charges

     Atom                 Charge (a.u.)
  ----------------------------------------
      1 C                    -1.090691
      2 C                    -0.967838
      3 C                     1.117230
      4 C                    -0.809487
      5 C                     0.370946
      6 C                     1.126158
      7 O                    -0.295155
      8 O                    -0.263528
      9 C                    -0.406830
     10 C                    -0.526263
     11 H                     0.178977
     12 H                     0.182241
     13 H                     0.197155
     14 H                     0.185938
     15 H                     0.200384
     16 H                     0.186947
     17 H                     0.180177
     18 C                    -0.137465
     19 C                    -0.289715
     20 C                     0.666079
     21 C                    -0.799007
     22 C                    -0.253037
     23 C                    -0.098460
     24 C                     0.493999
     25 C                    -0.608799
     26 C                    -0.325688
     27 C                    -0.353747
     28 C                     0.616027
     29 C                    -0.413319
     30 C                    -0.701268
     31 C                    -0.777749
     32 C                    -0.736602
     33 C                    -0.391454
     34 C                    -0.323601
     35 C                     0.545881
     36 C                    -0.449150
     37 C                    -0.288685
     38 C                    -0.319721
     39 C                     0.480697
     40 C                    -0.418428
     41 C                    -0.304080
     42 C                    -0.316458
     43 C                     0.507867
     44 C                    -0.448525
     45 C                    -0.273539
     46 C                    -0.407721
     47 C                     0.533923
     48 C                    -0.728405
     49 C                    -0.749054
     50 C                    -0.743827
     51 C                    -0.741408
     52 C                    -0.405435
     53 C                    -0.217691
     54 C                    -0.214907
     55 C                     0.457621
     56 C                    -0.778997
     57 C                    -0.584592
     58 C                    -0.281683
     59 C                     0.019838
     60 C                     0.293825
     61 C                    -0.709698
     62 C                    -0.644381
     63 H                     0.222515
     64 H                     0.244501
     65 H                     0.187948
     66 H                     0.223727
     67 H                     0.136837
     68 H                     0.142208
     69 H                     0.185752
     70 H                     0.220996
     71 H                     0.169100
     72 H                     0.146436
     73 H                     0.144417
     74 H                     0.150996
     75 H                     0.215097
     76 H                     0.159336
     77 H                     0.171894
     78 H                     0.126577
     79 H                     0.186799
     80 H                     0.178622
     81 H                     0.128889
     82 H                     0.176639
     83 H                     0.167866
     84 H                     0.138407
     85 H                     0.168508
     86 H                     0.180088
     87 H                     0.145739
     88 H                     0.142419
     89 H                     0.194990
     90 H                     0.144894
     91 H                     0.182124
     92 H                     0.151932
     93 H                     0.136863
     94 H                     0.203472
     95 H                     0.146064
     96 H                     0.179805
     97 H                     0.150014
     98 H                     0.137187
     99 H                     0.203477
    100 H                     0.147237
    101 H                     0.176182
    102 H                     0.144553
    103 H                     0.137731
    104 H                     0.198466
    105 H                     0.136849
    106 H                     0.167660
    107 H                     0.174943
    108 H                     0.137921
    109 H                     0.168300
    110 H                     0.175329
    111 H                     0.138525
    112 H                     0.167999
    113 H                     0.175434
    114 H                     0.140087
    115 H                     0.168221
    116 H                     0.175125
    117 H                     0.141245
    118 H                     0.183249
    119 H                     0.152549
    120 H                     0.132843
    121 H                     0.216857
    122 H                     0.136481
    123 H                     0.169349
    124 H                     0.177260
    125 H                     0.143845
    126 H                     0.170832
    127 H                     0.144672
    128 H                     0.133984
    129 H                     0.204944
    130 H                     0.148828
    131 H                     0.151873
    132 H                     0.154335
    133 H                     0.157440
    134 H                     0.156963
    135 H                     0.152935
  ----------------------------------------
  Sum of atomic charges =     0.000000

                    Cartesian Multipole Moments
 -----------------------------------------------------------------
    Charge (ESU x 10^10)
                -0.0000
    Dipole Moment (Debye)
         X       0.6424      Y      -0.0558      Z       0.5720
       Tot       0.8619
    Quadrupole Moments (Debye-Ang)
        XX    -305.2394     XY       3.3349     YY    -341.2884
        XZ      -0.7374     YZ       4.8953     ZZ    -360.4026

 Total job time:  3671.65s(wall), 26687.48s(cpu)
        *  Thank you very much for using Q-Chem.  Have a nice day.  *
