 Gaussian 16, Revision A.03,
 Gaussian 16:  ES64L-G16RevA.03 25-Dec-2016

 ----------------------------------------------------------------
 #P UB3LYP/6-311++G(d,p) SCRF=(PCM,Solvent=n,n-DiMethylFormamide)
 ----------------------------------------------------------------

 ------------------
 Radical PCM in DMF
 ------------------
 Symbolic Z-matrix:
 Charge = -1 Multiplicity = 2

                         Standard orientation:
 ---------------------------------------------------------------------
 Center     Atomic      Atomic             Coordinates (Angstroms)
 Number     Number       Type             X           Y           Z
 ---------------------------------------------------------------------
      1          6           0        6.786642   -0.000048   -1.044031
      2          6           0        7.400930   -1.237600   -1.093857
      3          6           0        6.749681   -2.370449   -0.565067
      4          6           0        5.506828    0.149667   -0.467101
      5          6           0        4.846866   -0.994079    0.067430
      6          6           0        5.493087   -2.240921    0.004093
      7          6           0        4.864598    1.445899   -0.415008
      8          6           0        3.555769    1.498397    0.194285
      9          6           0        2.892072    0.413737    0.727608
     10          6           0        3.505457   -0.896163    0.681790
     11          8           0        5.363142    2.531095   -0.861749
     12          8           0        2.930286   -1.915467    1.145424
     13          1           0        7.267314    0.885732   -1.443878
     14          1           0        8.385919   -1.338004   -1.540724
     15          1           0        7.232900   -3.342192   -0.604558
     16          1           0        4.968709   -3.095064    0.417519
     17          6           0        1.524666    0.551547    1.345540
     18          8           0        3.011498    2.750279    0.205100
     19          1           0        1.404178    1.563163    1.746800
     20          1           0        1.451894   -0.158842    2.175333
     21          1           0        3.717601    3.280753   -0.226452
     22          6           0        0.378815    0.262601    0.356580
     23          6           0       -1.009877    0.373110    0.995328
     24          6           0       -2.160196    0.090490    0.022076
     25          1           0        0.517470   -0.745170   -0.049274
     26          1           0        0.450287    0.959865   -0.486835
     27          1           0       -1.135740    1.378940    1.419382
     28          1           0       -1.073238   -0.324600    1.841073
     29          1           0       -2.034770   -0.914976   -0.400420
     30          1           0       -2.094366    0.785439   -0.825576
     31          6           0       -3.551191    0.201142    0.657375
     32          6           0       -4.700576   -0.082017   -0.316844
     33          6           0       -6.091405    0.028179    0.318520
     34          6           0       -7.240053   -0.254362   -0.656682
     35          6           0       -8.630734   -0.143991   -0.021631
     36          6           0       -9.779656   -0.425817   -0.996607
     37          6           0      -11.164905   -0.312743   -0.352684
     38          1           0       -3.676252    1.206845    1.080462
     39          1           0       -3.617078   -0.493893    1.504970
     40          1           0       -4.575429   -1.087396   -0.739915
     41          1           0       -4.634732    0.612783   -1.164506
     42          1           0       -6.216460    1.033458    0.742120
     43          1           0       -6.157599   -0.667216    1.165638
     44          1           0       -7.115174   -1.259598   -1.080143
     45          1           0       -7.173750    0.440908   -1.503848
     46          1           0       -8.756635    0.861177    0.402211
     47          1           0       -8.698432   -0.839647    0.825300
     48          1           0       -9.655015   -1.430247   -1.419581
     49          1           0       -9.712928    0.269292   -1.842615
     50          1           0      -11.274643   -1.020573    0.475361
     51          1           0      -11.961308   -0.519439   -1.073812
     52          1           0      -11.333048    0.691772    0.049084
 ---------------------------------------------------------------------

 SCF Done:  E(UB3LYP) =  -1043.24054787     A.U. after   20 cycles

 The electronic state is 2-A.
 Alpha  occ. eigenvalues --  -19.14246 -19.08507 -19.07303 -10.22210 -10.22026
 Alpha  occ. eigenvalues --  -10.21976 -10.17394 -10.17249 -10.17173 -10.17137
 Alpha  occ. eigenvalues --  -10.17058 -10.16906 -10.16133 -10.16078 -10.15835
 Alpha  occ. eigenvalues --  -10.15816 -10.15798 -10.15773 -10.15748 -10.15722
 Alpha  occ. eigenvalues --  -10.15705 -10.15643 -10.15589 -10.15454  -1.06236
 Alpha  occ. eigenvalues --   -0.99846  -0.99486  -0.85788  -0.81427  -0.80830
 Alpha  occ. eigenvalues --   -0.79484  -0.77625  -0.75575  -0.75033  -0.73313
 Alpha  occ. eigenvalues --   -0.70593  -0.67868  -0.65963  -0.63177  -0.61585
 Alpha  occ. eigenvalues --   -0.59993  -0.58065  -0.57570  -0.57035  -0.56967
 Alpha  occ. eigenvalues --   -0.56643  -0.53599  -0.50359  -0.48515  -0.48199
 Alpha  occ. eigenvalues --   -0.47131  -0.46027  -0.45248  -0.44794  -0.43652
 Alpha  occ. eigenvalues --   -0.43212  -0.42640  -0.42594  -0.42110  -0.41673
 Alpha  occ. eigenvalues --   -0.41103  -0.40412  -0.40005  -0.39178  -0.38715
 Alpha  occ. eigenvalues --   -0.38229  -0.37860  -0.37501  -0.36650  -0.36312
 Alpha  occ. eigenvalues --   -0.35414  -0.34697  -0.34304  -0.34165  -0.33808
 Alpha  occ. eigenvalues --   -0.33498  -0.32780  -0.32700  -0.32398  -0.32000
 Alpha  occ. eigenvalues --   -0.31966  -0.31795  -0.31660  -0.29653  -0.26640
 Alpha  occ. eigenvalues --   -0.25891  -0.25728  -0.23825  -0.22667  -0.15001
 Alpha virt. eigenvalues --   -0.03225  -0.00779  -0.00454  -0.00233   0.00414
 Alpha virt. eigenvalues --    0.00707   0.00766   0.01185   0.01499   0.01798
 Alpha virt. eigenvalues --    0.02237   0.02377   0.03239   0.03347   0.03679

  Beta  occ. eigenvalues --  -19.14200 -19.07879 -19.06770 -10.22077 -10.21924
  Beta  occ. eigenvalues --  -10.21691 -10.17378 -10.17245 -10.17064 -10.17048
  Beta  occ. eigenvalues --  -10.17007 -10.16931 -10.16078 -10.16052 -10.15835
  Beta  occ. eigenvalues --  -10.15816 -10.15798 -10.15773 -10.15748 -10.15729
  Beta  occ. eigenvalues --  -10.15705 -10.15642 -10.15580 -10.15454  -1.06022
  Beta  occ. eigenvalues --   -0.98916  -0.98423  -0.85553  -0.81312  -0.80700
  Beta  occ. eigenvalues --   -0.79384  -0.77520  -0.75458  -0.74825  -0.73242
  Beta  occ. eigenvalues --   -0.70492  -0.67458  -0.65491  -0.63086  -0.61418
  Beta  occ. eigenvalues --   -0.59846  -0.57965  -0.57563  -0.56969  -0.56945
  Beta  occ. eigenvalues --   -0.56459  -0.53425  -0.50131  -0.48453  -0.48016
  Beta  occ. eigenvalues --   -0.47058  -0.45916  -0.45157  -0.44756  -0.43229
  Beta  occ. eigenvalues --   -0.42874  -0.42578  -0.42471  -0.41708  -0.41421
  Beta  occ. eigenvalues --   -0.40763  -0.40232  -0.39795  -0.39023  -0.38126
  Beta  occ. eigenvalues --   -0.37717  -0.37654  -0.37351  -0.36594  -0.35411
  Beta  occ. eigenvalues --   -0.35183  -0.34435  -0.34156  -0.33682  -0.33360
  Beta  occ. eigenvalues --   -0.32876  -0.32662  -0.32532  -0.32378  -0.31992
  Beta  occ. eigenvalues --   -0.31934  -0.31791  -0.31620  -0.29607  -0.25340
  Beta  occ. eigenvalues --   -0.25022  -0.24677  -0.23323  -0.21771
  Beta virt. eigenvalues --   -0.08472  -0.02471  -0.00476  -0.00228   0.00292
  Beta virt. eigenvalues --    0.00476   0.00715   0.00778   0.01192   0.01509
  Beta virt. eigenvalues --    0.01805   0.02247   0.02378   0.03254   0.03357

 Mulliken charges and spin densities:
               1          2
     1  C    0.017525   0.073634
     2  C   -0.378756  -0.001127
     3  C   -0.448175   0.072667
     4  C    0.519857  -0.002084
     5  C   -0.106995   0.061288
     6  C    0.070690   0.002297
     7  C   -0.933622   0.166325
     8  C   -0.618591   0.057461
     9  C    2.050767   0.057049
    10  C   -0.710751   0.074716
    11  O   -0.525279   0.229496
    12  O   -0.456041   0.197933
    13  H    0.166034  -0.004081
    14  H    0.182675  -0.000638
    15  H    0.178231  -0.005192
    16  H    0.166935  -0.000278
    17  C   -0.406953   0.013012
    18  O   -0.284960   0.015947
    19  H    0.216656  -0.000532
    20  H    0.201307   0.002576
    21  H    0.290125  -0.003699
    22  C   -0.891025  -0.000577
    23  C   -0.341484   0.000269
    24  C   -0.024550  -0.005539
    25  H    0.177606  -0.001738
    26  H    0.166256   0.002155
    27  H    0.111981  -0.000396
    28  H    0.115773   0.000477
    29  H    0.125151  -0.000031
    30  H    0.125452  -0.000054
    31  C    0.029577  -0.001675
    32  C    0.058512  -0.000143
    33  C   -0.042053   0.000441
    34  C   -0.302302   0.000030
    35  C   -0.493753   0.000028
    36  C   -0.286327  -0.000008
    37  C   -0.690907   0.000003
    38  H    0.131852  -0.000007
    39  H    0.132434   0.000002
    40  H    0.129243   0.000003
    41  H    0.129384  -0.000005
    42  H    0.128522  -0.000012
    43  H    0.128431   0.000004
    44  H    0.127064  -0.000001
    45  H    0.126724   0.000001
    46  H    0.123815   0.000003
    47  H    0.123893  -0.000002
    48  H    0.131040  -0.000000
    49  H    0.130923   0.000001
    50  H    0.139967  -0.000000
    51  H    0.148156   0.000001
    52  H    0.139966  -0.000000
 Sum of Mulliken charges =  -1.00000   1.00000

 Dipole moment (field-independent basis, Debye):
    X=            -18.9357    Y=             -1.5265    Z=             -1.1972  Tot=             19.0348
 Quadrupole moment (field-independent basis, Debye-Ang):
   XX=           -238.3589   YY=           -173.8455   ZZ=           -160.1958
   XY=            -16.4090   XZ=              0.4862   YZ=              7.7877

 Normal termination of Gaussian 16 at Sun Jan 21 08:47:08 2024.
