 Gaussian 16, Revision A.03,
 Gaussian 16:  ES64L-G16RevA.03 25-Dec-2016

 --------------------------------------
 #P UB3LYP/6-311++G(d,p) nosym opt freq
 --------------------------------------

 -------
 Radical
 -------
 Symbolic Z-matrix:
 Charge = -1 Multiplicity = 2

 SCF Done:  E(UB3LYP) =  -1043.16699523     A.U. after   25 cycles
 Optimization completed.
    -- Stationary point found.
 Normal termination of Gaussian 16 at Mon Jan  8 01:44:54 2024.

 ----------------------------------------------------------------------
 #P Geom=AllCheck Guess=TCheck SCRF=Check GenChk UB3LYP/6-311++G(d,p) F
 req
 ----------------------------------------------------------------------

 Structure from the checkpoint file:  "288-rad.chk"
 -------
 Radical
 -------
 Charge = -1 Multiplicity = 2

                          Input orientation:
 ---------------------------------------------------------------------
 Center     Atomic      Atomic             Coordinates (Angstroms)
 Number     Number       Type             X           Y           Z
 ---------------------------------------------------------------------
      1          6           0       -2.034141    3.013382    0.465464
      2          6           0       -2.750432    2.371172    1.458370
      3          6           0       -2.277719    1.157152    1.996691
      4          6           0       -0.826623    2.468848   -0.022973
      5          6           0       -0.347025    1.242272    0.520098
      6          6           0       -1.094072    0.609495    1.528930
      7          6           0       -0.077528    3.141764   -1.062891
      8          6           0        1.145606    2.507139   -1.496738
      9          6           0        1.634557    1.317914   -0.998655
     10          6           0        0.911914    0.627193    0.047705
     11          8           0       -0.413900    4.239684   -1.617146
     12          8           0        1.328067   -0.454190    0.539828
     13          1           0       -2.377231    3.947821    0.035764
     14          1           0       -3.678046    2.801718    1.824615
     15          1           0       -2.840977    0.653295    2.776571
     16          1           0       -0.706517   -0.322250    1.925297
     17          6           0        2.922465    0.721080   -1.504336
     18          8           0        1.798852    3.198935   -2.475637
     19          1           0        3.086582    1.029396   -2.542075
     20          1           0        2.826051   -0.369164   -1.480296
     21          1           0        1.203773    3.969859   -2.608973
     22          6           0        4.149207    1.119138   -0.661033
     23          6           0        5.453039    0.486015   -1.158884
     24          6           0        6.682854    0.875342   -0.330448
     25          1           0        3.968064    0.819543    0.376741
     26          1           0        4.247355    2.211371   -0.666297
     27          1           0        5.619124    0.772459   -2.206606
     28          1           0        5.346548   -0.607027   -1.154704
     29          1           0        6.517043    0.587868    0.716004
     30          1           0        6.786882    1.968493   -0.331269
     31          6           0        7.989399    0.244589   -0.826238
     32          6           0        9.218360    0.634461    0.003232
     33          6           0       10.524690    0.003399   -0.492246
     34          6           0       11.753102    0.394523    0.337373
     35          6           0       13.059340   -0.236168   -0.158041
     36          6           0       14.288062    0.155189    0.670879
     37          6           0       15.588095   -0.479751    0.167786
     38          1           0        8.154798    0.531816   -1.873246
     39          1           0        7.885427   -0.848581   -0.825315
     40          1           0        9.052904    0.347438    1.049979
     41          1           0        9.322361    1.727529    0.002532
     42          1           0       10.689981    0.289970   -1.539250
     43          1           0       10.421046   -1.089679   -0.490743
     44          1           0       11.587972    0.107846    1.384255
     45          1           0       11.856632    1.487577    0.335998
     46          1           0       13.225427    0.050018   -1.205117
     47          1           0       12.957181   -1.329499   -0.156227
     48          1           0       14.123182   -0.131392    1.716827
     49          1           0       14.391015    1.247322    0.668898
     50          1           0       15.528658   -1.572758    0.190743
     51          1           0       16.444324   -0.180958    0.779833
     52          1           0       15.798571   -0.183621   -0.865048
 ---------------------------------------------------------------------

 SCF Done:  E(UB3LYP) =  -1043.16699523     A.U. after    2 cycles

 Alpha  occ. eigenvalues --  -19.01764 -18.95536 -18.94239 -10.12195 -10.11840
 Alpha  occ. eigenvalues --  -10.11619 -10.11159 -10.10615 -10.09908 -10.09522
 Alpha  occ. eigenvalues --  -10.09395 -10.09143 -10.09099 -10.08026 -10.06829
 Alpha  occ. eigenvalues --  -10.05768 -10.05592 -10.05234 -10.05163 -10.05051
 Alpha  occ. eigenvalues --  -10.04979 -10.04822 -10.04432 -10.03717  -0.93681
 Alpha  occ. eigenvalues --   -0.86753  -0.86503  -0.76074  -0.73661  -0.73484
 Alpha  occ. eigenvalues --   -0.70860  -0.68933  -0.67158  -0.64587  -0.62985
 Alpha  occ. eigenvalues --   -0.62108  -0.59284  -0.56307  -0.54334  -0.53164
 Alpha  occ. eigenvalues --   -0.52206  -0.50700  -0.49526  -0.48363  -0.46326
 Alpha  occ. eigenvalues --   -0.44600  -0.43461  -0.41454  -0.41019  -0.38843
 Alpha  occ. eigenvalues --   -0.38560  -0.38186  -0.36810  -0.36362  -0.35558
 Alpha  occ. eigenvalues --   -0.34579  -0.34052  -0.33519  -0.32987  -0.32553
 Alpha  occ. eigenvalues --   -0.31405  -0.30639  -0.30560  -0.30226  -0.29875
 Alpha  occ. eigenvalues --   -0.28923  -0.28527  -0.28333  -0.27663  -0.27525
 Alpha  occ. eigenvalues --   -0.26982  -0.26518  -0.26151  -0.26021  -0.25853
 Alpha  occ. eigenvalues --   -0.25439  -0.24221  -0.24042  -0.23418  -0.22353
 Alpha  occ. eigenvalues --   -0.22193  -0.21814  -0.21118  -0.20776  -0.14196
 Alpha  occ. eigenvalues --   -0.13535  -0.12887  -0.10779  -0.10341  -0.02208
 Alpha virt. eigenvalues --    0.03300   0.05092   0.05279   0.05495   0.07231
 Alpha virt. eigenvalues --    0.07290   0.07787   0.08293   0.08716   0.08881
 Alpha virt. eigenvalues --    0.09143   0.09598   0.10103   0.10297   0.10444

  Beta  occ. eigenvalues --  -19.01723 -18.94866 -18.93678 -10.12195 -10.11840
  Beta  occ. eigenvalues --  -10.11619 -10.11159 -10.10615 -10.09908 -10.09429
  Beta  occ. eigenvalues --  -10.09298 -10.09099 -10.08879 -10.08026 -10.06828
  Beta  occ. eigenvalues --  -10.05764 -10.05492 -10.05226 -10.05122 -10.05022
  Beta  occ. eigenvalues --  -10.05017 -10.04692 -10.04439 -10.03635  -0.93486
  Beta  occ. eigenvalues --   -0.85790  -0.85373  -0.76074  -0.73489  -0.73427
  Beta  occ. eigenvalues --   -0.70844  -0.68742  -0.66976  -0.64451  -0.62787
  Beta  occ. eigenvalues --   -0.62013  -0.59200  -0.56096  -0.53844  -0.53019
  Beta  occ. eigenvalues --   -0.52119  -0.50651  -0.49393  -0.48240  -0.46151
  Beta  occ. eigenvalues --   -0.44358  -0.43461  -0.41304  -0.41015  -0.38841
  Beta  occ. eigenvalues --   -0.38550  -0.37979  -0.36808  -0.36263  -0.35375
  Beta  occ. eigenvalues --   -0.34553  -0.33946  -0.33441  -0.32948  -0.32512
  Beta  occ. eigenvalues --   -0.31178  -0.30573  -0.30526  -0.29842  -0.29465
  Beta  occ. eigenvalues --   -0.28689  -0.28441  -0.27967  -0.27570  -0.27389
  Beta  occ. eigenvalues --   -0.26785  -0.26410  -0.25988  -0.25798  -0.25377
  Beta  occ. eigenvalues --   -0.25152  -0.24128  -0.23373  -0.23235  -0.22095
  Beta  occ. eigenvalues --   -0.21663  -0.20970  -0.20575  -0.19950  -0.12863
  Beta  occ. eigenvalues --   -0.12288  -0.12113  -0.10234  -0.09298
  Beta virt. eigenvalues --    0.03300   0.04352   0.05092   0.05279   0.05495
  Beta virt. eigenvalues --    0.07231   0.07290   0.07786   0.08285   0.08716
  Beta virt. eigenvalues --    0.09115   0.09514   0.09637   0.10102   0.10293

 Mulliken charges and spin densities:
               1          2
     1  C    0.001378   0.065901
     2  C   -0.310247   0.001360
     3  C   -0.372477   0.080047
     4  C    0.612576   0.011787
     5  C   -0.021045   0.078583
     6  C    0.056216  -0.008724
     7  C   -1.160917   0.140166
     8  C   -0.652622   0.058511
     9  C    2.220630   0.064260
    10  C   -0.878314   0.045749
    11  O   -0.451751   0.246460
    12  O   -0.363143   0.210037
    13  H    0.156470  -0.003804
    14  H    0.123515  -0.000779
    15  H    0.120153  -0.005983
    16  H    0.160479   0.000130
    17  C   -0.475985   0.013638
    18  O   -0.257667   0.014863
    19  H    0.214535  -0.000850
    20  H    0.213367   0.002807
    21  H    0.266158  -0.004363
    22  C   -0.920305  -0.000339
    23  C   -0.342126  -0.000250
    24  C   -0.027063  -0.008124
    25  H    0.182268  -0.002101
    26  H    0.155779   0.002870
    27  H    0.096036  -0.000618
    28  H    0.107572   0.000952
    29  H    0.120332  -0.000062
    30  H    0.116605   0.000003
    31  C    0.046129  -0.002651
    32  C    0.081776  -0.000169
    33  C   -0.007398   0.000616
    34  C   -0.269634   0.000072
    35  C   -0.467361   0.000040
    36  C   -0.268621  -0.000013
    37  C   -0.670640   0.000007
    38  H    0.121197   0.000006
    39  H    0.123418  -0.000013
    40  H    0.122543  -0.000005
    41  H    0.121437  -0.000008
    42  H    0.120533  -0.000017
    43  H    0.121074   0.000006
    44  H    0.120792  -0.000001
    45  H    0.119950   0.000002
    46  H    0.117085   0.000004
    47  H    0.117444  -0.000004
    48  H    0.126574  -0.000000
    49  H    0.126194   0.000001
    50  H    0.134050  -0.000000
    51  H    0.139191   0.000004
    52  H    0.133860  -0.000000
 Sum of Mulliken charges =  -1.00000   1.00000

 Dipole moment (field-independent basis, Debye):
    X=             -3.7155    Y=             -8.4642    Z=              2.2150  Tot=              9.5054
 Quadrupole moment (field-independent basis, Debye-Ang):
   XX=           -191.1910   YY=           -190.3124   ZZ=           -164.2700
   XY=              4.5853   XZ=              2.7613   YZ=             11.8873

  Exact polarizability: 373.671 -41.553 261.638 -47.254 -32.459 248.566
 Approx polarizability: 435.919 -53.772 459.551 -66.799 -81.408 402.458

                      1                      2                      3
                      A                      A                      A
 Frequencies --      9.9176                18.0092                21.1437
 Red. masses --      5.4803                 4.5757                 2.0411
 Frc consts  --      0.0003                 0.0009                 0.0005
 IR Inten    --      0.0633                 0.0848                 0.2318

                      4                      5                      6
                      A                      A                      A
 Frequencies --     28.5536                43.1996                57.4896
 Red. masses --      2.7120                 4.8513                 2.5757
 Frc consts  --      0.0013                 0.0053                 0.0050
 IR Inten    --      0.4300                 1.2749                 0.1703

                      7                      8                      9
                      A                      A                      A
 Frequencies --     73.3028                82.4645                99.8497
 Red. masses --      1.8056                 5.6480                 2.2549
 Frc consts  --      0.0057                 0.0226                 0.0132
 IR Inten    --      0.1733                 4.8672                 0.0760

                     10                     11                     12
                      A                      A                      A
 Frequencies --    105.5163               114.6730               119.6450
 Red. masses --      4.8332                 5.1481                 1.9145
 Frc consts  --      0.0317                 0.0399                 0.0161
 IR Inten    --      0.9481                 0.9629                 0.0973

                     13                     14                     15
                      A                      A                      A
 Frequencies --    138.9009               148.1490               158.6848
 Red. masses --      1.9855                 5.1400                 2.0208
 Frc consts  --      0.0226                 0.0665                 0.0300
 IR Inten    --      0.0142                 0.1729                 0.0515

                     16                     17                     18
                      A                      A                      A
 Frequencies --    166.5260               170.5869               182.9310
 Red. masses --      1.9896                 5.0048                 5.5634
 Frc consts  --      0.0325                 0.0858                 0.1097
 IR Inten    --      0.0026                 0.6641                 0.7282

                     19                     20                     21
                      A                      A                      A
 Frequencies --    235.5544               243.9630               252.2604
 Red. masses --      4.3607                 1.1197                 4.4553
 Frc consts  --      0.1426                 0.0393                 0.1670
 IR Inten    --      0.1119                 0.0000                 2.2558

                     22                     23                     24
                      A                      A                      A
 Frequencies --    277.2799               298.6056               321.4084
 Red. masses --      3.6522                 2.8805                 4.6064
 Frc consts  --      0.1654                 0.1513                 0.2804
 IR Inten    --      1.1147                 1.9502                 0.6503

                     25                     26                     27
                      A                      A                      A
 Frequencies --    349.5901               377.3460               381.3739
 Red. masses --      5.6290                10.1861                 3.7136
 Frc consts  --      0.4053                 0.8546                 0.3182
 IR Inten    --     10.5211                12.2538                 0.2708

                     28                     29                     30
                      A                      A                      A
 Frequencies --    401.1989               426.6173               431.2592
 Red. masses --      3.8224                 5.8997                 8.0932
 Frc consts  --      0.3625                 0.6326                 0.8868
 IR Inten    --      1.5037                 1.8674                 1.8827

                     31                     32                     33
                      A                      A                      A
 Frequencies --    450.5222               477.5066               490.5776
 Red. masses --      3.7309                 4.0784                 3.7228
 Frc consts  --      0.4462                 0.5479                 0.5279
 IR Inten    --      2.5763                 2.6222                 1.0793

                     34                     35                     36
                      A                      A                      A
 Frequencies --    504.4651               533.4940               572.3497
 Red. masses --      3.6843                 6.2077                 5.4294
 Frc consts  --      0.5524                 1.0410                 1.0479
 IR Inten    --      0.4113                 1.2156                 1.8249

                     37                     38                     39
                      A                      A                      A
 Frequencies --    645.7553               676.5082               699.5850
 Red. masses --      6.1852                 5.7276                 3.1340
 Frc consts  --      1.5196                 1.5444                 0.9037
 IR Inten    --     18.0800                 3.2453                 1.9709

                     40                     41                     42
                      A                      A                      A
 Frequencies --    705.0030               712.4131               730.1431
 Red. masses --      3.2263                 4.9283                 1.0581
 Frc consts  --      0.9448                 1.4737                 0.3324
 IR Inten    --     17.5216                 1.8001                 5.7373

                     43                     44                     45
                      A                      A                      A
 Frequencies --    730.8597               734.1968               735.5095
 Red. masses --      1.0798                 1.1217                 1.1380
 Frc consts  --      0.3398                 0.3563                 0.3627
 IR Inten    --      0.1247               123.8958                 3.5791

                     46                     47                     48
                      A                      A                      A
 Frequencies --    748.4712               761.9064               774.4021
 Red. masses --      1.1986                 2.4010                 1.2624
 Frc consts  --      0.3956                 0.8212                 0.4461
 IR Inten    --      0.0617                 9.6203                 0.1345

                     49                     50                     51
                      A                      A                      A
 Frequencies --    782.5911               814.1328               857.6360
 Red. masses --      2.9653                 1.3480                 1.6591
 Frc consts  --      1.0700                 0.5264                 0.7190
 IR Inten    --      4.9123                 2.1870                 5.7270

                     52                     53                     54
                      A                      A                      A
 Frequencies --    862.0719               894.5382               895.4334
 Red. masses --      1.3951                 1.9735                 1.7626
 Frc consts  --      0.6108                 0.9305                 0.8326
 IR Inten    --      0.0768                 1.9317                10.9689

                     55                     56                     57
                      A                      A                      A
 Frequencies --    940.9016               946.7550               969.2424
 Red. masses --      1.7598                 3.1783                 1.3142
 Frc consts  --      0.9179                 1.6785                 0.7274
 IR Inten    --      5.7377                19.1709                 1.4444

                     58                     59                     60
                      A                      A                      A
 Frequencies --    977.8759               980.0386               990.3815
 Red. masses --      1.3105                 4.8190                 3.7084
 Frc consts  --      0.7383                 2.7270                 2.1431
 IR Inten    --      1.1478                 0.8501                 4.9816

                     61                     62                     63
                      A                      A                      A
 Frequencies --    996.9782              1020.4016              1025.3966
 Red. masses --      1.4059                 3.6428                 3.5087
 Frc consts  --      0.8234                 2.2347                 2.1736
 IR Inten    --      0.9874                 3.7535                 6.2759

                     64                     65                     66
                      A                      A                      A
 Frequencies --   1037.7071              1042.1787              1047.7603
 Red. masses --      2.1198                 1.5138                 2.5308
 Frc consts  --      1.3449                 0.9687                 1.6369
 IR Inten    --     18.7533                 5.8161                 0.1987

                     67                     68                     69
                      A                      A                      A
 Frequencies --   1060.6314              1062.2864              1064.4812
 Red. masses --      2.4258                 1.7796                 2.1996
 Frc consts  --      1.6078                 1.1832                 1.4685
 IR Inten    --      0.5347                25.5624                 1.2063

                     70                     71                     72
                      A                      A                      A
 Frequencies --   1065.6479              1087.6047              1107.0622
 Red. masses --      2.3168                 3.0043                 2.0647
 Frc consts  --      1.5501                 2.0938                 1.4909
 IR Inten    --      0.0592                 2.2273                 4.9704

                     73                     74                     75
                      A                      A                      A
 Frequencies --   1132.1427              1139.4155              1150.5681
 Red. masses --      1.8603                 2.8402                 1.3092
 Frc consts  --      1.4049                 2.1725                 1.0211
 IR Inten    --     43.0060                 2.3339                 0.5826

                     76                     77                     78
                      A                      A                      A
 Frequencies --   1196.0955              1204.5242              1208.4711
 Red. masses --      2.5732                 2.1410                 2.0239
 Frc consts  --      2.1690                 1.8302                 1.7414
 IR Inten    --      9.2172                11.8199                12.8686

                     79                     80                     81
                      A                      A                      A
 Frequencies --   1222.5848              1234.1044              1250.8907
 Red. masses --      1.2528                 1.6402                 2.3535
 Frc consts  --      1.1033                 1.4718                 2.1697
 IR Inten    --      0.1924                 1.3761                21.9136

                     82                     83                     84
                      A                      A                      A
 Frequencies --   1256.9555              1269.7708              1285.0703
 Red. masses --      1.3015                 1.4882                 1.7612
 Frc consts  --      1.2115                 1.4137                 1.7136
 IR Inten    --      0.4661                25.7811                 9.7701

                     85                     86                     87
                      A                      A                      A
 Frequencies --   1292.3314              1299.6093              1319.8608
 Red. masses --      1.4593                 1.3723                 1.1766
 Frc consts  --      1.4359                 1.3657                 1.2076
 IR Inten    --      8.4851                 8.4862                10.9521

                     88                     89                     90
                      A                      A                      A
 Frequencies --   1321.6504              1322.5109              1328.2330
 Red. masses --      1.0547                 1.3593                 1.0417
 Frc consts  --      1.0854                 1.4008                 1.0828
 IR Inten    --      4.6493                 3.4821                 0.2961

                     91                     92                     93
                      A                      A                      A
 Frequencies --   1333.9549              1336.3943              1339.1062
 Red. masses --      1.1419                 1.0846                 1.1160
 Frc consts  --      1.1972                 1.1412                 1.1791
 IR Inten    --      7.8115                 0.2380                 6.8359

                     94                     95                     96
                      A                      A                      A
 Frequencies --   1343.2026              1351.8273              1356.8995
 Red. masses --      1.8444                 3.1047                 1.9984
 Frc consts  --      1.9606                 3.3428                 2.1678
 IR Inten    --     30.3243                20.5914                45.3865

                     97                     98                     99
                      A                      A                      A
 Frequencies --   1373.6121              1384.6457              1392.5323
 Red. masses --      1.4802                 1.5115                 1.6019
 Frc consts  --      1.6455                 1.7074                 1.8302
 IR Inten    --      2.1363                 0.6373                 0.1795

                    100                    101                    102
                      A                      A                      A
 Frequencies --   1397.1632              1398.4998              1410.5756
 Red. masses --      1.5922                 1.5870                 1.2529
 Frc consts  --      1.8312                 1.8287                 1.4688
 IR Inten    --      0.1770                 0.8256                 2.1716

                    103                    104                    105
                      A                      A                      A
 Frequencies --   1436.3784              1460.9981              1465.3162
 Red. masses --      2.4137                 1.5133                 2.2187
 Frc consts  --      2.9341                 1.9031                 2.8069
 IR Inten    --    350.4517                52.7667                24.1885

                    106                    107                    108
                      A                      A                      A
 Frequencies --   1481.7075              1482.6289              1484.1371
 Red. masses --      1.1374                 1.1005                 1.2039
 Frc consts  --      1.4713                 1.4252                 1.5624
 IR Inten    --      7.1031                 3.1928                14.6083

                    109                    110                    111
                      A                      A                      A
 Frequencies --   1485.7196              1486.9416              1488.4768
 Red. masses --      1.2969                 1.3684                 1.0803
 Frc consts  --      1.6867                 1.7826                 1.4102
 IR Inten    --     23.3919                27.7478                 0.8255

                    112                    113                    114
                      A                      A                      A
 Frequencies --   1493.5652              1498.8307              1499.6225
 Red. masses --      1.0816                 1.0399                 1.0861
 Frc consts  --      1.4216                 1.3765                 1.4391
 IR Inten    --      1.0909                 7.4207                 0.1767

                    115                    116                    117
                      A                      A                      A
 Frequencies --   1505.7277              1510.9891              1514.7344
 Red. masses --      1.0916                 1.0957                 1.0983
 Frc consts  --      1.4582                 1.4739                 1.4848
 IR Inten    --      2.2109                 0.1107                13.9045

                    118                    119                    120
                      A                      A                      A
 Frequencies --   1524.7328              1540.2576              1578.2011
 Red. masses --      5.6347                 5.8470                 5.3940
 Frc consts  --      7.7180                 8.1727                 7.9156
 IR Inten    --    412.3799                70.7341                20.5135

                    121                    122                    123
                      A                      A                      A
 Frequencies --   1621.6047              1639.8405              2983.0480
 Red. masses --      5.8317                 6.1927                 1.0580
 Frc consts  --      9.0352                 9.8115                 5.5469
 IR Inten    --     13.8078                 8.5009                 8.1509

                    124                    125                    126
                      A                      A                      A
 Frequencies --   2986.3398              2987.5042              2990.0465
 Red. masses --      1.0572                 1.0572                 1.0582
 Frc consts  --      5.5552                 5.5594                 5.5743
 IR Inten    --      1.4684                 1.0122                 0.9894

                    127                    128                    129
                      A                      A                      A
 Frequencies --   2990.5868              2995.6576              3000.9480
 Red. masses --      1.0582                 1.0604                 1.0838
 Frc consts  --      5.5759                 5.6068                 5.7504
 IR Inten    --      8.0238                 3.6499                21.9604

                    130                    131                    132
                      A                      A                      A
 Frequencies --   3002.3688              3003.0368              3005.3525
 Red. masses --      1.0715                 1.0974                 1.0970
 Frc consts  --      5.6906                 5.8308                 5.8380
 IR Inten    --     24.8173                 0.2652                 0.9873

                    133                    134                    135
                      A                      A                      A
 Frequencies --   3006.6749              3009.7455              3012.3512
 Red. masses --      1.0601                 1.0753                 1.0896
 Frc consts  --      5.6465                 5.7391                 5.8252
 IR Inten    --    160.2082                25.2316                 6.2080

                    136                    137                    138
                      A                      A                      A
 Frequencies --   3013.7842              3021.1669              3023.2333
 Red. masses --      1.0353                 1.0878                 1.0760
 Frc consts  --      5.5407                 5.8498                 5.7944
 IR Inten    --     58.1474                35.3647                66.0906

                    139                    140                    141
                      A                      A                      A
 Frequencies --   3032.0075              3040.8961              3047.6542
 Red. masses --      1.1041                 1.1045                 1.1029
 Frc consts  --      5.9801                 6.0178                 6.0354
 IR Inten    --      9.3370                 2.2420                26.5382

                    142                    143                    144
                      A                      A                      A
 Frequencies --   3050.7649              3070.6550              3074.5499
 Red. masses --      1.1044                 1.1059                 1.1024
 Frc consts  --      6.0564                 6.1439                 6.1399
 IR Inten    --    177.7876                49.2461                81.2599

                    145                    146                    147
                      A                      A                      A
 Frequencies --   3076.1752              3132.9514              3152.2204
 Red. masses --      1.1009                 1.0845                 1.0909
 Frc consts  --      6.1381                 6.2720                 6.3865
 IR Inten    --     52.7216                15.6436                49.3450

                    148                    149                    150
                      A                      A                      A
 Frequencies --   3179.0922              3181.9857              3481.5363
 Red. masses --      1.0915                 1.0929                 1.0635
 Frc consts  --      6.4995                 6.5200                 7.5952
 IR Inten    --     14.2549                26.6041               106.8217

 - Thermochemistry -
 -------------------
 Temperature   298.150 Kelvin.  Pressure   1.00000 Atm.
 Atom     1 has atomic number  6 and mass  12.00000

 Molecular mass:   328.20384 amu.
 Principal axes and moments of inertia in atomic units:
                           1         2         3
     Eigenvalues --  2679.09213********************
           X            0.98782  -0.09597   0.12251
           Y           -0.15551  -0.63861   0.75365
           Z           -0.00590   0.76352   0.64575
 This molecule is an asymmetric top.
 Rotational symmetry number  1.
 Warning -- assumption of classical behavior for rotation
           may cause significant error
 Rotational temperatures (Kelvin)      0.03233     0.00227     0.00219
 Rotational constants (GHZ):           0.67364     0.04723     0.04557
 Zero-point vibrational energy    1169680.8 (Joules/Mol)
                                  279.56041 (Kcal/Mol)
 Warning -- explicit consideration of  36 degrees of freedom as
           vibrations may cause significant error
 Vibrational temperatures:     14.27    25.91    30.42    41.08    62.15
          (Kelvin)             82.71   105.47   118.65   143.66   151.81
                              164.99   172.14   199.85   213.15   228.31
                              239.59   245.44   263.20   338.91   351.01
                              362.95   398.94   429.63   462.43   502.98
                              542.92   548.71   577.24   613.81   620.49
                              648.20   687.03   705.83   725.81   767.58
                              823.48   929.10   973.34  1006.55  1014.34
                             1025.00  1050.51  1051.54  1056.35  1058.23
                             1076.88  1096.21  1114.19  1125.97  1171.36
                             1233.95  1240.33  1287.04  1288.33  1353.75
                             1362.17  1394.52  1406.95  1410.06  1424.94
                             1434.43  1468.13  1475.32  1493.03  1499.46
                             1507.49  1526.01  1528.39  1531.55  1533.23
                             1564.82  1592.82  1628.90  1639.36  1655.41
                             1720.91  1733.04  1738.72  1759.03  1775.60
                             1799.75  1808.48  1826.92  1848.93  1859.38
                             1869.85  1898.99  1901.56  1902.80  1911.03
                             1919.26  1922.77  1926.68  1932.57  1944.98
                             1952.28  1976.32  1992.20  2003.54  2010.21
                             2012.13  2029.50  2066.63  2102.05  2108.26
                             2131.85  2133.17  2135.34  2137.62  2139.38
                             2141.59  2148.91  2156.48  2157.62  2166.41
                             2173.98  2179.36  2193.75  2216.09  2270.68
                             2333.13  2359.36  4291.94  4296.68  4298.35
                             4302.01  4302.79  4310.08  4317.69  4319.74
                             4320.70  4324.03  4325.93  4330.35  4334.10
                             4336.16  4346.79  4349.76  4362.38  4375.17
                             4384.89  4389.37  4417.99  4423.59  4425.93
                             4507.62  4535.34  4574.00  4578.17  5009.15

 Zero-point correction=                           0.445508 (Hartree/Particle)
 Thermal correction to Energy=                    0.470486
 Thermal correction to Enthalpy=                  0.471430
 Thermal correction to Gibbs Free Energy=         0.385381
 Sum of electronic and zero-point Energies=          -1042.721487
 Sum of electronic and thermal Energies=             -1042.696509
 Sum of electronic and thermal Enthalpies=           -1042.695565
 Sum of electronic and thermal Free Energies=        -1042.781614

                     E (Thermal)             CV                S
                      KCal/Mol        Cal/Mol-Kelvin    Cal/Mol-Kelvin
 Total                  295.234             92.993            181.105
 Electronic               0.000              0.000              1.377
 Translational            0.889              2.981             43.261
 Rotational               0.889              2.981             36.648
 Vibrational            293.457             87.031             99.819
 Vibration     1          0.593              1.987              8.027
 Vibration     2          0.593              1.986              6.842
 Vibration     3          0.593              1.985              6.524
 Vibration     4          0.593              1.984              5.927
 Vibration     5          0.595              1.980              5.107
 Vibration     6          0.596              1.975              4.542
 Vibration     7          0.599              1.967              4.063
 Vibration     8          0.600              1.961              3.831
 Vibration     9          0.604              1.949              3.457
 Vibration    10          0.605              1.945              3.350
 Vibration    11          0.608              1.937              3.188
 Vibration    12          0.609              1.933              3.106
 Vibration    13          0.615              1.914              2.819
 Vibration    14          0.618              1.905              2.696
 Vibration    15          0.621              1.893              2.565
 Vibration    16          0.624              1.884              2.474
 Vibration    17          0.626              1.879              2.429
 Vibration    18          0.630              1.863              2.298
 Vibration    19          0.655              1.786              1.836
 Vibration    20          0.659              1.773              1.774
 Vibration    21          0.664              1.759              1.715
 Vibration    22          0.678              1.715              1.550
 Vibration    23          0.692              1.676              1.425
 Vibration    24          0.707              1.633              1.303
 Vibration    25          0.727              1.576              1.168
 Vibration    26          0.748              1.518              1.050
 Vibration    27          0.751              1.510              1.034
 Vibration    28          0.767              1.468              0.958
 Vibration    29          0.788              1.412              0.870
 Vibration    30          0.792              1.402              0.855
 Vibration    31          0.809              1.360              0.794
 Vibration    32          0.834              1.300              0.717
 Vibration    33          0.846              1.271              0.682
 Vibration    34          0.860              1.240              0.647
 Vibration    35          0.888              1.176              0.579
 Vibration    36          0.929              1.091              0.500

                           ! Non-Optimized Parameters !
 Normal termination of Gaussian 16 at Mon Jan  8 06:38:52 2024.
