 Q-Chem 5.4, Q-Chem, Inc., Pleasanton, CA (2021)
 Q-Chem 5.4.0 for Intel X86 EM64T Linux

User input:
--------------------------------------------------------------
$molecule
-2 1
C                  3.8405980000      1.2651240000     -1.3635810000
N                  2.5264580000      1.1715620000     -0.7977580000
C                  2.0623840000      0.0301650000     -0.1740790000
C                  2.9323340000     -0.9767180000      0.2477150000
C                  2.4358240000     -2.1092450000      0.9420900000
C                  1.0918870000     -2.2386750000      1.1986800000
C                  0.1572330000     -1.2594300000      0.7628150000
C                 -1.2459590000     -1.4876150000      1.0551840000
O                 -1.6596420000     -2.5179820000      1.6975960000
C                 -2.1485960000     -0.4661500000      0.5696390000
C                 -3.5406740000     -0.5929080000      0.8039140000
C                 -4.4509120000      0.3437180000      0.3579110000
C                 -3.9889780000      1.4798080000     -0.3655660000
C                 -2.6400310000      1.6321300000     -0.6107740000
C                 -1.6783500000      0.6890340000     -0.1611170000
C                 -0.2832700000      0.9087260000     -0.4479030000
O                  0.0939870000      1.9566700000     -1.1328260000
C                  0.6301160000     -0.0893600000      0.0496700000
H                  4.0959640000      0.4125410000     -2.0239190000
H                  4.6329830000      1.3141270000     -0.5988500000
H                  3.9103240000      2.1799690000     -1.9610380000
H                  1.7341910000      1.7434490000     -1.1541860000
H                  3.9985690000     -0.8750880000      0.0754380000
H                  3.1349290000     -2.8765960000      1.2721450000
H                  0.6876170000     -3.0923420000      1.7309960000
H                 -3.8574560000     -1.4726000000      1.3560070000
H                 -5.5140190000      0.2164770000      0.5555230000
H                 -4.6983680000      2.2244980000     -0.7230940000
H                 -2.2591420000      2.4867100000     -1.1606330000
$end

$rem
BASIS  =  6-311++G(d,p)
GUI  =  2
JOB_TYPE  =  SP
METHOD  =  B3LYP
SCF_CONVERGENCE  = 8
SOLVENT_METHOD = sm12
$end

$smx
solvent dimethylformamide
charges CM5
$end

--------------------------------------------------------------

             Standard Nuclear Orientation (Angstroms)
    I     Atom           X                Y                Z
 ----------------------------------------------------------------
    1      C       3.8405980000     1.2651240000    -1.3635810000
    2      N       2.5264580000     1.1715620000    -0.7977580000
    3      C       2.0623840000     0.0301650000    -0.1740790000
    4      C       2.9323340000    -0.9767180000     0.2477150000
    5      C       2.4358240000    -2.1092450000     0.9420900000
    6      C       1.0918870000    -2.2386750000     1.1986800000
    7      C       0.1572330000    -1.2594300000     0.7628150000
    8      C      -1.2459590000    -1.4876150000     1.0551840000
    9      O      -1.6596420000    -2.5179820000     1.6975960000
   10      C      -2.1485960000    -0.4661500000     0.5696390000
   11      C      -3.5406740000    -0.5929080000     0.8039140000
   12      C      -4.4509120000     0.3437180000     0.3579110000
   13      C      -3.9889780000     1.4798080000    -0.3655660000
   14      C      -2.6400310000     1.6321300000    -0.6107740000
   15      C      -1.6783500000     0.6890340000    -0.1611170000
   16      C      -0.2832700000     0.9087260000    -0.4479030000
   17      O       0.0939870000     1.9566700000    -1.1328260000
   18      C       0.6301160000    -0.0893600000     0.0496700000
   19      H       4.0959640000     0.4125410000    -2.0239190000
   20      H       4.6329830000     1.3141270000    -0.5988500000
   21      H       3.9103240000     2.1799690000    -1.9610380000
   22      H       1.7341910000     1.7434490000    -1.1541860000
   23      H       3.9985690000    -0.8750880000     0.0754380000
   24      H       3.1349290000    -2.8765960000     1.2721450000
   25      H       0.6876170000    -3.0923420000     1.7309960000
   26      H      -3.8574560000    -1.4726000000     1.3560070000
   27      H      -5.5140190000     0.2164770000     0.5555230000
   28      H      -4.6983680000     2.2244980000    -0.7230940000
   29      H      -2.2591420000     2.4867100000    -1.1606330000
 ----------------------------------------------------------------

   18    -783.6126723576      4.16e-09  Convergence criterion met
 Total energy in the final basis set =     -783.9016461714

                    Orbital Energies (a.u.)
 --------------------------------------------------------------

 Alpha MOs
 -- Occupied --
-19.0400 -19.0302 -14.3058 -10.2119 -10.2041 -10.1950 -10.1892 -10.1747
-10.1742 -10.1713 -10.1701 -10.1700 -10.1611 -10.1594 -10.1568 -10.1552
-10.1549 -10.1534  -0.9598  -0.9485  -0.9211  -0.8461  -0.8305  -0.7719
 -0.7446  -0.7405  -0.7270  -0.6802  -0.6544  -0.6240  -0.6113  -0.5738
 -0.5525  -0.5271  -0.5173  -0.4929  -0.4689  -0.4605  -0.4515  -0.4428
 -0.4404  -0.4297  -0.4211  -0.3982  -0.3966  -0.3929  -0.3825  -0.3701
 -0.3686  -0.3622  -0.3486  -0.3401  -0.3359  -0.3220  -0.3201  -0.2887
 -0.2492  -0.2396  -0.2378  -0.2180  -0.2055  -0.1983  -0.1210

          Ground-State Mulliken Net Atomic Charges

     Atom                 Charge (a.u.)
  ----------------------------------------
      1 C                     0.315217
      2 N                    -0.247367
      3 C                    -0.718973
      4 C                     2.833612
      5 C                     1.055703
      6 C                    -0.894142
      7 C                    -1.482677
      8 C                    -2.972266
      9 O                    -0.316653
     10 C                    -1.845352
     11 C                    -0.030660
     12 C                     1.935457
     13 C                     1.697959
     14 C                     0.288928
     15 C                    -0.906604
     16 C                    -2.010430
     17 O                    -0.273425
     18 C                    -1.423838
     19 H                     0.223502
     20 H                     0.214750
     21 H                     0.352919
     22 H                     0.316971
     23 H                     0.344322
     24 H                     0.382324
     25 H                     0.068151
     26 H                     0.116652
     27 H                     0.406643
     28 H                     0.414041
     29 H                     0.155237
  ----------------------------------------
  Sum of atomic charges =    -2.000000

                    Cartesian Multipole Moments
 -----------------------------------------------------------------
    Charge (ESU x 10^10)
                -9.6064
    Dipole Moment (Debye)
         X       6.7220      Y       4.6196      Z      -4.2058
       Tot       9.1768
    Quadrupole Moments (Debye-Ang)
        XX    -155.1660     XY      -3.0707     YY    -154.1804
        XZ       4.8669     YZ      18.6318     ZZ    -133.0332

 Total job time:  829.95s(wall), 6314.91s(cpu)
        *  Thank you very much for using Q-Chem.  Have a nice day.  *
