 Gaussian 16, Revision A.03,
 Gaussian 16:  ES64L-G16RevA.03 25-Dec-2016

 --------------------------------------
 #P UB3LYP/6-311++G(d,p) nosym opt freq
 --------------------------------------

 -------
 Reduced
 -------
 Symbolic Z-matrix:
 Charge = -2 Multiplicity = 1

 SCF Done:  E(UB3LYP) =  -783.624066957     A.U. after   34 cycles
 Optimization completed.
    -- Stationary point found.
 Normal termination of Gaussian 16 at Wed Dec 27 21:00:45 2023.

 ----------------------------------------------------------------------
 #P Geom=AllCheck Guess=TCheck SCRF=Check GenChk UB3LYP/6-311++G(d,p) F
 req
 ----------------------------------------------------------------------

 Structure from the checkpoint file:  "170-an.chk"
 -------
 Reduced
 -------
 Charge = -2 Multiplicity = 1

                          Input orientation:
 ---------------------------------------------------------------------
 Center     Atomic      Atomic             Coordinates (Angstroms)
 Number     Number       Type             X           Y           Z
 ---------------------------------------------------------------------
      1          6           0        3.840598    1.265124   -1.363581
      2          7           0        2.526458    1.171562   -0.797758
      3          6           0        2.062384    0.030165   -0.174079
      4          6           0        2.932334   -0.976718    0.247715
      5          6           0        2.435824   -2.109245    0.942090
      6          6           0        1.091887   -2.238675    1.198680
      7          6           0        0.157233   -1.259430    0.762815
      8          6           0       -1.245959   -1.487615    1.055184
      9          8           0       -1.659642   -2.517982    1.697596
     10          6           0       -2.148596   -0.466150    0.569639
     11          6           0       -3.540674   -0.592908    0.803914
     12          6           0       -4.450912    0.343718    0.357911
     13          6           0       -3.988978    1.479808   -0.365566
     14          6           0       -2.640031    1.632130   -0.610774
     15          6           0       -1.678350    0.689034   -0.161117
     16          6           0       -0.283270    0.908726   -0.447903
     17          8           0        0.093987    1.956670   -1.132826
     18          6           0        0.630116   -0.089360    0.049670
     19          1           0        4.095964    0.412541   -2.023919
     20          1           0        4.632983    1.314127   -0.598850
     21          1           0        3.910324    2.179969   -1.961038
     22          1           0        1.734191    1.743449   -1.154186
     23          1           0        3.998569   -0.875088    0.075438
     24          1           0        3.134929   -2.876596    1.272145
     25          1           0        0.687617   -3.092342    1.730996
     26          1           0       -3.857456   -1.472600    1.356007
     27          1           0       -5.514019    0.216477    0.555523
     28          1           0       -4.698368    2.224498   -0.723094
     29          1           0       -2.259142    2.486710   -1.160633
 ---------------------------------------------------------------------

 SCF Done:  E(UB3LYP) =  -783.624066957     A.U. after    2 cycles

 Alpha  occ. eigenvalues --  -18.79613 -18.78593 -14.06725  -9.98448  -9.96620
 Alpha  occ. eigenvalues --   -9.94912  -9.94505  -9.93441  -9.93363  -9.92624
 Alpha  occ. eigenvalues --   -9.92568  -9.92562  -9.91698  -9.91381  -9.91066
 Alpha  occ. eigenvalues --   -9.90873  -9.90863  -9.90680  -0.71553  -0.70304
 Alpha  occ. eigenvalues --   -0.68197  -0.60235  -0.58602  -0.52691  -0.50351
 Alpha  occ. eigenvalues --   -0.50064  -0.48271  -0.44578  -0.40946  -0.38083
 Alpha  occ. eigenvalues --   -0.36782  -0.33056  -0.30840  -0.28661  -0.27639
 Alpha  occ. eigenvalues --   -0.25509  -0.22960  -0.21928  -0.21797  -0.20766
 Alpha  occ. eigenvalues --   -0.20408  -0.18736  -0.17760  -0.16514  -0.15079
 Alpha  occ. eigenvalues --   -0.15026  -0.13984  -0.13048  -0.12505  -0.11877
 Alpha  occ. eigenvalues --   -0.10371  -0.09335  -0.09177  -0.07865  -0.07467
 Alpha  occ. eigenvalues --   -0.04605  -0.00468   0.00618   0.01081   0.02568
 Alpha  occ. eigenvalues --    0.03908   0.04538   0.12764
 Alpha virt. eigenvalues --    0.14355   0.15864   0.16659   0.17618   0.18018
 Alpha virt. eigenvalues --    0.18714   0.20110   0.20381   0.20442   0.21663
 Alpha virt. eigenvalues --    0.22346   0.22489   0.23385   0.25030   0.25069

  Beta  occ. eigenvalues --  -18.79613 -18.78593 -14.06725  -9.98448  -9.96620
  Beta  occ. eigenvalues --   -9.94912  -9.94505  -9.93441  -9.93363  -9.92624
  Beta  occ. eigenvalues --   -9.92568  -9.92562  -9.91698  -9.91381  -9.91066
  Beta  occ. eigenvalues --   -9.90873  -9.90863  -9.90680  -0.71553  -0.70304
  Beta  occ. eigenvalues --   -0.68197  -0.60235  -0.58602  -0.52691  -0.50351
  Beta  occ. eigenvalues --   -0.50064  -0.48271  -0.44578  -0.40946  -0.38083
  Beta  occ. eigenvalues --   -0.36782  -0.33056  -0.30840  -0.28661  -0.27639
  Beta  occ. eigenvalues --   -0.25509  -0.22960  -0.21928  -0.21797  -0.20766
  Beta  occ. eigenvalues --   -0.20408  -0.18736  -0.17760  -0.16514  -0.15079
  Beta  occ. eigenvalues --   -0.15026  -0.13984  -0.13048  -0.12505  -0.11877
  Beta  occ. eigenvalues --   -0.10371  -0.09335  -0.09177  -0.07865  -0.07467
  Beta  occ. eigenvalues --   -0.04605  -0.00468   0.00618   0.01081   0.02568
  Beta  occ. eigenvalues --    0.03908   0.04538   0.12764
  Beta virt. eigenvalues --    0.14355   0.15864   0.16659   0.17618   0.18018
  Beta virt. eigenvalues --    0.18714   0.20110   0.20381   0.20442   0.21663
  Beta virt. eigenvalues --    0.22346   0.22489   0.23385   0.25030   0.25069

 Mulliken charges and spin densities:
               1          2
     1  C    0.482390   0.000000
     2  N   -0.339351  -0.000000
     3  C   -0.004169  -0.000000
     4  C   -0.025289   0.000000
     5  C   -0.350608   0.000000
     6  C   -0.050318   0.000000
     7  C    0.666259   0.000000
     8  C   -0.859696   0.000000
     9  O   -0.485283   0.000000
    10  C    0.294885   0.000000
    11  C   -0.064912  -0.000000
    12  C   -0.406420   0.000000
    13  C   -0.522905   0.000000
    14  C   -0.037940  -0.000000
    15  C    0.201183   0.000000
    16  C   -0.494685   0.000000
    17  O   -0.502943   0.000000
    18  C    0.050362  -0.000000
    19  H   -0.212510  -0.000000
    20  H   -0.059719  -0.000000
    21  H   -0.387714  -0.000000
    22  H    0.460590   0.000000
    23  H    0.069309  -0.000000
    24  H    0.051125  -0.000000
    25  H    0.128409   0.000000
    26  H    0.124079  -0.000000
    27  H    0.074988  -0.000000
    28  H    0.076586   0.000000
    29  H    0.124301  -0.000000
 Sum of Mulliken charges =  -2.00000   0.00000

 Dipole moment (field-independent basis, Debye):
    X=              1.3984    Y=              1.7575    Z=             -0.7897  Tot=              2.3807
 Quadrupole moment (field-independent basis, Debye-Ang):
   XX=           -190.5212   YY=           -157.8876   ZZ=           -140.7083
   XY=             -9.8944   XZ=             18.1303   YZ=             21.8338

  Exact polarizability:1797.161 421.026 680.986-565.601-331.967 569.884
 Approx polarizability:3561.730 936.195 964.674********-635.235 989.370

                      1                      2                      3
                      A                      A                      A
 Frequencies --     53.0689                66.3136                99.9904
 Red. masses --      4.7659                 4.7883                 3.9833
 Frc consts  --      0.0079                 0.0124                 0.0235
 IR Inten    --      3.4594                 2.1845                13.0388

                      4                      5                      6
                      A                      A                      A
 Frequencies --    134.2978               169.3497               176.6759
 Red. masses --      4.4745                 4.5589                 3.7366
 Frc consts  --      0.0475                 0.0770                 0.0687
 IR Inten    --      3.8888                 7.5910                55.5905

                      7                      8                      9
                      A                      A                      A
 Frequencies --    192.6465               233.9085               267.1272
 Red. masses --      2.0216                 1.8751                 4.0244
 Frc consts  --      0.0442                 0.0604                 0.1692
 IR Inten    --      1.7120                 4.7473                13.2756

                     10                     11                     12
                      A                      A                      A
 Frequencies --    287.5554               321.5074               335.8852
 Red. masses --      4.2413                 4.4014                 8.3402
 Frc consts  --      0.2066                 0.2681                 0.5544
 IR Inten    --     12.2594               185.2777                27.0431

                     13                     14                     15
                      A                      A                      A
 Frequencies --    377.8046               396.9098               415.8140
 Red. masses --      7.2797                 7.4477                12.2408
 Frc consts  --      0.6122                 0.6913                 1.2470
 IR Inten    --     26.7155                 2.2629                99.9094

                     16                     17                     18
                      A                      A                      A
 Frequencies --    441.9548               479.2626               483.0948
 Red. masses --      3.3137                 7.5303                 8.7394
 Frc consts  --      0.3813                 1.0191                 1.2017
 IR Inten    --      2.9341               305.5908               619.8405

                     19                     20                     21
                      A                      A                      A
 Frequencies --    493.5413               566.8081               588.2012
 Red. masses --      4.3965                 4.0813                 5.8646
 Frc consts  --      0.6310                 0.7725                 1.1955
 IR Inten    --     19.9024                19.5240                53.2431

                     22                     23                     24
                      A                      A                      A
 Frequencies --    616.1344               632.2800               662.9373
 Red. masses --      4.9244                 3.7644                 5.5639
 Frc consts  --      1.1014                 0.8867                 1.4407
 IR Inten    --     34.7952                 6.6570                62.6968

                     25                     26                     27
                      A                      A                      A
 Frequencies --    687.5696               694.2655               707.8881
 Red. masses --      1.8693                 6.2101                 1.5013
 Frc consts  --      0.5207                 1.7636                 0.4432
 IR Inten    --     79.2957                52.8275                 3.1640

                     28                     29                     30
                      A                      A                      A
 Frequencies --    740.2796               751.3900               783.2547
 Red. masses --      2.1703                 2.1496                 2.4254
 Frc consts  --      0.7007                 0.7150                 0.8767
 IR Inten    --     20.5690                14.6436                 2.3218

                     31                     32                     33
                      A                      A                      A
 Frequencies --    790.8170               792.6891               829.5705
 Red. masses --      5.2216                 1.5666                 4.5461
 Frc consts  --      1.9240                 0.5800                 1.8433
 IR Inten    --     10.5863                 8.6001                 0.3651

                     34                     35                     36
                      A                      A                      A
 Frequencies --    853.2556               873.7446               929.9122
 Red. masses --      2.6988                 1.5253                 6.1892
 Frc consts  --      1.1576                 0.6861                 3.1533
 IR Inten    --     50.7888                29.9535                10.4486

                     37                     38                     39
                      A                      A                      A
 Frequencies --    932.2218               953.2584               958.6336
 Red. masses --      1.2527                 1.2302                 1.3658
 Frc consts  --      0.6414                 0.6586                 0.7395
 IR Inten    --      3.2633                 1.1226                 4.7521

                     40                     41                     42
                      A                      A                      A
 Frequencies --    986.1392              1013.4823              1065.3673
 Red. masses --      4.8238                 2.0752                 2.1066
 Frc consts  --      2.7638                 1.2558                 1.4087
 IR Inten    --    101.9590               470.5626               188.3079

                     43                     44                     45
                      A                      A                      A
 Frequencies --   1093.9309              1106.3794              1127.0772
 Red. masses --      2.2257                 1.9203                 1.4170
 Frc consts  --      1.5693                 1.3849                 1.0605
 IR Inten    --     30.6390                36.9132               218.2747

                     46                     47                     48
                      A                      A                      A
 Frequencies --   1140.3638              1150.3345              1169.3965
 Red. masses --      1.3079                 2.0604                 1.8544
 Frc consts  --      1.0021                 1.6064                 1.4941
 IR Inten    --     34.0703                11.2524                99.8681

                     49                     50                     51
                      A                      A                      A
 Frequencies --   1174.3618              1187.7798              1226.3861
 Red. masses --      1.5256                 2.0680                 2.9078
 Frc consts  --      1.2397                 1.7189                 2.5767
 IR Inten    --     31.1955               693.4991               134.6925

                     52                     53                     54
                      A                      A                      A
 Frequencies --   1242.2426              1250.6302              1324.5330
 Red. masses --      2.2924                 3.3022                 4.0736
 Frc consts  --      2.0842                 3.0431                 4.2107
 IR Inten    --     50.6414              2832.3477              1384.6565

                     55                     56                     57
                      A                      A                      A
 Frequencies --   1340.5038              1354.6303              1379.0640
 Red. masses --      2.7576                 6.2279                 3.2546
 Frc consts  --      2.9195                 6.7334                 3.6468
 IR Inten    --    237.7903               164.9005               190.1514

                     58                     59                     60
                      A                      A                      A
 Frequencies --   1408.1842              1433.5326              1444.8212
 Red. masses --      2.9679                 3.7954                 1.4353
 Frc consts  --      3.4675                 4.5954                 1.7653
 IR Inten    --     39.7203              2788.5732              1114.8548

                     61                     62                     63
                      A                      A                      A
 Frequencies --   1462.9544              1463.9777              1482.4096
 Red. masses --      1.2344                 1.8315                 4.1618
 Frc consts  --      1.5566                 2.3127                 5.3885
 IR Inten    --    298.2402               317.8581               421.1796

                     64                     65                     66
                      A                      A                      A
 Frequencies --   1491.3874              1506.0163              1530.4308
 Red. masses --      4.2701                 1.1275                 4.5216
 Frc consts  --      5.5958                 1.5066                 6.2398
 IR Inten    --    478.5863               406.0531                14.7254

                     67                     68                     69
                      A                      A                      A
 Frequencies --   1549.6776              1572.6036              1586.1656
 Red. masses --      4.1173                 3.1584                 5.2138
 Frc consts  --      5.8256                 4.6021                 7.7286
 IR Inten    --   4104.4163               326.2838                96.5928

                     70                     71                     72
                      A                      A                      A
 Frequencies --   1614.5520              2865.3611              2923.9119
 Red. masses --      2.2758                 1.0643                 1.0783
 Frc consts  --      3.4954                 5.1485                 5.4312
 IR Inten    --    122.7699               129.7792               618.4418

                     73                     74                     75
                      A                      A                      A
 Frequencies --   3043.4626              3051.2033              3090.9536
 Red. masses --      1.0903                 1.0873                 1.0826
 Frc consts  --      5.9504                 5.9643                 6.0939
 IR Inten    --    475.1005               962.1795                37.2623

                     76                     77                     78
                      A                      A                      A
 Frequencies --   3096.0031              3114.6699              3154.4005
 Red. masses --      1.0855                 1.0906                 1.0889
 Frc consts  --      6.1303                 6.2337                 6.3837
 IR Inten    --     67.8872               309.9901                64.1544

                     79                     80                     81
                      A                      A                      A
 Frequencies --   3157.3583              3164.1038              3171.7757
 Red. masses --      1.0906                 1.0909                 1.0908
 Frc consts  --      6.4059                 6.4345                 6.4654
 IR Inten    --    111.4217               119.6464                78.0417

 - Thermochemistry -
 -------------------
 Temperature   298.150 Kelvin.  Pressure   1.00000 Atm.
 Atom     1 has atomic number  6 and mass  12.00000

 Molecular mass:   237.07898 amu.
 Principal axes and moments of inertia in atomic units:
                           1         2         3
     Eigenvalues --  2358.010195300.911997642.12909
           X            0.99426  -0.01241   0.10625
           Y           -0.04304   0.86287   0.50359
           Z           -0.09793  -0.50527   0.85739
 This molecule is an asymmetric top.
 Rotational symmetry number  1.
 Warning -- assumption of classical behavior for rotation
           may cause significant error
 Rotational temperatures (Kelvin)      0.03673     0.01634     0.01133
 Rotational constants (GHZ):           0.76537     0.34046     0.23616
 Zero-point vibrational energy     571123.2 (Joules/Mol)
                                  136.50172 (Kcal/Mol)
 Warning -- explicit consideration of  22 degrees of freedom as
           vibrations may cause significant error
 Vibrational temperatures:     76.35    95.41   143.86   193.22   243.66
          (Kelvin)            254.20   277.18   336.54   384.34   413.73
                              462.58   483.26   543.58   571.06   598.26
                              635.87   689.55   695.07   710.10   815.51
                              846.29   886.48   909.71   953.82   989.26
                              998.89  1018.49  1065.10  1081.08  1126.93
                             1137.81  1140.50  1193.57  1227.64  1257.12
                             1337.94  1341.26  1371.53  1379.26  1418.83
                             1458.18  1532.83  1573.92  1591.83  1621.61
                             1640.73  1655.07  1682.50  1689.64  1708.95
                             1764.50  1787.31  1799.38  1905.71  1928.69
                             1949.01  1984.17  2026.06  2062.53  2078.78
                             2104.87  2106.34  2132.86  2145.77  2166.82
                             2201.95  2229.64  2262.63  2282.14  2322.98
                             4122.62  4206.86  4378.86  4390.00  4447.19
                             4454.46  4481.32  4538.48  4542.73  4552.44
                             4563.48

 Zero-point correction=                           0.217529 (Hartree/Particle)
 Thermal correction to Energy=                    0.231613
 Thermal correction to Enthalpy=                  0.232557
 Thermal correction to Gibbs Free Energy=         0.176920
 Sum of electronic and zero-point Energies=           -783.406538
 Sum of electronic and thermal Energies=              -783.392454
 Sum of electronic and thermal Enthalpies=            -783.391510
 Sum of electronic and thermal Free Energies=         -783.447147

                     E (Thermal)             CV                S
                      KCal/Mol        Cal/Mol-Kelvin    Cal/Mol-Kelvin
 Total                  145.339             57.057            117.098
 Electronic               0.000              0.000              0.000
 Translational            0.889              2.981             42.291
 Rotational               0.889              2.981             32.924
 Vibrational            143.562             51.096             41.883
 Vibration     1          0.596              1.976              4.700
 Vibration     2          0.598              1.970              4.260
 Vibration     3          0.604              1.949              3.455
 Vibration     4          0.613              1.919              2.884
 Vibration     5          0.625              1.880              2.443
 Vibration     6          0.628              1.871              2.363
 Vibration     7          0.635              1.850              2.202
 Vibration     8          0.654              1.789              1.849
 Vibration     9          0.672              1.733              1.615
 Vibration    10          0.685              1.697              1.488
 Vibration    11          0.707              1.632              1.302
 Vibration    12          0.717              1.604              1.232
 Vibration    13          0.748              1.517              1.048
 Vibration    14          0.763              1.477              0.974
 Vibration    15          0.779              1.436              0.906
 Vibration    16          0.802              1.379              0.820
 Vibration    17          0.836              1.296              0.712
 Vibration    18          0.839              1.288              0.702
 Vibration    19          0.849              1.264              0.674
 Vibration    20          0.923              1.103              0.510
 Vibration    21          0.945              1.057              0.470
 Vibration    22          0.976              0.998              0.423

 Optimization completed.
    -- Stationary point found.
 Normal termination of Gaussian 16 at Wed Dec 27 21:43:10 2023.
