 Gaussian 16, Revision A.03,
 Gaussian 16:  ES64L-G16RevA.03 25-Dec-2016

 ----------------------------------------------------------------------
 #P UB3LYP/6-311++G(d,p) nosym opt freq SCRF=(PCM,Solvent=n,n-DiMethylF
 ormamide)
 ----------------------------------------------------------------------

 -------
 Reduced
 -------
 Symbolic Z-matrix:
 Charge = -2 Multiplicity = 1

 SCF Done:  E(UB3LYP) =  -799.949053466     A.U. after   16 cycles
 SCF Done:  E(UB3LYP) =  -799.949623675     A.U. after   12 cycles
 SCF Done:  E(UB3LYP) =  -799.950299150     A.U. after   12 cycles
 SCF Done:  E(UB3LYP) =  -799.950429911     A.U. after   12 cycles
 SCF Done:  E(UB3LYP) =  -799.950468383     A.U. after   12 cycles
 SCF Done:  E(UB3LYP) =  -799.950524725     A.U. after   11 cycles
 SCF Done:  E(UB3LYP) =  -799.950531771     A.U. after   11 cycles
 SCF Done:  E(UB3LYP) =  -799.950534141     A.U. after   11 cycles
 SCF Done:  E(UB3LYP) =  -799.950534340     A.U. after    9 cycles
 Optimization completed.
    -- Stationary point found.
 Normal termination of Gaussian 16 at Sat Feb 10 18:36:04 2024.

 ----------------------------------------------------------------------
 #P Geom=AllCheck Guess=TCheck SCRF=Check GenChk UB3LYP/6-311++G(d,p) F
 req
 ----------------------------------------------------------------------

 Structure from the checkpoint file:  "167-an.chk"
 -------
 Reduced
 -------
 Charge = -2 Multiplicity = 1

                          Input orientation:
 ---------------------------------------------------------------------
 Center     Atomic      Atomic             Coordinates (Angstroms)
 Number     Number       Type             X           Y           Z
 ---------------------------------------------------------------------
      1          7           0        3.569157   -1.261403    0.210652
      2          6           0        2.878516   -0.080382   -0.064369
      3          6           0        3.576719    1.093141   -0.315381
      4          6           0        2.889947    2.317995   -0.501395
      5          6           0        1.519311    2.363935   -0.427519
      6          6           0        0.748378    1.185299   -0.187388
      7          6           0       -0.682194    1.303189   -0.133255
      8          8           0       -1.257432    2.473747   -0.318435
      9          6           0       -1.423932    0.096131    0.108682
     10          6           0       -2.869293    0.101246    0.230416
     11          7           0       -3.541410    1.323256    0.278906
     12          6           0       -3.574945   -1.087994    0.352998
     13          6           0       -2.895882   -2.330112    0.404022
     14          6           0       -1.524712   -2.375214    0.340240
     15          6           0       -0.747972   -1.184890    0.195652
     16          6           0        0.681520   -1.305291    0.120888
     17          8           0        1.249360   -2.492872    0.169591
     18          6           0        1.428570   -0.086255   -0.026440
     19          1           0        2.946465   -2.076403    0.132503
     20          1           0        4.485492   -1.335052   -0.208945
     21          1           0        4.662719    1.065064   -0.342424
     22          1           0        3.460177    3.223212   -0.691190
     23          1           0        0.982563    3.295915   -0.553121
     24          1           0       -4.498350    1.304404   -0.045207
     25          1           0       -2.941173    2.084942   -0.064085
     26          1           0       -4.657835   -1.052513    0.436670
     27          1           0       -3.471147   -3.246225    0.506002
     28          1           0       -0.992621   -3.316875    0.391938
 ---------------------------------------------------------------------

 SCF Done:  E(UB3LYP) =  -799.950534340     A.U. after    1 cycles

 Alpha  occ. eigenvalues --  -19.02105 -19.02103 -14.27988 -14.27979 -10.18839
 Alpha  occ. eigenvalues --  -10.18833 -10.17463 -10.17460 -10.14441 -10.14439
 Alpha  occ. eigenvalues --  -10.13990 -10.13988 -10.13417 -10.13416 -10.13352
 Alpha  occ. eigenvalues --  -10.13348 -10.13130 -10.13130  -0.93672  -0.93246
 Alpha  occ. eigenvalues --   -0.88346  -0.88160  -0.81181  -0.79822  -0.74972
 Alpha  occ. eigenvalues --   -0.70452  -0.70236  -0.69455  -0.63463  -0.60354
 Alpha  occ. eigenvalues --   -0.59459  -0.55060  -0.52545  -0.52456  -0.49341
 Alpha  occ. eigenvalues --   -0.47825  -0.46713  -0.44870  -0.43791  -0.42553
 Alpha  occ. eigenvalues --   -0.42214  -0.40217  -0.40019  -0.38474  -0.37484
 Alpha  occ. eigenvalues --   -0.35954  -0.35705  -0.35679  -0.34658  -0.32763
 Alpha  occ. eigenvalues --   -0.32458  -0.32044  -0.31448  -0.30296  -0.28215
 Alpha  occ. eigenvalues --   -0.27333  -0.22389  -0.21401  -0.20469  -0.19799
 Alpha  occ. eigenvalues --   -0.18739  -0.18311  -0.10554
 Alpha virt. eigenvalues --   -0.01273   0.00101   0.00458   0.00724   0.01247
 Alpha virt. eigenvalues --    0.02251   0.02404   0.03241   0.04307   0.04497
 Alpha virt. eigenvalues --    0.04565   0.04948   0.06199   0.06805   0.06833

  Beta  occ. eigenvalues --  -19.02105 -19.02103 -14.27988 -14.27979 -10.18839
  Beta  occ. eigenvalues --  -10.18833 -10.17463 -10.17460 -10.14441 -10.14439
  Beta  occ. eigenvalues --  -10.13990 -10.13988 -10.13417 -10.13416 -10.13352
  Beta  occ. eigenvalues --  -10.13348 -10.13130 -10.13130  -0.93672  -0.93246
  Beta  occ. eigenvalues --   -0.88346  -0.88160  -0.81181  -0.79822  -0.74972
  Beta  occ. eigenvalues --   -0.70452  -0.70236  -0.69455  -0.63463  -0.60354
  Beta  occ. eigenvalues --   -0.59459  -0.55060  -0.52545  -0.52456  -0.49341
  Beta  occ. eigenvalues --   -0.47825  -0.46713  -0.44870  -0.43791  -0.42553
  Beta  occ. eigenvalues --   -0.42214  -0.40217  -0.40019  -0.38474  -0.37484
  Beta  occ. eigenvalues --   -0.35954  -0.35705  -0.35679  -0.34658  -0.32763
  Beta  occ. eigenvalues --   -0.32458  -0.32044  -0.31448  -0.30296  -0.28215
  Beta  occ. eigenvalues --   -0.27333  -0.22389  -0.21401  -0.20469  -0.19799
  Beta  occ. eigenvalues --   -0.18739  -0.18311  -0.10554
  Beta virt. eigenvalues --   -0.01273   0.00101   0.00458   0.00724   0.01247
  Beta virt. eigenvalues --    0.02251   0.02404   0.03241   0.04307   0.04497
  Beta virt. eigenvalues --    0.04565   0.04948   0.06199   0.06805   0.06833

 Mulliken charges and spin densities:
               1          2
     1  N   -0.442174   0.000000
     2  C    0.002712  -0.000000
     3  C   -0.270153  -0.000000
     4  C   -0.439871  -0.000000
     5  C   -0.316237   0.000000
     6  C    0.502496   0.000000
     7  C   -0.679290  -0.000000
     8  O   -0.652185   0.000000
     9  C    0.312611   0.000000
    10  C    0.002914  -0.000000
    11  N   -0.442647   0.000000
    12  C   -0.270012   0.000000
    13  C   -0.439429   0.000000
    14  C   -0.316930   0.000000
    15  C    0.502710   0.000000
    16  C   -0.679338  -0.000000
    17  O   -0.652247   0.000000
    18  C    0.312978   0.000000
    19  H    0.306640   0.000000
    20  H    0.246008  -0.000000
    21  H    0.131846  -0.000000
    22  H    0.155190   0.000000
    23  H    0.142335   0.000000
    24  H    0.245915  -0.000000
    25  H    0.306842   0.000000
    26  H    0.131800   0.000000
    27  H    0.155183  -0.000000
    28  H    0.142334   0.000000
 Sum of Mulliken charges =  -2.00000   0.00000

 Dipole moment (field-independent basis, Debye):
    X=             -0.0912    Y=             -0.2119    Z=             -1.7002  Tot=              1.7158
 Quadrupole moment (field-independent basis, Debye-Ang):
   XX=           -133.0756   YY=           -158.9611   ZZ=           -122.1163
   XY=              7.4086   XZ=             -0.2893   YZ=              4.3158

  Exact polarizability: 541.320  55.030 434.867 -27.403 -36.334 177.161
 Approx polarizability: 589.095  48.100 514.854 -28.200 -43.970 194.511

                      1                      2                      3
                      A                      A                      A
 Frequencies --     50.5629                67.3425               101.0148
 Red. masses --      6.9993                 4.6866                 6.8188
 Frc consts  --      0.0105                 0.0125                 0.0410
 IR Inten    --     19.9527                 1.3904                 0.4287

                      4                      5                      6
                      A                      A                      A
 Frequencies --    164.1029               199.9248               220.4068
 Red. masses --      6.7636                 4.2338                 4.9245
 Frc consts  --      0.1073                 0.0997                 0.1409
 IR Inten    --      5.3630                 2.8311                26.2370

                      7                      8                      9
                      A                      A                      A
 Frequencies --    226.6500               281.5057               315.0525
 Red. masses --      4.0442                 3.9315                 4.9942
 Frc consts  --      0.1224                 0.1836                 0.2921
 IR Inten    --     16.6354                19.0523                 1.5477

                     10                     11                     12
                      A                      A                      A
 Frequencies --    361.8008               388.6779               394.6981
 Red. masses --      6.1553                 7.1268                 9.9720
 Frc consts  --      0.4747                 0.6343                 0.9153
 IR Inten    --      5.9351                 2.8712                 1.3781

                     13                     14                     15
                      A                      A                      A
 Frequencies --    416.2867               420.9482               434.5525
 Red. masses --      5.1153                 2.6238                 1.2226
 Frc consts  --      0.5223                 0.2739                 0.1360
 IR Inten    --     60.9636               128.6521               141.1832

                     16                     17                     18
                      A                      A                      A
 Frequencies --    444.2944               455.0696               494.5071
 Red. masses --      1.7127                 4.5432                 4.1411
 Frc consts  --      0.1992                 0.5543                 0.5966
 IR Inten    --    475.2227                 8.0203                 4.8796

                     19                     20                     21
                      A                      A                      A
 Frequencies --    509.4180               530.7587               544.0291
 Red. masses --      7.4252                 4.7151                 4.3352
 Frc consts  --      1.1353                 0.7826                 0.7560
 IR Inten    --      0.5786                10.8351                 5.7557

                     22                     23                     24
                      A                      A                      A
 Frequencies --    585.0211               587.7723               594.2958
 Red. masses --      4.4447                 5.7284                 5.5648
 Frc consts  --      0.8963                 1.1660                 1.1580
 IR Inten    --     18.7258                 0.4761                72.6636

                     25                     26                     27
                      A                      A                      A
 Frequencies --    655.7289               696.4327               700.4947
 Red. masses --      3.4643                 3.4409                 2.7004
 Frc consts  --      0.8776                 0.9833                 0.7807
 IR Inten    --      2.7875                72.6743               104.0743

                     28                     29                     30
                      A                      A                      A
 Frequencies --    738.3512               741.2472               766.4031
 Red. masses --      1.3749                 2.6783                 2.2991
 Frc consts  --      0.4416                 0.8670                 0.7957
 IR Inten    --     24.5513                84.5859               222.4205

                     31                     32                     33
                      A                      A                      A
 Frequencies --    774.7686               787.8113               794.9956
 Red. masses --      2.1205                 1.9268                 1.7605
 Frc consts  --      0.7499                 0.7046                 0.6556
 IR Inten    --     55.1479               196.8525               146.2348

                     34                     35                     36
                      A                      A                      A
 Frequencies --    821.5277               826.8599               831.6332
 Red. masses --      4.9421                 1.6095                 1.6627
 Frc consts  --      1.9652                 0.6483                 0.6775
 IR Inten    --     28.3822                11.3327                 5.6531

                     37                     38                     39
                      A                      A                      A
 Frequencies --    843.7497               910.6060               949.4390
 Red. masses --      6.9012                 4.8438                 1.2538
 Frc consts  --      2.8947                 2.3665                 0.6659
 IR Inten    --    125.1335                16.4694                 1.1113

                     40                     41                     42
                      A                      A                      A
 Frequencies --    950.7480               978.8705              1022.2156
 Red. masses --      1.2500                 4.3476                 5.8144
 Frc consts  --      0.6657                 2.4544                 3.5796
 IR Inten    --      1.1119                 2.6597               798.9472

                     43                     44                     45
                      A                      A                      A
 Frequencies --   1056.5591              1062.2557              1119.8251
 Red. masses --      1.8944                 2.1028                 1.5565
 Frc consts  --      1.2460                 1.3980                 1.1500
 IR Inten    --    226.2365                 2.8908               490.1939

                     46                     47                     48
                      A                      A                      A
 Frequencies --   1146.9126              1151.1911              1161.5845
 Red. masses --      1.6519                 2.1098                 1.5921
 Frc consts  --      1.2803                 1.6474                 1.2657
 IR Inten    --    651.9739                 1.1993                 2.4979

                     49                     50                     51
                      A                      A                      A
 Frequencies --   1176.6153              1219.4086              1247.5078
 Red. masses --      1.2555                 2.4926                 3.2291
 Frc consts  --      1.0241                 2.1838                 2.9609
 IR Inten    --      5.4176               331.2696                44.5775

                     52                     53                     54
                      A                      A                      A
 Frequencies --   1252.0030              1286.3316              1300.1480
 Red. masses --      2.8637                 5.0994                 3.5344
 Frc consts  --      2.6448                 4.9713                 3.5201
 IR Inten    --    355.2900                 2.9815                 0.1732

                     55                     56                     57
                      A                      A                      A
 Frequencies --   1347.4419              1355.7198              1390.5432
 Red. masses --      4.0210                 5.6260                 2.1183
 Frc consts  --      4.3013                 6.0924                 2.4133
 IR Inten    --    639.8366              1537.0533                 2.4485

                     58                     59                     60
                      A                      A                      A
 Frequencies --   1421.2977              1441.6469              1462.2819
 Red. masses --      7.1338                 2.3872                 3.0141
 Frc consts  --      8.4907                 2.9232                 3.7973
 IR Inten    --      1.4012                 9.9698               521.4573

                     61                     62                     63
                      A                      A                      A
 Frequencies --   1470.3490              1498.3812              1534.2222
 Red. masses --      2.5615                 5.2328                 4.2238
 Frc consts  --      3.2628                 6.9219                 5.8578
 IR Inten    --      3.9842                 0.1079               732.0750

                     64                     65                     66
                      A                      A                      A
 Frequencies --   1574.0373              1575.8850              1585.4427
 Red. masses --      1.3316                 1.3669                 6.1588
 Frc consts  --      1.9439                 2.0001                 9.1210
 IR Inten    --    574.9746                 1.2063                 1.4074

                     67                     68                     69
                      A                      A                      A
 Frequencies --   1605.5128              1607.2950              3128.9560
 Red. masses --      4.3441                 4.3661                 1.0851
 Frc consts  --      6.5974                 6.6456                 6.2591
 IR Inten    --      2.1311               223.2107                89.2006

                     70                     71                     72
                      A                      A                      A
 Frequencies --   3129.3375              3147.0808              3147.3422
 Red. masses --      1.0852                 1.0920                 1.0919
 Frc consts  --      6.2614                 6.3723                 6.3726
 IR Inten    --     26.1143               125.0569                37.5289

                     73                     74                     75
                      A                      A                      A
 Frequencies --   3187.0334              3187.7807              3237.0118
 Red. masses --      1.0908                 1.0909                 1.0686
 Frc consts  --      6.5278                 6.5312                 6.5970
 IR Inten    --     71.1347                17.0510               727.8169

                     76                     77                     78
                      A                      A                      A
 Frequencies --   3237.7394              3602.6406              3602.6833
 Red. masses --      1.0684                 1.0825                 1.0826
 Frc consts  --      6.5987                 8.2781                 8.2785
 IR Inten    --    181.7360                58.8456                 3.2495

 - Thermochemistry -
 -------------------
 Temperature   298.150 Kelvin.  Pressure   1.00000 Atm.
 Atom     1 has atomic number  7 and mass  14.00307

 Molecular mass:   238.07423 amu.
 Principal axes and moments of inertia in atomic units:
                           1         2         3
     Eigenvalues --  2359.225854988.839037332.56017
           X            0.98249  -0.17809   0.05474
           Y            0.17021   0.97745   0.12496
           Z           -0.07576  -0.11345   0.99065
 This molecule is an asymmetric top.
 Rotational symmetry number  1.
 Warning -- assumption of classical behavior for rotation
           may cause significant error
 Rotational temperatures (Kelvin)      0.03671     0.01736     0.01181
 Rotational constants (GHZ):           0.76497     0.36176     0.24613
 Zero-point vibrational energy     545727.9 (Joules/Mol)
                                  130.43210 (Kcal/Mol)
 Warning -- explicit consideration of  24 degrees of freedom as
           vibrations may cause significant error
 Vibrational temperatures:     72.75    96.89   145.34   236.11   287.65
          (Kelvin)            317.12   326.10   405.02   453.29   520.55
                              559.22   567.88   598.94   605.65   625.22
                              639.24   654.74   711.49   732.94   763.64
                              782.74   841.71   845.67   855.06   943.45
                             1002.01  1007.86  1062.32  1066.49  1102.68
                             1114.72  1133.48  1143.82  1182.00  1189.67
                             1196.53  1213.97  1310.16  1366.03  1367.91
                             1408.38  1470.74  1520.15  1528.35  1611.18
                             1650.15  1656.31  1671.26  1692.89  1754.46
                             1794.89  1801.35  1850.74  1870.62  1938.67
                             1950.58  2000.68  2044.93  2074.21  2103.90
                             2115.50  2155.84  2207.40  2264.69  2267.35
                             2281.10  2309.97  2312.54  4501.87  4502.42
                             4527.95  4528.32  4585.43  4586.51  4657.34
                             4658.38  5183.40  5183.46

 Zero-point correction=                           0.207857 (Hartree/Particle)
 Thermal correction to Energy=                    0.221530
 Thermal correction to Enthalpy=                  0.222474
 Thermal correction to Gibbs Free Energy=         0.168043
 Sum of electronic and zero-point Energies=           -799.742678
 Sum of electronic and thermal Energies=              -799.729005
 Sum of electronic and thermal Enthalpies=            -799.728061
 Sum of electronic and thermal Free Energies=         -799.782492

                     E (Thermal)             CV                S
                      KCal/Mol        Cal/Mol-Kelvin    Cal/Mol-Kelvin
 Total                  139.012             57.187            114.560
 Electronic               0.000              0.000              0.000
 Translational            0.889              2.981             42.304
 Rotational               0.889              2.981             32.823
 Vibrational            137.234             51.225             39.434
 Vibration     1          0.595              1.977              4.795
 Vibration     2          0.598              1.970              4.230
 Vibration     3          0.604              1.948              3.435
 Vibration     4          0.623              1.887              2.502
 Vibration     5          0.638              1.840              2.134
 Vibration     6          0.647              1.810              1.956
 Vibration     7          0.650              1.800              1.905
 Vibration     8          0.681              1.708              1.525
 Vibration     9          0.702              1.645              1.336
 Vibration    10          0.736              1.551              1.114
 Vibration    11          0.757              1.494              1.005
 Vibration    12          0.762              1.482              0.982
 Vibration    13          0.780              1.435              0.905
 Vibration    14          0.783              1.425              0.889
 Vibration    15          0.795              1.395              0.844
 Vibration    16          0.804              1.373              0.813
 Vibration    17          0.813              1.350              0.781
 Vibration    18          0.850              1.262              0.672
 Vibration    19          0.865              1.229              0.635
 Vibration    20          0.886              1.182              0.586
 Vibration    21          0.899              1.153              0.557
 Vibration    22          0.942              1.064              0.476
 Vibration    23          0.945              1.058              0.471
 Vibration    24          0.952              1.044              0.460

                           ! Non-Optimized Parameters !
 Normal termination of Gaussian 16 at Sat Feb 10 19:14:54 2024.
