 Gaussian 16, Revision A.03,
 Gaussian 16:  ES64L-G16RevA.03 25-Dec-2016

 ----------------------------------------------------------------
 #P UB3LYP/6-311++G(d,p) SCRF=(PCM,Solvent=n,n-DiMethylFormamide)
 ----------------------------------------------------------------

 ------------------
 Quinone PCM in DMF
 ------------------
 Symbolic Z-matrix:
 Charge =  0 Multiplicity = 1

                         Standard orientation:
 ---------------------------------------------------------------------
 Center     Atomic      Atomic             Coordinates (Angstroms)
 Number     Number       Type             X           Y           Z
 ---------------------------------------------------------------------
      1          6           0       -4.042330    0.706098    0.001090
      2         16           0       -2.995655   -0.783959    0.000216
      3          6           0       -1.383029   -0.092313   -0.000251
      4          6           0       -1.063706    1.223150   -0.000372
      5          6           0        0.322860    1.707877   -0.000473
      6          8           0        0.565529    2.907336   -0.000635
      7          6           0        1.415301    0.688831   -0.000212
      8          6           0        2.748946    1.099285    0.000183
      9          6           0        3.768581    0.152034    0.000665
     10          6           0        3.461975   -1.210818    0.000733
     11          6           0        2.135124   -1.627782    0.000277
     12          6           0        1.106683   -0.681185   -0.000200
     13          6           0       -0.307757   -1.144886   -0.000604
     14          8           0       -0.604232   -2.325514   -0.001203
     15          1           0       -3.877956    1.306495    0.896748
     16          1           0       -5.068607    0.338865    0.002086
     17          1           0       -3.879696    1.306429   -0.894932
     18          1           0       -1.811483    2.005787   -0.000342
     19          1           0        2.963860    2.160840    0.000152
     20          1           0        4.803897    0.473606    0.001010
     21          1           0        4.258728   -1.945785    0.001170
     22          1           0        1.875473   -2.679204    0.000347
 ---------------------------------------------------------------------

 SCF Done:  E(UB3LYP) =  -972.813301319     A.U. after   16 cycles

 The electronic state is 1-A.
 Alpha  occ. eigenvalues --  -88.88142 -19.14492 -19.13169 -10.29630 -10.28270
 Alpha  occ. eigenvalues --  -10.24711 -10.21227 -10.21050 -10.20790 -10.20504
 Alpha  occ. eigenvalues --  -10.20172 -10.20109 -10.19989 -10.19969  -7.96700
 Alpha  occ. eigenvalues --   -5.93074  -5.92652  -5.92165  -1.08068  -1.06408
 Alpha  occ. eigenvalues --   -0.89474  -0.86333  -0.80729  -0.78181  -0.76757
 Alpha  occ. eigenvalues --   -0.71395  -0.67396  -0.65184  -0.61810  -0.59161
 Alpha  occ. eigenvalues --   -0.54975  -0.53215  -0.50547  -0.48978  -0.46697
 Alpha  occ. eigenvalues --   -0.46238  -0.46185  -0.45459  -0.44382  -0.44274
 Alpha  occ. eigenvalues --   -0.43017  -0.42344  -0.40841  -0.38546  -0.38419
 Alpha  occ. eigenvalues --   -0.37364  -0.35370  -0.33475  -0.29570  -0.28793
 Alpha  occ. eigenvalues --   -0.28171  -0.27928  -0.24839
 Alpha virt. eigenvalues --   -0.12862  -0.05919  -0.03579  -0.00906  -0.00240
 Alpha virt. eigenvalues --    0.01069   0.01474   0.02037   0.02041   0.02917
 Alpha virt. eigenvalues --    0.03382   0.04121   0.04343   0.04879   0.05227

  Beta  occ. eigenvalues --  -88.88142 -19.14492 -19.13169 -10.29630 -10.28270
  Beta  occ. eigenvalues --  -10.24711 -10.21227 -10.21050 -10.20790 -10.20504
  Beta  occ. eigenvalues --  -10.20172 -10.20109 -10.19989 -10.19969  -7.96700
  Beta  occ. eigenvalues --   -5.93074  -5.92652  -5.92165  -1.08068  -1.06408
  Beta  occ. eigenvalues --   -0.89474  -0.86333  -0.80729  -0.78181  -0.76757
  Beta  occ. eigenvalues --   -0.71395  -0.67396  -0.65184  -0.61810  -0.59161
  Beta  occ. eigenvalues --   -0.54975  -0.53215  -0.50547  -0.48978  -0.46697
  Beta  occ. eigenvalues --   -0.46238  -0.46185  -0.45459  -0.44382  -0.44274
  Beta  occ. eigenvalues --   -0.43017  -0.42344  -0.40841  -0.38546  -0.38419
  Beta  occ. eigenvalues --   -0.37364  -0.35370  -0.33475  -0.29570  -0.28793
  Beta  occ. eigenvalues --   -0.28171  -0.27928  -0.24839
  Beta virt. eigenvalues --   -0.12862  -0.05919  -0.03579  -0.00906  -0.00240
  Beta virt. eigenvalues --    0.01069   0.01474   0.02037   0.02041   0.02917
  Beta virt. eigenvalues --    0.03382   0.04121   0.04343   0.04879   0.05227

 Mulliken charges and spin densities:
               1          2
     1  C   -0.480066   0.000000
     2  S   -0.554401  -0.000000
     3  C    0.957973   0.000000
     4  C    0.791340  -0.000000
     5  C   -0.469446  -0.000000
     6  O   -0.304324  -0.000000
     7  C    0.498201  -0.000000
     8  C    0.306522  -0.000000
     9  C   -0.361975   0.000000
    10  C   -0.416778  -0.000000
    11  C    0.405147  -0.000000
    12  C   -0.130035   0.000000
    13  C   -1.668672  -0.000000
    14  O   -0.224615   0.000000
    15  H    0.203357   0.000000
    16  H    0.215370  -0.000000
    17  H    0.203439   0.000000
    18  H    0.238851  -0.000000
    19  H    0.181019   0.000000
    20  H    0.212246  -0.000000
    21  H    0.206380  -0.000000
    22  H    0.190466   0.000000
 Sum of Mulliken charges =  -0.00000   0.00000

 Dipole moment (field-independent basis, Debye):
    X=              0.1371    Y=              0.2364    Z=              0.0043  Tot=              0.2733
 Quadrupole moment (field-independent basis, Debye-Ang):
   XX=            -58.6332   YY=           -105.0997   ZZ=            -90.1799
   XY=            -12.8104   XZ=             -0.0012   YZ=             -0.0025

 Normal termination of Gaussian 16 at Sun Jan 21 08:07:32 2024.
