 Gaussian 16, Revision A.03,
 Gaussian 16:  ES64L-G16RevA.03 25-Dec-2016

 ----------------------------------------------------------------------
 #P UB3LYP/6-311++G(d,p) nosym opt freq SCRF=(PCM,Solvent=n,n-DiMethylF
 ormamide)
 ----------------------------------------------------------------------

 --------
 Oxidized
 --------
 Symbolic Z-matrix:
 Charge =  0 Multiplicity = 1

 SCF Done:  E(UB3LYP) =  -613.925224747     A.U. after   14 cycles
 SCF Done:  E(UB3LYP) =  -613.925330765     A.U. after   12 cycles
 SCF Done:  E(UB3LYP) =  -613.925344016     A.U. after   11 cycles
 SCF Done:  E(UB3LYP) =  -613.925344651     A.U. after    9 cycles
 Optimization completed.
    -- Stationary point found.
 Normal termination of Gaussian 16 at Sat Feb 10 23:59:26 2024.

 ----------------------------------------------------------------------
 #P Geom=AllCheck Guess=TCheck SCRF=Check GenChk UB3LYP/6-311++G(d,p) F
 req
 ----------------------------------------------------------------------

 Structure from the checkpoint file:  "246.chk"
 --------
 Oxidized
 --------
 Charge =  0 Multiplicity = 1

                          Input orientation:
 ---------------------------------------------------------------------
 Center     Atomic      Atomic             Coordinates (Angstroms)
 Number     Number       Type             X           Y           Z
 ---------------------------------------------------------------------
      1          6           0       -2.801974   -0.878241   -0.963073
      2          6           0       -1.461243   -0.404542   -0.466776
      3          6           0       -0.305731   -1.124404   -0.774613
      4          6           0        0.953006   -0.715595   -0.332204
      5          6           0        2.161205   -1.506979   -0.680073
      6          8           0        2.108516   -2.530359   -1.353229
      7          6           0        3.467019   -1.013395   -0.179277
      8          6           0        3.571430    0.098441    0.560613
      9          6           0        2.388445    0.913217    0.929800
     10          8           0        2.526705    1.924314    1.609375
     11          6           0        1.062651    0.451273    0.444169
     12          6           0       -0.089626    1.174587    0.754375
     13          6           0       -1.350785    0.770088    0.314087
     14          6           0       -2.570724    1.578505    0.669638
     15          1           0       -2.704541   -1.796673   -1.542595
     16          1           0       -3.486651   -1.070284   -0.131111
     17          1           0       -3.278552   -0.123504   -1.596463
     18          1           0       -0.375926   -2.025606   -1.372368
     19          1           0        4.333686   -1.607435   -0.447475
     20          1           0        4.527498    0.456701    0.926018
     21          1           0        0.009243    2.072365    1.353147
     22          1           0       -3.291476    0.979378    1.234848
     23          1           0       -2.304372    2.447662    1.271713
     24          1           0       -3.087802    1.930484   -0.228525
 ---------------------------------------------------------------------

 SCF Done:  E(UB3LYP) =  -613.925344651     A.U. after    1 cycles

 Alpha  occ. eigenvalues --  -19.13706 -19.13706 -10.28557 -10.28556 -10.21305
 Alpha  occ. eigenvalues --  -10.21224 -10.20641 -10.20593 -10.20579 -10.20529
 Alpha  occ. eigenvalues --  -10.19475 -10.19472 -10.17456 -10.17455  -1.06734
 Alpha  occ. eigenvalues --   -1.06550  -0.89369  -0.84710  -0.79874  -0.78905
 Alpha  occ. eigenvalues --   -0.72986  -0.70556  -0.69100  -0.63100  -0.62160
 Alpha  occ. eigenvalues --   -0.59274  -0.53327  -0.51812  -0.51390  -0.47701
 Alpha  occ. eigenvalues --   -0.46164  -0.46163  -0.45685  -0.45100  -0.44146
 Alpha  occ. eigenvalues --   -0.42438  -0.42337  -0.41972  -0.40924  -0.39808
 Alpha  occ. eigenvalues --   -0.39772  -0.36881  -0.36445  -0.36045  -0.31064
 Alpha  occ. eigenvalues --   -0.28995  -0.27945  -0.27377  -0.26640
 Alpha virt. eigenvalues --   -0.12912  -0.05465  -0.03327  -0.00787   0.00277
 Alpha virt. eigenvalues --    0.00913   0.02035   0.02122   0.02509   0.03279
 Alpha virt. eigenvalues --    0.03554   0.04562   0.04580   0.05317   0.05352

  Beta  occ. eigenvalues --  -19.13706 -19.13706 -10.28557 -10.28556 -10.21305
  Beta  occ. eigenvalues --  -10.21224 -10.20641 -10.20593 -10.20579 -10.20529
  Beta  occ. eigenvalues --  -10.19475 -10.19472 -10.17456 -10.17455  -1.06734
  Beta  occ. eigenvalues --   -1.06550  -0.89369  -0.84710  -0.79874  -0.78905
  Beta  occ. eigenvalues --   -0.72986  -0.70556  -0.69100  -0.63100  -0.62160
  Beta  occ. eigenvalues --   -0.59274  -0.53327  -0.51812  -0.51390  -0.47701
  Beta  occ. eigenvalues --   -0.46164  -0.46163  -0.45685  -0.45100  -0.44146
  Beta  occ. eigenvalues --   -0.42438  -0.42337  -0.41972  -0.40924  -0.39808
  Beta  occ. eigenvalues --   -0.39772  -0.36881  -0.36445  -0.36045  -0.31064
  Beta  occ. eigenvalues --   -0.28995  -0.27945  -0.27377  -0.26640
  Beta virt. eigenvalues --   -0.12912  -0.05465  -0.03327  -0.00787   0.00277
  Beta virt. eigenvalues --    0.00913   0.02035   0.02122   0.02509   0.03279
  Beta virt. eigenvalues --    0.03554   0.04562   0.04580   0.05317   0.05352

 Mulliken charges and spin densities:
               1          2
     1  C   -0.493728  -0.000000
     2  C    0.611685  -0.000000
     3  C   -0.193817   0.000000
     4  C    0.042872   0.000000
     5  C   -0.730187  -0.000000
     6  O   -0.289501   0.000000
     7  C    0.153309  -0.000000
     8  C    0.154597  -0.000000
     9  C   -0.730483   0.000000
    10  O   -0.289522  -0.000000
    11  C    0.042091  -0.000000
    12  C   -0.194225   0.000000
    13  C    0.610383  -0.000000
    14  C   -0.493042   0.000000
    15  H    0.179745  -0.000000
    16  H    0.170073  -0.000000
    17  H    0.170763  -0.000000
    18  H    0.143935  -0.000000
    19  H    0.235393  -0.000000
    20  H    0.235430   0.000000
    21  H    0.143722  -0.000000
    22  H    0.170492   0.000000
    23  H    0.179779  -0.000000
    24  H    0.170236   0.000000
 Sum of Mulliken charges =  -0.00000  -0.00000

 Dipole moment (field-independent basis, Debye):
    X=             -3.5677    Y=              0.4707    Z=             -0.2022  Tot=              3.6043
 Quadrupole moment (field-independent basis, Debye-Ang):
   XX=            -68.2138   YY=            -94.3440   ZZ=            -87.8693
   XY=             -3.0006   XZ=              0.0233   YZ=             -8.0590

  Exact polarizability: 258.654  -9.939 213.823  14.946  69.584 152.473
 Approx polarizability: 275.187  -5.665 274.259  17.441  97.311 189.701

                      1                      2                      3
                      A                      A                      A
 Frequencies --     72.3258                76.1896               120.3278
 Red. masses --      5.8555                 4.0566                 3.7276
 Frc consts  --      0.0180                 0.0139                 0.0318
 IR Inten    --     20.2546                 0.0013                 0.2258

                      4                      5                      6
                      A                      A                      A
 Frequencies --    128.8223               173.4605               200.8163
 Red. masses --      1.0390                 1.1245                 5.2442
 Frc consts  --      0.0102                 0.0199                 0.1246
 IR Inten    --      0.0026                 0.9062                 0.7952

                      7                      8                      9
                      A                      A                      A
 Frequencies --    211.9277               270.0459               298.5317
 Red. masses --      3.8315                 3.9157                 2.7180
 Frc consts  --      0.1014                 0.1682                 0.1427
 IR Inten    --      0.0032                 0.0011                 2.7561

                     10                     11                     12
                      A                      A                      A
 Frequencies --    312.3098               348.3778               369.1301
 Red. masses --      3.9500                 7.0300                 4.9512
 Frc consts  --      0.2270                 0.5027                 0.3975
 IR Inten    --      3.2886                14.5662                 0.1153

                     13                     14                     15
                      A                      A                      A
 Frequencies --    437.7019               450.0394               485.6349
 Red. masses --      2.8118                11.5229                 3.8211
 Frc consts  --      0.3174                 1.3750                 0.5310
 IR Inten    --      9.0742                26.4075                 0.0213

                     16                     17                     18
                      A                      A                      A
 Frequencies --    516.1523               567.8464               600.5780
 Red. masses --      7.5519                 4.9037                 5.5370
 Frc consts  --      1.1854                 0.9316                 1.1767
 IR Inten    --     28.6018                 0.0011                 0.1265

                     19                     20                     21
                      A                      A                      A
 Frequencies --    615.5066               632.6311               703.2949
 Red. masses --      2.1136                 3.7284                 3.5699
 Frc consts  --      0.4718                 0.8792                 1.0403
 IR Inten    --      0.0512                 0.9089                 0.0001

                     22                     23                     24
                      A                      A                      A
 Frequencies --    722.8490               770.9364               778.0345
 Red. masses --      6.9767                 4.0109                 6.7191
 Frc consts  --      2.1478                 1.4045                 2.3964
 IR Inten    --      5.1394                 0.0895                 5.2918

                     25                     26                     27
                      A                      A                      A
 Frequencies --    794.8379               860.0917               925.8909
 Red. masses --      6.6427                 1.8659                 1.3559
 Frc consts  --      2.4726                 0.8133                 0.6848
 IR Inten    --      0.0009               101.6414                 0.0017

                     28                     29                     30
                      A                      A                      A
 Frequencies --    929.8590               987.0550              1010.3518
 Red. masses --      1.4531                 4.1536                 1.4329
 Frc consts  --      0.7403                 2.3843                 0.8618
 IR Inten    --      4.4083                25.8039                47.9313

                     31                     32                     33
                      A                      A                      A
 Frequencies --   1016.6682              1037.9120              1045.5821
 Red. masses --      1.2584                 1.6084                 1.4745
 Frc consts  --      0.7664                 1.0209                 0.9498
 IR Inten    --      0.0005                 1.8947                15.4195

                     34                     35                     36
                      A                      A                      A
 Frequencies --   1067.9054              1071.1358              1167.0759
 Red. masses --      1.6470                 2.1646                 1.2889
 Frc consts  --      1.1066                 1.4632                 1.0343
 IR Inten    --      0.0503                86.4455                60.7608

                     37                     38                     39
                      A                      A                      A
 Frequencies --   1175.4353              1236.2332              1243.6416
 Red. masses --      4.2793                 2.2341                 4.7014
 Frc consts  --      3.4835                 2.0117                 4.2842
 IR Inten    --      1.2756                 4.4427                 4.9524

                     40                     41                     42
                      A                      A                      A
 Frequencies --   1273.6037              1321.4889              1353.4195
 Red. masses --      1.3075                 4.8919                 6.1368
 Frc consts  --      1.2495                 5.0333                 6.6231
 IR Inten    --     18.1609               682.7006                45.7503

                     43                     44                     45
                      A                      A                      A
 Frequencies --   1383.8203              1407.0932              1414.9726
 Red. masses --      1.7250                 1.2527                 1.2529
 Frc consts  --      1.9463                 1.4613                 1.4779
 IR Inten    --     10.4385                 0.5951                12.3606

                     46                     47                     48
                      A                      A                      A
 Frequencies --   1429.2953              1468.1258              1481.3871
 Red. masses --      3.4303                 1.0436                 1.0442
 Frc consts  --      4.1288                 1.3253                 1.3501
 IR Inten    --      9.2471                 0.0048                29.9109

                     49                     50                     51
                      A                      A                      A
 Frequencies --   1485.8633              1487.4797              1517.6042
 Red. masses --      1.1310                 1.2710                 3.0476
 Frc consts  --      1.4712                 1.6569                 4.1354
 IR Inten    --      2.1980                 1.3350                 0.4233

                     52                     53                     54
                      A                      A                      A
 Frequencies --   1588.0812              1619.8673              1655.6052
 Red. masses --      7.8968                 6.1548                 9.4155
 Frc consts  --     11.7340                 9.5154                15.2058
 IR Inten    --      6.2420               560.4082               124.8206

                     55                     56                     57
                      A                      A                      A
 Frequencies --   1694.3396              1699.6218              3025.4166
 Red. masses --     10.6545                 9.0471                 1.0379
 Frc consts  --     18.0213                15.3980                 5.5973
 IR Inten    --    818.6630                48.8273                49.1456

                     58                     59                     60
                      A                      A                      A
 Frequencies --   3026.0979              3070.4570              3073.6446
 Red. masses --      1.0386                 1.0995                 1.0997
 Frc consts  --      5.6037                 6.1071                 6.1209
 IR Inten    --      6.0303                36.7413                 0.0216

                     61                     62                     63
                      A                      A                      A
 Frequencies --   3115.4264              3116.2505              3177.1802
 Red. masses --      1.1006                 1.1000                 1.0874
 Frc consts  --      6.2936                 6.2938                 6.4674
 IR Inten    --     51.9823                 0.7283                 4.0998

                     64                     65                     66
                      A                      A                      A
 Frequencies --   3186.1776              3187.9584              3193.7984
 Red. masses --      1.0902                 1.0905                 1.0989
 Frc consts  --      6.5206                 6.5298                 6.6044
 IR Inten    --      7.3074                 5.8242                 8.1419

 - Thermochemistry -
 -------------------
 Temperature   298.150 Kelvin.  Pressure   1.00000 Atm.
 Atom     1 has atomic number  6 and mass  12.00000

 Molecular mass:   186.06808 amu.
 Principal axes and moments of inertia in atomic units:
                           1         2         3
     Eigenvalues --  1615.208133112.414774705.39901
           X            0.99017   0.07805  -0.11605
           Y           -0.12901   0.83014  -0.54242
           Z            0.05400   0.55206   0.83205
 This molecule is an asymmetric top.
 Rotational symmetry number  1.
 Warning -- assumption of classical behavior for rotation
           may cause significant error
 Rotational temperatures (Kelvin)      0.05362     0.02783     0.01841
 Rotational constants (GHZ):           1.11734     0.57985     0.38355
 Zero-point vibrational energy     489794.4 (Joules/Mol)
                                  117.06366 (Kcal/Mol)
 Warning -- explicit consideration of  19 degrees of freedom as
           vibrations may cause significant error
 Vibrational temperatures:    104.06   109.62   173.12   185.35   249.57
          (Kelvin)            288.93   304.92   388.54   429.52   449.34
                              501.24   531.10   629.76   647.51   698.72
                              742.63   817.00   864.10   885.58   910.22
                             1011.88  1040.02  1109.21  1119.42  1143.59
                             1237.48  1332.15  1337.86  1420.15  1453.67
                             1462.76  1493.32  1504.36  1536.48  1541.13
                             1679.16  1691.19  1778.66  1789.32  1832.43
                             1901.33  1947.27  1991.01  2024.49  2035.83
                             2056.44  2112.31  2131.39  2137.83  2140.15
                             2183.49  2284.89  2330.63  2382.05  2437.78
                             2445.38  4352.90  4353.88  4417.70  4422.29
                             4482.40  4483.59  4571.25  4584.20  4586.76
                             4595.16

 Zero-point correction=                           0.186553 (Hartree/Particle)
 Thermal correction to Energy=                    0.198667
 Thermal correction to Enthalpy=                  0.199611
 Thermal correction to Gibbs Free Energy=         0.148399
 Sum of electronic and zero-point Energies=           -613.738792
 Sum of electronic and thermal Energies=              -613.726678
 Sum of electronic and thermal Enthalpies=            -613.725734
 Sum of electronic and thermal Free Energies=         -613.776945

                     E (Thermal)             CV                S
                      KCal/Mol        Cal/Mol-Kelvin    Cal/Mol-Kelvin
 Total                  124.665             46.589            107.784
 Electronic               0.000              0.000              0.000
 Translational            0.889              2.981             41.569
 Rotational               0.889              2.981             31.537
 Vibrational            122.888             40.628             34.678
 Vibration     1          0.598              1.967              4.089
 Vibration     2          0.599              1.965              3.987
 Vibration     3          0.609              1.932              3.095
 Vibration     4          0.611              1.924              2.964
 Vibration     5          0.627              1.875              2.398
 Vibration     6          0.638              1.839              2.126
 Vibration     7          0.643              1.823              2.027
 Vibration     8          0.674              1.728              1.596
 Vibration     9          0.692              1.676              1.425
 Vibration    10          0.701              1.650              1.350
 Vibration    11          0.726              1.579              1.174
 Vibration    12          0.741              1.536              1.083
 Vibration    13          0.798              1.388              0.834
 Vibration    14          0.809              1.361              0.796
 Vibration    15          0.842              1.282              0.695
 Vibration    16          0.871              1.214              0.619
 Vibration    17          0.924              1.101              0.508
 Vibration    18          0.959              1.031              0.449
 Vibration    19          0.975              0.999              0.424

                           ! Non-Optimized Parameters !
 Normal termination of Gaussian 16 at Sun Feb 11 00:38:25 2024.
