 Q-Chem 5.4, Q-Chem, Inc., Pleasanton, CA (2021)
 Q-Chem 5.4.0 for Intel X86 EM64T Linux

User input:
--------------------------------------------------------------
$molecule
0 1
C                 -1.6410730000      2.7982170000      0.0731320000
C                 -2.9008730000      2.2142340000      0.0886570000
C                 -3.0219700000      0.8284630000      0.0691220000
C                 -0.5084040000      1.9866020000      0.0381800000
C                 -0.6247830000      0.5824780000      0.0183140000
C                 -1.9064130000     -0.0181840000      0.0337800000
C                  0.8277690000      2.6554030000      0.0224320000
C                  2.0581660000      1.8136230000     -0.0142810000
C                  1.9537240000      0.4643600000     -0.0309500000
C                  0.6248170000     -0.2275350000     -0.0184580000
O                  0.9095560000      3.8750180000      0.0395720000
O                  0.6050700000     -1.4511530000     -0.0391890000
C                  3.3721400000      2.5512270000     -0.0299380000
C                  3.1364330000     -0.4605680000     -0.0669320000
C                 -2.1451750000     -1.5076400000      0.0146710000
H                 -1.5109100000      3.8726110000      0.0874440000
H                 -3.7896810000      2.8345790000      0.1159310000
H                 -4.0101140000      0.3811900000      0.0815190000
H                  3.1960570000      3.6251050000     -0.0179210000
H                  3.9530990000      2.3045250000     -0.9230440000
H                  3.9818540000      2.2905660000      0.8398900000
H                  4.0805180000      0.0798330000     -0.0516940000
H                  3.1013550000     -1.0878290000     -0.9622900000
H                  3.1062350000     -1.1494020000      0.7815670000
H                 -1.6771990000     -2.0018620000      0.8681740000
H                 -1.7124830000     -1.9736420000     -0.8725850000
H                 -3.2179960000     -1.7104200000      0.0331750000
$end
$rem
MAX_SCF_CYCLES=200
BASIS  =  6-311++G(d,p)
GUI  =  2
JOB_TYPE  =  SP
METHOD  =  B3LYP
SOLVENT_METHOD = PCM
$end
$pcm
theory = CPCM
$end
$solvent
dielectric 37.219
opticaldielectric 1.43
$end

--------------------------------------------------------------

             Standard Nuclear Orientation (Angstroms)
    I     Atom           X                Y                Z
 ----------------------------------------------------------------
    1      C      -1.6410730000     2.7982170000     0.0731320000
    2      C      -2.9008730000     2.2142340000     0.0886570000
    3      C      -3.0219700000     0.8284630000     0.0691220000
    4      C      -0.5084040000     1.9866020000     0.0381800000
    5      C      -0.6247830000     0.5824780000     0.0183140000
    6      C      -1.9064130000    -0.0181840000     0.0337800000
    7      C       0.8277690000     2.6554030000     0.0224320000
    8      C       2.0581660000     1.8136230000    -0.0142810000
    9      C       1.9537240000     0.4643600000    -0.0309500000
   10      C       0.6248170000    -0.2275350000    -0.0184580000
   11      O       0.9095560000     3.8750180000     0.0395720000
   12      O       0.6050700000    -1.4511530000    -0.0391890000
   13      C       3.3721400000     2.5512270000    -0.0299380000
   14      C       3.1364330000    -0.4605680000    -0.0669320000
   15      C      -2.1451750000    -1.5076400000     0.0146710000
   16      H      -1.5109100000     3.8726110000     0.0874440000
   17      H      -3.7896810000     2.8345790000     0.1159310000
   18      H      -4.0101140000     0.3811900000     0.0815190000
   19      H       3.1960570000     3.6251050000    -0.0179210000
   20      H       3.9530990000     2.3045250000    -0.9230440000
   21      H       3.9818540000     2.2905660000     0.8398900000
   22      H       4.0805180000     0.0798330000    -0.0516940000
   23      H       3.1013550000    -1.0878290000    -0.9622900000
   24      H       3.1062350000    -1.1494020000     0.7815670000
   25      H      -1.6771990000    -2.0018620000     0.8681740000
   26      H      -1.7124830000    -1.9736420000    -0.8725850000
   27      H      -3.2179960000    -1.7104200000     0.0331750000
 ----------------------------------------------------------------

    8    -653.2527000556      9.98e-06  Convergence criterion met
 Total energy in the final basis set =     -653.2527000556

                    Orbital Energies (a.u.)
 --------------------------------------------------------------

 Alpha MOs
 -- Occupied --
-19.1301 -19.1274 -10.2786 -10.2774 -10.2089 -10.2082 -10.2077 -10.2042
-10.2031 -10.1923 -10.1902 -10.1891 -10.1694 -10.1678 -10.1655  -1.0647
 -1.0618  -0.8867  -0.8476  -0.7928  -0.7833  -0.7462  -0.7075  -0.6932
 -0.6677  -0.6175  -0.6104  -0.5668  -0.5434  -0.5157  -0.4962  -0.4692
 -0.4622  -0.4611  -0.4582  -0.4304  -0.4264  -0.4232  -0.4149  -0.4101
 -0.4063  -0.3932  -0.3916  -0.3902  -0.3804  -0.3661  -0.3651  -0.3622
 -0.2876  -0.2845  -0.2683  -0.2673  -0.2652

          Ground-State Mulliken Net Atomic Charges

     Atom                 Charge (a.u.)
  ----------------------------------------
      1 C                     0.059880
      2 C                    -0.340707
      3 C                    -0.566661
      4 C                     0.478243
      5 C                     1.028348
      6 C                     0.701077
      7 C                    -1.242984
      8 C                     0.198791
      9 C                     0.725727
     10 C                    -1.355087
     11 O                    -0.284851
     12 O                    -0.247442
     13 C                    -0.526191
     14 C                    -0.395251
     15 C                    -0.510596
     16 H                     0.191964
     17 H                     0.234074
     18 H                     0.169084
     19 H                     0.198727
     20 H                     0.190513
     21 H                     0.190379
     22 H                     0.186531
     23 H                     0.197325
     24 H                     0.193318
     25 H                     0.175527
     26 H                     0.175707
     27 H                     0.174556
  ----------------------------------------
  Sum of atomic charges =     0.000000

                    Cartesian Multipole Moments
 -----------------------------------------------------------------
    Charge (ESU x 10^10)
                 0.0000
    Dipole Moment (Debye)
         X      -0.9159      Y      -0.8430      Z       0.0072
       Tot       1.2448
    Quadrupole Moments (Debye-Ang)
        XX     -66.8432     XY      -2.6824     YY    -105.4917
        XZ      -0.4732     YZ      -0.2057     ZZ     -89.0055

 Total job time:  47.94s(wall), 247.74s(cpu)
        *  Thank you very much for using Q-Chem.  Have a nice day.  *
