 Q-Chem 5.4, Q-Chem, Inc., Pleasanton, CA (2021)
 Q-Chem 5.4.0 for Intel X86 EM64T Linux

User input:
--------------------------------------------------------------
$molecule
-1 2
C                 -2.0341410000      3.0133820000      0.4654640000
C                 -2.7504320000      2.3711720000      1.4583700000
C                 -2.2777190000      1.1571520000      1.9966910000
C                 -0.8266230000      2.4688480000     -0.0229730000
C                 -0.3470250000      1.2422720000      0.5200980000
C                 -1.0940720000      0.6094950000      1.5289300000
C                 -0.0775280000      3.1417640000     -1.0628910000
C                  1.1456060000      2.5071390000     -1.4967380000
C                  1.6345570000      1.3179140000     -0.9986550000
C                  0.9119140000      0.6271930000      0.0477050000
O                 -0.4139000000      4.2396840000     -1.6171460000
O                  1.3280670000     -0.4541900000      0.5398280000
H                 -2.3772310000      3.9478210000      0.0357640000
H                 -3.6780460000      2.8017180000      1.8246150000
H                 -2.8409770000      0.6532950000      2.7765710000
H                 -0.7065170000     -0.3222500000      1.9252970000
C                  2.9224650000      0.7210800000     -1.5043360000
O                  1.7988520000      3.1989350000     -2.4756370000
H                  3.0865820000      1.0293960000     -2.5420750000
H                  2.8260510000     -0.3691640000     -1.4802960000
H                  1.2037730000      3.9698590000     -2.6089730000
C                  4.1492070000      1.1191380000     -0.6610330000
C                  5.4530390000      0.4860150000     -1.1588840000
C                  6.6828540000      0.8753420000     -0.3304480000
H                  3.9680640000      0.8195430000      0.3767410000
H                  4.2473550000      2.2113710000     -0.6662970000
H                  5.6191240000      0.7724590000     -2.2066060000
H                  5.3465480000     -0.6070270000     -1.1547040000
H                  6.5170430000      0.5878680000      0.7160040000
H                  6.7868820000      1.9684930000     -0.3312690000
C                  7.9893990000      0.2445890000     -0.8262380000
C                  9.2183600000      0.6344610000      0.0032320000
C                 10.5246900000      0.0033990000     -0.4922460000
C                 11.7531020000      0.3945230000      0.3373730000
C                 13.0593400000     -0.2361680000     -0.1580410000
C                 14.2880620000      0.1551890000      0.6708790000
C                 15.5880950000     -0.4797510000      0.1677860000
H                  8.1547980000      0.5318160000     -1.8732460000
H                  7.8854270000     -0.8485810000     -0.8253150000
H                  9.0529040000      0.3474380000      1.0499790000
H                  9.3223610000      1.7275290000      0.0025320000
H                 10.6899810000      0.2899700000     -1.5392500000
H                 10.4210460000     -1.0896790000     -0.4907430000
H                 11.5879720000      0.1078460000      1.3842550000
H                 11.8566320000      1.4875770000      0.3359980000
H                 13.2254270000      0.0500180000     -1.2051170000
H                 12.9571810000     -1.3294990000     -0.1562270000
H                 14.1231820000     -0.1313920000      1.7168270000
H                 14.3910150000      1.2473220000      0.6688980000
H                 15.5286580000     -1.5727580000      0.1907430000
H                 16.4443240000     -0.1809580000      0.7798330000
H                 15.7985710000     -0.1836210000     -0.8650480000
$end
$rem
MAX_SCF_CYCLES=200
BASIS  =  6-311++G(d,p)
GUI  =  2
JOB_TYPE  =  SP
METHOD  =  B3LYP
SCF_ALGORITHM = RCA_DIIS
SCF_CONVERGENCE = 8
scf_guess = GWH
THRESH = 14
SOLVENT_METHOD = PCM
$end
$pcm
theory = CPCM
$end
$solvent
dielectric 37.219
opticaldielectric 1.43
$end

--------------------------------------------------------------

             Standard Nuclear Orientation (Angstroms)
    I     Atom           X                Y                Z
 ----------------------------------------------------------------
    1      C      -2.0341410000     3.0133820000     0.4654640000
    2      C      -2.7504320000     2.3711720000     1.4583700000
    3      C      -2.2777190000     1.1571520000     1.9966910000
    4      C      -0.8266230000     2.4688480000    -0.0229730000
    5      C      -0.3470250000     1.2422720000     0.5200980000
    6      C      -1.0940720000     0.6094950000     1.5289300000
    7      C      -0.0775280000     3.1417640000    -1.0628910000
    8      C       1.1456060000     2.5071390000    -1.4967380000
    9      C       1.6345570000     1.3179140000    -0.9986550000
   10      C       0.9119140000     0.6271930000     0.0477050000
   11      O      -0.4139000000     4.2396840000    -1.6171460000
   12      O       1.3280670000    -0.4541900000     0.5398280000
   13      H      -2.3772310000     3.9478210000     0.0357640000
   14      H      -3.6780460000     2.8017180000     1.8246150000
   15      H      -2.8409770000     0.6532950000     2.7765710000
   16      H      -0.7065170000    -0.3222500000     1.9252970000
   17      C       2.9224650000     0.7210800000    -1.5043360000
   18      O       1.7988520000     3.1989350000    -2.4756370000
   19      H       3.0865820000     1.0293960000    -2.5420750000
   20      H       2.8260510000    -0.3691640000    -1.4802960000
   21      H       1.2037730000     3.9698590000    -2.6089730000
   22      C       4.1492070000     1.1191380000    -0.6610330000
   23      C       5.4530390000     0.4860150000    -1.1588840000
   24      C       6.6828540000     0.8753420000    -0.3304480000
   25      H       3.9680640000     0.8195430000     0.3767410000
   26      H       4.2473550000     2.2113710000    -0.6662970000
   27      H       5.6191240000     0.7724590000    -2.2066060000
   28      H       5.3465480000    -0.6070270000    -1.1547040000
   29      H       6.5170430000     0.5878680000     0.7160040000
   30      H       6.7868820000     1.9684930000    -0.3312690000
   31      C       7.9893990000     0.2445890000    -0.8262380000
   32      C       9.2183600000     0.6344610000     0.0032320000
   33      C      10.5246900000     0.0033990000    -0.4922460000
   34      C      11.7531020000     0.3945230000     0.3373730000
   35      C      13.0593400000    -0.2361680000    -0.1580410000
   36      C      14.2880620000     0.1551890000     0.6708790000
   37      C      15.5880950000    -0.4797510000     0.1677860000
   38      H       8.1547980000     0.5318160000    -1.8732460000
   39      H       7.8854270000    -0.8485810000    -0.8253150000
   40      H       9.0529040000     0.3474380000     1.0499790000
   41      H       9.3223610000     1.7275290000     0.0025320000
   42      H      10.6899810000     0.2899700000    -1.5392500000
   43      H      10.4210460000    -1.0896790000    -0.4907430000
   44      H      11.5879720000     0.1078460000     1.3842550000
   45      H      11.8566320000     1.4875770000     0.3359980000
   46      H      13.2254270000     0.0500180000    -1.2051170000
   47      H      12.9571810000    -1.3294990000    -0.1562270000
   48      H      14.1231820000    -0.1313920000     1.7168270000
   49      H      14.3910150000     1.2473220000     0.6688980000
   50      H      15.5286580000    -1.5727580000     0.1907430000
   51      H      16.4443240000    -0.1809580000     0.7798330000
   52      H      15.7985710000    -0.1836210000    -0.8650480000
 ----------------------------------------------------------------

   89   -1043.2455093162      8.45E-09 Convergence criterion met
 Total energy in the final basis set = -1043.24550932

                    Orbital Energies (a.u.)
 --------------------------------------------------------------

 Alpha MOs
 -- Occupied --
-19.1434 -19.0871 -19.0757 -10.2241 -10.2218 -10.2213 -10.1747 -10.1725
-10.1718 -10.1708 -10.1704 -10.1690 -10.1624 -10.1573 -10.1567 -10.1547
-10.1545 -10.1544 -10.1544 -10.1542 -10.1540 -10.1538 -10.1535 -10.1511
 -1.0634  -1.0013  -0.9970  -0.8584  -0.8136  -0.8059  -0.7924  -0.7742
 -0.7542  -0.7505  -0.7314  -0.7042  -0.6780  -0.6587  -0.6302  -0.6157
 -0.5985  -0.5790  -0.5726  -0.5695  -0.5665  -0.5651  -0.5366  -0.5043
 -0.4845  -0.4798  -0.4690  -0.4595  -0.4523  -0.4458  -0.4373  -0.4294
 -0.4262  -0.4239  -0.4187  -0.4178  -0.4104  -0.4032  -0.3987  -0.3905
 -0.3885  -0.3818  -0.3773  -0.3734  -0.3645  -0.3628  -0.3525  -0.3456
 -0.3434  -0.3401  -0.3375  -0.3325  -0.3258  -0.3246  -0.3211  -0.3168
 -0.3167  -0.3143  -0.3136  -0.2936  -0.2675  -0.2612  -0.2578  -0.2411
 -0.2275  -0.1518

 Beta MOs
 -- Occupied --
-19.1429 -19.0809 -19.0704 -10.2227 -10.2205 -10.2187 -10.1745 -10.1717
-10.1714 -10.1700 -10.1699 -10.1692 -10.1616 -10.1573 -10.1568 -10.1547
-10.1545 -10.1544 -10.1543 -10.1542 -10.1540 -10.1538 -10.1535 -10.1511
 -1.0612  -0.9921  -0.9865  -0.8560  -0.8117  -0.8050  -0.7915  -0.7732
 -0.7530  -0.7484  -0.7307  -0.7031  -0.6733  -0.6545  -0.6292  -0.6140
 -0.5970  -0.5781  -0.5725  -0.5680  -0.5665  -0.5641  -0.5348  -0.5020
 -0.4826  -0.4790  -0.4683  -0.4585  -0.4514  -0.4454  -0.4298  -0.4275
 -0.4253  -0.4230  -0.4157  -0.4140  -0.4084  -0.4014  -0.3964  -0.3894
 -0.3806  -0.3778  -0.3752  -0.3719  -0.3639  -0.3525  -0.3515  -0.3430
 -0.3399  -0.3362  -0.3315  -0.3288  -0.3251  -0.3237  -0.3209  -0.3168
 -0.3164  -0.3143  -0.3135  -0.2931  -0.2558  -0.2507  -0.2482  -0.2362
 -0.2189

          Ground-State Mulliken Net Atomic Charges

     Atom                 Charge (a.u.)    Spin (a.u.)
  --------------------------------------------------------
      1 C                    -0.002325       0.074403
      2 C                    -0.392315      -0.000956
      3 C                    -0.466593       0.071493
      4 C                     0.507179      -0.004233
      5 C                    -0.109158       0.057864
      6 C                     0.055856       0.004429
      7 C                    -0.880597       0.171042
      8 C                    -0.599612       0.058761
      9 C                     1.995643       0.054230
     10 C                    -0.638894       0.082163
     11 O                    -0.541507       0.226070
     12 O                    -0.481781       0.193751
     13 H                     0.173982      -0.004107
     14 H                     0.199128      -0.000655
     15 H                     0.194532      -0.005056
     16 H                     0.173812      -0.000376
     17 C                    -0.437038       0.013135
     18 O                    -0.297342       0.016423
     19 H                     0.219412      -0.000508
     20 H                     0.202448       0.002512
     21 H                     0.302386      -0.003549
     22 C                    -0.889904      -0.000714
     23 C                    -0.351670       0.000099
     24 C                    -0.040438      -0.005320
     25 H                     0.178149      -0.001644
     26 H                     0.172439       0.002078
     27 H                     0.119372      -0.000376
     28 H                     0.122147       0.000432
     29 H                     0.130777      -0.000040
     30 H                     0.130726      -0.000060
     31 C                     0.028392      -0.001605
     32 C                     0.057220      -0.000150
     33 C                    -0.045405       0.000424
     34 C                    -0.310721       0.000028
     35 C                    -0.506703       0.000028
     36 C                    -0.302004      -0.000008
     37 C                    -0.711485       0.000003
     38 H                     0.136769      -0.000007
     39 H                     0.137308       0.000002
     40 H                     0.133939       0.000005
     41 H                     0.134197      -0.000004
     42 H                     0.133254      -0.000012
     43 H                     0.133130       0.000004
     44 H                     0.131861      -0.000001
     45 H                     0.131560       0.000001
     46 H                     0.128718       0.000003
     47 H                     0.128803      -0.000002
     48 H                     0.135336      -0.000000
     49 H                     0.135308       0.000001
     50 H                     0.144684       0.000000
     51 H                     0.152292       0.000001
     52 H                     0.144733      -0.000000
  --------------------------------------------------------
  Sum of atomic charges =    -1.000000

                    Cartesian Multipole Moments
 -----------------------------------------------------------------
    Charge (ESU x 10^10)
                -4.8032
    Dipole Moment (Debye)
         X      -3.2319      Y      -8.5070      Z       3.0200
       Tot       9.5883
    Quadrupole Moments (Debye-Ang)
        XX    -161.7210     XY       3.0599     YY    -191.5274
        XZ      -2.2380     YZ      14.2554     ZZ    -161.1995

 Total job time:  3189.02s(wall), 19946.57s(cpu)
        *  Thank you very much for using Q-Chem.  Have a nice day.  *
