 Q-Chem 5.4, Q-Chem, Inc., Pleasanton, CA (2021)
 Q-Chem 5.4.0 for Intel X86 EM64T Linux

User input:
--------------------------------------------------------------
$molecule
-2 1
C                 -0.8775120000      2.3476390000     -0.9713230000
C                 -2.1686020000      1.8548290000     -1.0374680000
C                 -2.5432190000      0.7555190000     -0.2240730000
C                  0.0995400000      1.7896110000     -0.1135660000
C                 -0.2850870000      0.6727520000      0.7173100000
C                 -1.6097480000      0.1913480000      0.6284040000
C                  1.4446630000      2.3681350000     -0.1037010000
C                  2.3215690000      1.7063240000      0.8073790000
C                  1.9483250000      0.6310420000      1.6283480000
C                  0.6566230000      0.0406010000      1.6419850000
O                  1.7692490000      3.3649040000     -0.8463500000
O                  0.3274130000     -0.9547900000      2.3892180000
H                 -0.5596780000      3.1881580000     -1.5811050000
H                 -1.8608360000     -0.6501390000      1.2677310000
O                  3.6257110000      2.2108880000      0.9718920000
H                 -2.8942640000      2.3085140000     -1.7111130000
H                 -3.5568350000      0.3601510000     -0.2700290000
H                  2.6956160000      0.2152890000      2.3012300000
C                  4.6705220000      1.5326570000      0.2836760000
C                  5.9816750000      2.1417760000      0.7794910000
C                  4.5163140000      1.6364630000     -1.2357440000
H                  4.6458740000      0.4666770000      0.5664430000
H                  6.8472060000      1.6410010000      0.3332490000
H                  6.0582360000      2.0550220000      1.8676290000
H                  6.0277720000      3.2044730000      0.5188760000
H                  5.3316970000      1.1026600000     -1.7410560000
H                  4.5091290000      2.6856460000     -1.5414270000
H                  3.5608550000      1.2051630000     -1.5415540000
$end
$rem
MAX_SCF_CYCLES=200
BASIS  =  6-311++G(d,p)
GUI  =  2
JOB_TYPE  =  SP
METHOD  =  B3LYP
SOLVENT_METHOD = PCM
$end
$pcm
theory = CPCM
$end
$solvent
dielectric 37.219
opticaldielectric 1.43
$end

--------------------------------------------------------------

             Standard Nuclear Orientation (Angstroms)
    I     Atom           X                Y                Z
 ----------------------------------------------------------------
    1      C      -0.8775120000     2.3476390000    -0.9713230000
    2      C      -2.1686020000     1.8548290000    -1.0374680000
    3      C      -2.5432190000     0.7555190000    -0.2240730000
    4      C       0.0995400000     1.7896110000    -0.1135660000
    5      C      -0.2850870000     0.6727520000     0.7173100000
    6      C      -1.6097480000     0.1913480000     0.6284040000
    7      C       1.4446630000     2.3681350000    -0.1037010000
    8      C       2.3215690000     1.7063240000     0.8073790000
    9      C       1.9483250000     0.6310420000     1.6283480000
   10      C       0.6566230000     0.0406010000     1.6419850000
   11      O       1.7692490000     3.3649040000    -0.8463500000
   12      O       0.3274130000    -0.9547900000     2.3892180000
   13      H      -0.5596780000     3.1881580000    -1.5811050000
   14      H      -1.8608360000    -0.6501390000     1.2677310000
   15      O       3.6257110000     2.2108880000     0.9718920000
   16      H      -2.8942640000     2.3085140000    -1.7111130000
   17      H      -3.5568350000     0.3601510000    -0.2700290000
   18      H       2.6956160000     0.2152890000     2.3012300000
   19      C       4.6705220000     1.5326570000     0.2836760000
   20      C       5.9816750000     2.1417760000     0.7794910000
   21      C       4.5163140000     1.6364630000    -1.2357440000
   22      H       4.6458740000     0.4666770000     0.5664430000
   23      H       6.8472060000     1.6410010000     0.3332490000
   24      H       6.0582360000     2.0550220000     1.8676290000
   25      H       6.0277720000     3.2044730000     0.5188760000
   26      H       5.3316970000     1.1026600000    -1.7410560000
   27      H       4.5091290000     2.6856460000    -1.5414270000
   28      H       3.5608550000     1.2051630000    -1.5415540000
 ----------------------------------------------------------------

    9    -728.7274827553      3.98e-06  Convergence criterion met
 Total energy in the final basis set =     -728.7274827553

                    Orbital Energies (a.u.)
 --------------------------------------------------------------

 Alpha MOs
 -- Occupied --
-19.1065 -19.0203 -19.0169 -10.2077 -10.1736 -10.1719 -10.1698 -10.1500
-10.1490 -10.1477 -10.1465 -10.1455 -10.1409 -10.1394 -10.1381 -10.1189
 -1.0189  -0.9371  -0.9327  -0.8256  -0.7763  -0.7498  -0.7229  -0.6975
 -0.6769  -0.6411  -0.5942  -0.5856  -0.5531  -0.5296  -0.4927  -0.4779
 -0.4513  -0.4404  -0.4315  -0.4269  -0.4069  -0.3989  -0.3800  -0.3771
 -0.3761  -0.3714  -0.3641  -0.3576  -0.3504  -0.3429  -0.3264  -0.3215
 -0.3187  -0.3075  -0.3012  -0.2523  -0.2304  -0.2254  -0.2099  -0.2011
 -0.1971  -0.1127

          Ground-State Mulliken Net Atomic Charges

     Atom                 Charge (a.u.)
  ----------------------------------------
      1 C                    -0.016728
      2 C                    -0.510553
      3 C                    -0.482348
      4 C                     0.266267
      5 C                     0.445696
      6 C                     0.026611
      7 C                    -0.653075
      8 C                    -0.310478
      9 C                     0.592538
     10 C                    -0.554641
     11 O                    -0.709642
     12 O                    -0.729334
     13 H                     0.146435
     14 H                     0.143893
     15 O                    -0.154262
     16 H                     0.176901
     17 H                     0.174599
     18 H                     0.150156
     19 C                     0.027231
     20 C                    -0.525083
     21 C                    -0.529474
     22 H                     0.125507
     23 H                     0.150189
     24 H                     0.151767
     25 H                     0.149095
     26 H                     0.136089
     27 H                     0.159871
     28 H                     0.152774
  ----------------------------------------
  Sum of atomic charges =    -2.000000

                    Cartesian Multipole Moments
 -----------------------------------------------------------------
    Charge (ESU x 10^10)
                -9.6064
    Dipole Moment (Debye)
         X      -8.5073      Y     -13.0270      Z      -7.7489
       Tot      17.3817
    Quadrupole Moments (Debye-Ang)
        XX    -120.2496     XY     -27.2410     YY    -159.7506
        XZ      -3.0715     YZ      13.8162     ZZ    -132.1684

 Total job time:  49.31s(wall), 309.80s(cpu)
        *  Thank you very much for using Q-Chem.  Have a nice day.  *
