 Gaussian 16, Revision A.03,
 Gaussian 16:  ES64L-G16RevA.03 25-Dec-2016

 ----------------------------------------------------------------------
 #P UB3LYP/6-311++G(d,p) nosym opt freq SCRF=(PCM,Solvent=n,n-DiMethylF
 ormamide)
 ----------------------------------------------------------------------

 -------
 Radical
 -------
 Symbolic Z-matrix:
 Charge = -1 Multiplicity = 2

 SCF Done:  E(UB3LYP) =  -804.847031787     A.U. after   19 cycles
 SCF Done:  E(UB3LYP) =  -804.847667028     A.U. after   17 cycles
 SCF Done:  E(UB3LYP) =  -804.847292548     A.U. after   18 cycles
 SCF Done:  E(UB3LYP) =  -804.848397304     A.U. after   16 cycles
 SCF Done:  E(UB3LYP) =  -804.848654190     A.U. after   16 cycles
 SCF Done:  E(UB3LYP) =  -804.848832751     A.U. after   16 cycles
 SCF Done:  E(UB3LYP) =  -804.848934282     A.U. after   13 cycles
 SCF Done:  E(UB3LYP) =  -804.848961079     A.U. after   15 cycles
 SCF Done:  E(UB3LYP) =  -804.848980624     A.U. after   12 cycles
 SCF Done:  E(UB3LYP) =  -804.849010937     A.U. after   12 cycles
 SCF Done:  E(UB3LYP) =  -804.849025560     A.U. after   14 cycles
 SCF Done:  E(UB3LYP) =  -804.849033706     A.U. after   13 cycles
 SCF Done:  E(UB3LYP) =  -804.849034761     A.U. after   12 cycles
 SCF Done:  E(UB3LYP) =  -804.849036466     A.U. after   11 cycles
 SCF Done:  E(UB3LYP) =  -804.849037029     A.U. after   11 cycles
 SCF Done:  E(UB3LYP) =  -804.849037141     A.U. after   10 cycles
 SCF Done:  E(UB3LYP) =  -804.849037175     A.U. after    9 cycles
 Optimization completed.
    -- Stationary point found.
 Normal termination of Gaussian 16 at Sat Feb 10 13:19:57 2024.

 ----------------------------------------------------------------------
 #P Geom=AllCheck Guess=TCheck SCRF=Check GenChk UB3LYP/6-311++G(d,p) F
 req
 ----------------------------------------------------------------------

 Structure from the checkpoint file:  "081-rad.chk"
 -------
 Radical
 -------
 Charge = -1 Multiplicity = 2

                          Input orientation:
 ---------------------------------------------------------------------
 Center     Atomic      Atomic             Coordinates (Angstroms)
 Number     Number       Type             X           Y           Z
 ---------------------------------------------------------------------
      1          6           0        1.171980    1.409812   -2.963712
      2          6           0       -0.137272    1.627638   -3.527171
      3          6           0       -1.140423    0.710208   -3.386495
      4          6           0       -0.957237   -0.528342   -2.668717
      5          6           0        0.362084   -0.775696   -2.093532
      6          8           0        2.100174    2.272959   -3.054660
      7          8           0       -1.900696   -1.369814   -2.543838
      8          1           0       -0.298713    2.558990   -4.061749
      9          6           0        1.368482    0.154428   -2.254647
     10          6           0        2.733609   -0.040296   -1.640998
     11          6           0        3.885897   -0.336654   -2.546165
     12          6           0        5.230834   -0.103992   -2.162864
     13          6           0        3.611274   -0.895254   -3.805032
     14          6           0        6.237982   -0.445825   -3.072335
     15          6           0        5.953431   -1.017451   -4.311317
     16          6           0        4.630682   -1.247653   -4.682016
     17          8           0        2.870938    0.031670   -0.425373
     18          6           0        5.632592    0.514013   -0.845394
     19          1           0        2.579576   -1.061679   -4.089580
     20          1           0        7.271226   -0.257312   -2.800329
     21          1           0        6.763663   -1.275083   -4.984462
     22          1           0        4.395144   -1.689063   -5.643373
     23          6           0        0.548639   -2.079893   -1.362908
     24          1           0       -2.123321    0.889289   -3.812172
     25          1           0       -0.057703   -2.103535   -0.451132
     26          1           0        1.586192   -2.255140   -1.080542
     27          1           0        0.205627   -2.914039   -1.980933
     28          1           0        5.034665    1.396708   -0.611359
     29          1           0        6.685706    0.800886   -0.874776
     30          1           0        5.489097   -0.184982   -0.018127
 ---------------------------------------------------------------------

 SCF Done:  E(UB3LYP) =  -804.849037175     A.U. after    1 cycles

 Alpha  occ. eigenvalues --  -19.11710 -19.07941 -19.07877 -10.26752 -10.22462
 Alpha  occ. eigenvalues --  -10.22005 -10.19792 -10.18909 -10.18496 -10.18440
 Alpha  occ. eigenvalues --  -10.18156 -10.17942 -10.17843 -10.17291 -10.16556
 Alpha  occ. eigenvalues --  -10.16470 -10.16318 -10.15940  -1.04852  -0.99920
 Alpha  occ. eigenvalues --   -0.99640  -0.87017  -0.83245  -0.78042  -0.77785
 Alpha  occ. eigenvalues --   -0.76340  -0.71564  -0.69208  -0.66716  -0.64236
 Alpha  occ. eigenvalues --   -0.61464  -0.59076  -0.56442  -0.54634  -0.50607
 Alpha  occ. eigenvalues --   -0.48884  -0.48104  -0.46962  -0.45961  -0.44343
 Alpha  occ. eigenvalues --   -0.44257  -0.42527  -0.42223  -0.41875  -0.41471
 Alpha  occ. eigenvalues --   -0.40461  -0.39976  -0.39177  -0.38778  -0.38380
 Alpha  occ. eigenvalues --   -0.36991  -0.36491  -0.36427  -0.36103  -0.35619
 Alpha  occ. eigenvalues --   -0.34924  -0.28350  -0.27030  -0.26628  -0.25630
 Alpha  occ. eigenvalues --   -0.25197  -0.24539  -0.23494  -0.16543
 Alpha virt. eigenvalues --   -0.06557  -0.02026  -0.01419  -0.00405   0.00544
 Alpha virt. eigenvalues --    0.00975   0.01214   0.01792   0.02345   0.02968
 Alpha virt. eigenvalues --    0.03074   0.03375   0.03671   0.04575   0.04660

  Beta  occ. eigenvalues --  -19.11696 -19.07253 -19.07160 -10.26757 -10.22325
  Beta  occ. eigenvalues --  -10.21861 -10.19792 -10.18908 -10.18497 -10.18440
  Beta  occ. eigenvalues --  -10.18017 -10.17942 -10.17842 -10.17214 -10.16451
  Beta  occ. eigenvalues --  -10.16354 -10.16318 -10.15950  -1.04820  -0.98717
  Beta  occ. eigenvalues --   -0.98375  -0.87012  -0.82671  -0.78042  -0.77603
  Beta  occ. eigenvalues --   -0.76192  -0.71222  -0.69149  -0.65943  -0.64110
  Beta  occ. eigenvalues --   -0.61339  -0.58954  -0.56064  -0.54512  -0.50482
  Beta  occ. eigenvalues --   -0.48672  -0.48042  -0.46818  -0.45726  -0.44184
  Beta  occ. eigenvalues --   -0.44065  -0.42475  -0.41762  -0.41552  -0.41337
  Beta  occ. eigenvalues --   -0.40136  -0.39555  -0.38800  -0.38337  -0.37579
  Beta  occ. eigenvalues --   -0.36432  -0.36200  -0.36100  -0.35475  -0.34912
  Beta  occ. eigenvalues --   -0.34117  -0.27010  -0.26517  -0.25602  -0.25007
  Beta  occ. eigenvalues --   -0.24359  -0.23895  -0.22951
  Beta virt. eigenvalues --   -0.09310  -0.06461  -0.01950  -0.00549  -0.00162
  Beta virt. eigenvalues --    0.00561   0.01025   0.01236   0.02322   0.02542
  Beta virt. eigenvalues --    0.03084   0.03363   0.03590   0.04592   0.04651

 Mulliken charges and spin densities:
               1          2
     1  C   -0.621610   0.097890
     2  C   -0.227971   0.088158
     3  C    0.033804   0.074432
     4  C   -0.386724   0.105305
     5  C    0.322731   0.090349
     6  O   -0.459131   0.246669
     7  O   -0.496568   0.257037
     8  H    0.190279  -0.007680
     9  C    0.701289   0.045174
    10  C   -0.185117  -0.004610
    11  C    0.345923   0.004488
    12  C    0.527722   0.000827
    13  C   -0.261962  -0.002111
    14  C   -0.483601   0.000038
    15  C   -0.268104  -0.000449
    16  C   -0.266443  -0.003003
    17  O   -0.290371   0.002233
    18  C   -0.564415  -0.000539
    19  H    0.201169   0.000138
    20  H    0.164968  -0.000048
    21  H    0.192188   0.000053
    22  H    0.197782  -0.000007
    23  C   -0.581468   0.003089
    24  H    0.191554  -0.006986
    25  H    0.183398   0.005924
    26  H    0.148028  -0.000285
    27  H    0.172370   0.003858
    28  H    0.184641   0.000004
    29  H    0.147633   0.000049
    30  H    0.188005   0.000005
 Sum of Mulliken charges =  -1.00000   1.00000

 Dipole moment (field-independent basis, Debye):
    X=             -0.7200    Y=             -2.7502    Z=              9.8432  Tot=             10.2455
 Quadrupole moment (field-independent basis, Debye-Ang):
   XX=           -118.8637   YY=           -126.0202   ZZ=           -131.7684
   XY=            -21.8712   XZ=             -4.7610   YZ=             11.3072

  Exact polarizability: 357.823  47.213 256.753  -2.937  -5.198 246.780
 Approx polarizability: 381.502  65.373 290.829  -5.509   0.181 287.294

                      1                      2                      3
                      A                      A                      A
 Frequencies --     28.7597                35.1110                57.6582
 Red. masses --      5.2429                 4.9087                 4.7039
 Frc consts  --      0.0026                 0.0036                 0.0092
 IR Inten    --      3.8811                 0.5568                 1.9660

                      4                      5                      6
                      A                      A                      A
 Frequencies --    109.0312               119.6338               133.2995
 Red. masses --      4.7734                 2.7684                 1.8493
 Frc consts  --      0.0334                 0.0233                 0.0194
 IR Inten    --      1.7818                17.7042                 9.5568

                      7                      8                      9
                      A                      A                      A
 Frequencies --    140.3001               159.4149               193.2138
 Red. masses --      3.1620                 3.3817                 1.2622
 Frc consts  --      0.0367                 0.0506                 0.0278
 IR Inten    --      2.1081                 1.3176                 1.5364

                     10                     11                     12
                      A                      A                      A
 Frequencies --    210.4342               239.4138               261.2296
 Red. masses --      2.7660                 4.0598                 5.5427
 Frc consts  --      0.0722                 0.1371                 0.2229
 IR Inten    --      1.0657                 5.8906                 3.5169

                     13                     14                     15
                      A                      A                      A
 Frequencies --    319.8541               332.0904               358.9166
 Red. masses --      4.4567                 4.0619                 6.6193
 Frc consts  --      0.2686                 0.2639                 0.5024
 IR Inten    --      3.7642                 3.9895                 2.7986

                     16                     17                     18
                      A                      A                      A
 Frequencies --    392.4063               417.3911               423.8015
 Red. masses --      5.4680                 3.7247                 4.4262
 Frc consts  --      0.4961                 0.3823                 0.4684
 IR Inten    --     23.8135                 8.8718                 2.5636

                     19                     20                     21
                      A                      A                      A
 Frequencies --    447.4450               468.4792               492.8798
 Red. masses --      4.2482                 7.1503                 3.9166
 Frc consts  --      0.5011                 0.9246                 0.5606
 IR Inten    --      9.6746                 6.1353                10.3474

                     22                     23                     24
                      A                      A                      A
 Frequencies --    537.0367               560.6199               584.3445
 Red. masses --      4.5073                 5.2016                 3.4916
 Frc consts  --      0.7659                 0.9632                 0.7024
 IR Inten    --      5.5763                 6.4579                10.1231

                     25                     26                     27
                      A                      A                      A
 Frequencies --    597.5393               650.3841               681.3691
 Red. masses --      5.0066                 3.7489                 5.9856
 Frc consts  --      1.0532                 0.9343                 1.6373
 IR Inten    --      8.9779                 4.1612                29.8741

                     28                     29                     30
                      A                      A                      A
 Frequencies --    707.0219               737.4623               744.6269
 Red. masses --      4.6518                 4.6955                 1.8494
 Frc consts  --      1.3701                 1.5046                 0.6042
 IR Inten    --      7.3473                 2.5941                91.8918

                     31                     32                     33
                      A                      A                      A
 Frequencies --    774.8808               785.2979               807.4036
 Red. masses --      5.6045                 2.4581                 3.4119
 Frc consts  --      1.9827                 0.8931                 1.3105
 IR Inten    --     59.5623                28.9810                23.2998

                     34                     35                     36
                      A                      A                      A
 Frequencies --    831.4327               852.7196               889.3587
 Red. masses --      2.3171                 3.6565                 1.3426
 Frc consts  --      0.9437                 1.5665                 0.6257
 IR Inten    --     48.5358                88.5192                 1.2649

                     37                     38                     39
                      A                      A                      A
 Frequencies --    937.3060               961.4962               977.0128
 Red. masses --      2.8143                 1.2883                 1.3891
 Frc consts  --      1.4568                 0.7017                 0.7813
 IR Inten    --    124.8218                 0.2762                 0.5486

                     40                     41                     42
                      A                      A                      A
 Frequencies --   1008.4878              1011.2419              1026.0526
 Red. masses --      1.3162                 1.5610                 3.9994
 Frc consts  --      0.7887                 0.9405                 2.4808
 IR Inten    --      0.6275                 4.6520                36.6323

                     43                     44                     45
                      A                      A                      A
 Frequencies --   1043.1877              1056.6052              1070.5326
 Red. masses --      1.5391                 1.5901                 2.3564
 Frc consts  --      0.9868                 1.0460                 1.5911
 IR Inten    --      0.6052                 8.2391                11.1307

                     46                     47                     48
                      A                      A                      A
 Frequencies --   1079.9763              1127.7109              1157.0659
 Red. masses --      2.5179                 1.8107                 1.5686
 Frc consts  --      1.7303                 1.3568                 1.2373
 IR Inten    --     36.9997                16.8142                16.4671

                     49                     50                     51
                      A                      A                      A
 Frequencies --   1170.1633              1182.3773              1215.5255
 Red. masses --      2.3224                 1.1036                 2.6720
 Frc consts  --      1.8736                 0.9090                 2.3260
 IR Inten    --     32.6883                 7.4782                14.8399

                     52                     53                     54
                      A                      A                      A
 Frequencies --   1223.5628              1248.2468              1305.6955
 Red. masses --      3.5454                 5.3506                 1.5363
 Frc consts  --      3.1273                 4.9119                 1.5432
 IR Inten    --     91.8401               194.9480                 6.2983

                     55                     56                     57
                      A                      A                      A
 Frequencies --   1325.9889              1352.6949              1405.9140
 Red. masses --      6.6399                 2.1394                 1.2693
 Frc consts  --      6.8784                 2.3064                 1.4782
 IR Inten    --     27.8542                36.6594                17.5200

                     58                     59                     60
                      A                      A                      A
 Frequencies --   1411.0385              1425.1083              1459.6746
 Red. masses --      1.2232                 6.8878                 1.4013
 Frc consts  --      1.4350                 8.2419                 1.7591
 IR Inten    --      5.3217               432.9193                 6.0617

                     61                     62                     63
                      A                      A                      A
 Frequencies --   1460.9134              1468.6480              1471.2164
 Red. masses --      1.0919                 1.3161                 1.1445
 Frc consts  --      1.3730                 1.6725                 1.4595
 IR Inten    --     14.9962                35.0115                15.2067

                     64                     65                     66
                      A                      A                      A
 Frequencies --   1474.0753              1486.2237              1505.4886
 Red. masses --      8.9608                 1.4173                 2.4145
 Frc consts  --     11.4719                 1.8445                 3.2243
 IR Inten    --      4.6714                19.6050                61.2602

                     67                     68                     69
                      A                      A                      A
 Frequencies --   1511.0248              1518.3765              1599.7899
 Red. masses --      4.2752                 3.1146                 5.3948
 Frc consts  --      5.7510                 4.2308                 8.1349
 IR Inten    --    996.3322               108.7744                58.9389

                     70                     71                     72
                      A                      A                      A
 Frequencies --   1634.1084              1634.7871              1682.7517
 Red. masses --      6.2172                 6.3513                12.2514
 Frc consts  --      9.7815                10.0008                20.4397
 IR Inten    --     44.0713                16.2634               513.7835

                     73                     74                     75
                      A                      A                      A
 Frequencies --   3025.1403              3037.8746              3069.2920
 Red. masses --      1.0416                 1.0356                 1.0958
 Frc consts  --      5.6164                 5.6308                 6.0822
 IR Inten    --     49.1884                35.9023                29.6710

                     76                     77                     78
                      A                      A                      A
 Frequencies --   3094.2681              3107.8661              3123.0529
 Red. masses --      1.0999                 1.1028                 1.0991
 Frc consts  --      6.2044                 6.2756                 6.3162
 IR Inten    --     22.0716                35.2938                27.3814

                     79                     80                     81
                      A                      A                      A
 Frequencies --   3147.8233              3160.5758              3166.8094
 Red. masses --      1.0858                 1.0871                 1.0955
 Frc consts  --      6.3388                 6.3983                 6.4728
 IR Inten    --     29.5693                11.9631                34.3546

                     82                     83                     84
                      A                      A                      A
 Frequencies --   3173.0263              3183.7200              3194.5409
 Red. masses --      1.0893                 1.0926                 1.0960
 Frc consts  --      6.4615                 6.5249                 6.5897
 IR Inten    --     16.0261                27.4623                19.2012

 - Thermochemistry -
 -------------------
 Temperature   298.150 Kelvin.  Pressure   1.00000 Atm.
 Atom     1 has atomic number  6 and mass  12.00000

 Molecular mass:   240.07864 amu.
 Principal axes and moments of inertia in atomic units:
                           1         2         3
     Eigenvalues --  2265.495496687.182516740.35940
           X            0.99918   0.00698   0.03978
           Y           -0.02881  -0.56698   0.82323
           Z           -0.02830   0.82371   0.56631
 This molecule is an asymmetric top.
 Rotational symmetry number  1.
 Warning -- assumption of classical behavior for rotation
           may cause significant error
 Rotational temperatures (Kelvin)      0.03823     0.01295     0.01285
 Rotational constants (GHZ):           0.79662     0.26988     0.26775
 Zero-point vibrational energy     599307.1 (Joules/Mol)
                                  143.23783 (Kcal/Mol)
 Warning -- explicit consideration of  25 degrees of freedom as
           vibrations may cause significant error
 Vibrational temperatures:     41.38    50.52    82.96   156.87   172.13
          (Kelvin)            191.79   201.86   229.36   277.99   302.77
                              344.46   375.85   460.20   477.80   516.40
                              564.59   600.53   609.76   643.77   674.04
                              709.14   772.68   806.61   840.74   859.73
                              935.76   980.34  1017.25  1061.04  1071.35
                             1114.88  1129.87  1161.67  1196.25  1226.87
                             1279.59  1348.57  1383.38  1405.70  1450.99
                             1454.95  1476.26  1500.91  1520.22  1540.26
                             1553.84  1622.52  1664.76  1683.60  1701.18
                             1748.87  1760.43  1795.95  1878.60  1907.80
                             1946.23  2022.80  2030.17  2050.41  2100.15
                             2101.93  2113.06  2116.75  2120.87  2138.34
                             2166.06  2174.03  2184.61  2301.74  2351.12
                             2352.09  2421.10  4352.50  4370.82  4416.03
                             4451.96  4471.53  4493.38  4529.02  4547.36
                             4556.33  4565.28  4580.66  4596.23

 Zero-point correction=                           0.228264 (Hartree/Particle)
 Thermal correction to Energy=                    0.244185
 Thermal correction to Enthalpy=                  0.245129
 Thermal correction to Gibbs Free Energy=         0.183439
 Sum of electronic and zero-point Energies=           -804.620773
 Sum of electronic and thermal Energies=              -804.604853
 Sum of electronic and thermal Enthalpies=            -804.603908
 Sum of electronic and thermal Free Energies=         -804.665598

                     E (Thermal)             CV                S
                      KCal/Mol        Cal/Mol-Kelvin    Cal/Mol-Kelvin
 Total                  153.228             60.701            129.836
 Electronic               0.000              0.000              1.377
 Translational            0.889              2.981             42.329
 Rotational               0.889              2.981             32.990
 Vibrational            151.451             54.739             53.140
 Vibration     1          0.593              1.984              5.913
 Vibration     2          0.594              1.982              5.517
 Vibration     3          0.596              1.974              4.536
 Vibration     4          0.606              1.942              3.286
 Vibration     5          0.609              1.933              3.106
 Vibration     6          0.613              1.920              2.898
 Vibration     7          0.615              1.913              2.800
 Vibration     8          0.621              1.892              2.557
 Vibration     9          0.635              1.849              2.197
 Vibration    10          0.643              1.825              2.040
 Vibration    11          0.657              1.780              1.807
 Vibration    12          0.669              1.744              1.654
 Vibration    13          0.706              1.636              1.311
 Vibration    14          0.714              1.611              1.250
 Vibration    15          0.734              1.557              1.127
 Vibration    16          0.760              1.486              0.991
 Vibration    17          0.780              1.432              0.901
 Vibration    18          0.786              1.418              0.879
 Vibration    19          0.807              1.367              0.804
 Vibration    20          0.826              1.320              0.742
 Vibration    21          0.849              1.266              0.676
 Vibration    22          0.892              1.168              0.572
 Vibration    23          0.916              1.117              0.523
 Vibration    24          0.941              1.065              0.477
 Vibration    25          0.955              1.037              0.454

 Optimization completed.
    -- Stationary point found.
 Normal termination of Gaussian 16 at Sat Feb 10 14:26:37 2024.
