 Gaussian 16, Revision A.03,
 Gaussian 16:  ES64L-G16RevA.03 25-Dec-2016

 ----------------------------------------------------------------
 #P UB3LYP/6-311++G(d,p) SCRF=(PCM,Solvent=n,n-DiMethylFormamide)
 ----------------------------------------------------------------

 ------------------
 Radical PCM in DMF
 ------------------
 Symbolic Z-matrix:
 Charge = -1 Multiplicity = 2

                         Standard orientation:
 ---------------------------------------------------------------------
 Center     Atomic      Atomic             Coordinates (Angstroms)
 Number     Number       Type             X           Y           Z
 ---------------------------------------------------------------------
      1          6           0       -0.048842   -1.393383    0.000042
      2          6           0       -1.245433   -0.705785    0.000019
      3          6           0       -1.245452    0.705817    0.000069
      4          6           0        1.178987   -0.708060    0.000034
      5          6           0        1.178977    0.708054   -0.000094
      6          6           0       -0.048835    1.393384   -0.000027
      7          6           0        2.433423   -1.472547    0.000175
      8          6           0        3.656987   -0.694659    0.000073
      9          6           0        3.656970    0.694678   -0.000192
     10          6           0        2.433413    1.472562   -0.000336
     11          8           0        2.423037   -2.732987    0.000366
     12          8           0        2.423022    2.733003   -0.000579
     13          1           0       -0.023269   -2.475556    0.000034
     14          1           0       -0.023158    2.475550   -0.000046
     15         35           0       -2.879777   -1.726553   -0.000302
     16         35           0       -2.879684    1.726569    0.000321
     17          6           0        4.952395   -1.467886    0.000474
     18          6           0        4.952444    1.467782   -0.000240
     19          1           0        4.736771   -2.536239    0.000535
     20          1           0        5.563504   -1.232133    0.880478
     21          1           0        5.564040   -1.232305   -0.879196
     22          1           0        5.563796    1.232128    0.879612
     23          1           0        4.737000    2.536173   -0.000323
     24          1           0        5.563779    1.231951   -0.880059
 ---------------------------------------------------------------------

 SCF Done:  E(UB3LYP) =  -5761.14574318     A.U. after   17 cycles

 The electronic state is 2-A.
 Alpha  occ. eigenvalues -- -482.83695-482.83695 -62.48973 -62.48972 -56.31010
 Alpha  occ. eigenvalues --  -56.31009 -56.30626 -56.30625 -56.30605 -56.30604
 Alpha  occ. eigenvalues --  -19.07743 -19.07742 -10.24276 -10.24229 -10.22318
 Alpha  occ. eigenvalues --  -10.22316 -10.18829 -10.18827 -10.18251 -10.18204
 Alpha  occ. eigenvalues --  -10.17157 -10.17101 -10.15387 -10.15387  -8.69938
 Alpha  occ. eigenvalues --   -8.69937  -6.53076  -6.53076  -6.51799  -6.51799
 Alpha  occ. eigenvalues --   -6.51748  -6.51748  -2.64168  -2.64167  -2.63810
 Alpha  occ. eigenvalues --   -2.63809  -2.63773  -2.63773  -2.62757  -2.62757
 Alpha  occ. eigenvalues --   -2.62757  -2.62756  -1.00390  -1.00125  -0.89145
 Alpha  occ. eigenvalues --   -0.83301  -0.81231  -0.80410  -0.75046  -0.74192
 Alpha  occ. eigenvalues --   -0.72540  -0.67325  -0.65565  -0.61571  -0.58589
 Alpha  occ. eigenvalues --   -0.55781  -0.51598  -0.48379  -0.48272  -0.45132
 Alpha  occ. eigenvalues --   -0.44198  -0.43948  -0.42626  -0.41473  -0.41199
 Alpha  occ. eigenvalues --   -0.39776  -0.38872  -0.38833  -0.38252  -0.37942
 Alpha  occ. eigenvalues --   -0.37087  -0.36881  -0.34683  -0.34626  -0.32378
 Alpha  occ. eigenvalues --   -0.31454  -0.31324  -0.28613  -0.26495  -0.26040
 Alpha  occ. eigenvalues --   -0.24971  -0.24122  -0.23757  -0.15392
 Alpha virt. eigenvalues --   -0.04532  -0.04085  -0.02560  -0.00537   0.00194
 Alpha virt. eigenvalues --    0.00493   0.01442   0.02804   0.03086   0.03149
 Alpha virt. eigenvalues --    0.03773   0.04352   0.05073   0.05140   0.05159

  Beta  occ. eigenvalues -- -482.83694-482.83694 -62.48972 -62.48972 -56.31010
  Beta  occ. eigenvalues --  -56.31009 -56.30623 -56.30622 -56.30604 -56.30604
  Beta  occ. eigenvalues --  -19.07119 -19.07118 -10.24228 -10.24181 -10.22155
  Beta  occ. eigenvalues --  -10.22154 -10.18833 -10.18832 -10.18177 -10.18130
  Beta  occ. eigenvalues --  -10.17040 -10.16983 -10.15397 -10.15396  -8.69936
  Beta  occ. eigenvalues --   -8.69936  -6.53077  -6.53076  -6.51794  -6.51794
  Beta  occ. eigenvalues --   -6.51748  -6.51747  -2.64168  -2.64167  -2.63807
  Beta  occ. eigenvalues --   -2.63807  -2.63774  -2.63773  -2.62755  -2.62754
  Beta  occ. eigenvalues --   -2.62754  -2.62753  -0.99311  -0.99016  -0.89012
  Beta  occ. eigenvalues --   -0.82892  -0.81168  -0.80249  -0.74884  -0.74011
  Beta  occ. eigenvalues --   -0.72226  -0.67162  -0.64897  -0.61510  -0.58237
  Beta  occ. eigenvalues --   -0.55455  -0.51448  -0.48144  -0.48043  -0.44986
  Beta  occ. eigenvalues --   -0.44153  -0.43177  -0.42322  -0.40901  -0.40872
  Beta  occ. eigenvalues --   -0.39185  -0.38718  -0.38716  -0.38180  -0.36839
  Beta  occ. eigenvalues --   -0.36743  -0.35001  -0.34457  -0.34444  -0.32141
  Beta  occ. eigenvalues --   -0.31446  -0.30487  -0.28599  -0.25476  -0.24486
  Beta  occ. eigenvalues --   -0.24393  -0.23251  -0.23196
  Beta virt. eigenvalues --   -0.08859  -0.04037  -0.03925  -0.01418  -0.00513
  Beta virt. eigenvalues --    0.00242   0.00497   0.01463   0.02809   0.03173
  Beta virt. eigenvalues --    0.03212   0.03797   0.04457   0.05157   0.05260

 Mulliken charges and spin densities:
               1          2
     1  C   -0.202895   0.018039
     2  C    0.063957   0.027529
     3  C    0.063638   0.027535
     4  C    0.437706   0.040415
     5  C    0.438301   0.040436
     6  C   -0.202785   0.018041
     7  C   -1.235676   0.070441
     8  C    0.889271   0.110437
     9  C    0.889112   0.110451
    10  C   -1.235584   0.070434
    11  O   -0.458580   0.228683
    12  O   -0.458590   0.228684
    13  H    0.219084  -0.002230
    14  H    0.219082  -0.002230
    15  Br  -0.161240   0.001638
    16  Br  -0.161200   0.001639
    17  C   -0.540796  -0.001728
    18  C   -0.540923  -0.001737
    19  H    0.184105  -0.001393
    20  H    0.152491   0.004079
    21  H    0.152469   0.004076
    22  H    0.152479   0.004076
    23  H    0.184089  -0.001393
    24  H    0.152485   0.004078
 Sum of Mulliken charges =  -1.00000   1.00000

 Dipole moment (field-independent basis, Debye):
    X=             -5.9598    Y=              0.0001    Z=              0.0007  Tot=              5.9598
 Quadrupole moment (field-independent basis, Debye-Ang):
   XX=           -145.2099   YY=           -158.7494   ZZ=           -122.9980
   XY=             -0.0010   XZ=              0.0024   YZ=              0.0067

 Normal termination of Gaussian 16 at Sun Jan 21 08:18:48 2024.
