 Gaussian 16, Revision A.03,
 Gaussian 16:  ES64L-G16RevA.03 25-Dec-2016

 --------------------------------------
 #P UB3LYP/6-311++G(d,p) nosym opt freq
 --------------------------------------

 -------
 Radical
 -------
 Symbolic Z-matrix:
 Charge = -1 Multiplicity = 2

 SCF Done:  E(UB3LYP) =  -5761.07584155     A.U. after   20 cycles
 SCF Done:  E(UB3LYP) =  -5761.07584106     A.U. after   11 cycles
 SCF Done:  E(UB3LYP) =  -5761.07584191     A.U. after   10 cycles
 SCF Done:  E(UB3LYP) =  -5761.07584204     A.U. after   10 cycles
 SCF Done:  E(UB3LYP) =  -5761.07584295     A.U. after   11 cycles
 SCF Done:  E(UB3LYP) =  -5761.01725425     A.U. after   18 cycles
 SCF Done:  E(UB3LYP) =  -5761.07610379     A.U. after   15 cycles
 SCF Done:  E(UB3LYP) =  -5761.07517003     A.U. after   15 cycles
 SCF Done:  E(UB3LYP) =  -5761.07641170     A.U. after   16 cycles
 SCF Done:  E(UB3LYP) =  -5761.07687705     A.U. after   15 cycles
 SCF Done:  E(UB3LYP) =  -5761.07754453     A.U. after   12 cycles
 SCF Done:  E(UB3LYP) =  -5761.07749078     A.U. after   13 cycles
 SCF Done:  E(UB3LYP) =  -5761.07758039     A.U. after   14 cycles
 SCF Done:  E(UB3LYP) =  -5761.07758629     A.U. after   12 cycles
 SCF Done:  E(UB3LYP) =  -5761.07758655     A.U. after   10 cycles
 SCF Done:  E(UB3LYP) =  -5761.07758666     A.U. after   10 cycles
 SCF Done:  E(UB3LYP) =  -5761.07758672     A.U. after   10 cycles
 SCF Done:  E(UB3LYP) =  -5761.07758675     A.U. after    9 cycles
 SCF Done:  E(UB3LYP) =  -5761.07758676     A.U. after    8 cycles
 Optimization completed.
    -- Stationary point found.
 Normal termination of Gaussian 16 at Sun Jan  7 22:08:53 2024.

 ----------------------------------------------------------------------
 #P Geom=AllCheck Guess=TCheck SCRF=Check GenChk UB3LYP/6-311++G(d,p) F
 req
 ----------------------------------------------------------------------

 Structure from the checkpoint file:  "235-rad.chk"
 -------
 Radical
 -------
 Charge = -1 Multiplicity = 2

                          Input orientation:
 ---------------------------------------------------------------------
 Center     Atomic      Atomic             Coordinates (Angstroms)
 Number     Number       Type             X           Y           Z
 ---------------------------------------------------------------------
      1          6           0        5.849126   -5.214987    1.174728
      2          6           0        6.756210   -5.120045    0.138964
      3          6           0        6.569351   -4.154067   -0.873256
      4          6           0        4.734276   -4.360558    1.240227
      5          6           0        4.546908   -3.391372    0.224870
      6          6           0        5.480285   -3.307842   -0.823476
      7          6           0        3.789057   -4.490038    2.357298
      8          6           0        2.665562   -3.573540    2.354539
      9          6           0        2.481818   -2.622591    1.358451
     10          6           0        3.399508   -2.474247    0.245781
     11          8           0        3.964457   -5.355995    3.256282
     12          8           0        3.241466   -1.614777   -0.662599
     13          1           0        5.971042   -5.947530    1.962301
     14          1           0        5.315636   -2.559198   -1.587784
     15         35           0        8.254715   -6.331427    0.129787
     16         35           0        7.797229   -3.968695   -2.346553
     17          6           0        1.687187   -3.696311    3.496323
     18          6           0        1.298947   -1.686828    1.391710
     19          1           0        2.008421   -4.495155    4.164550
     20          1           0        0.675022   -3.922299    3.138703
     21          1           0        1.616876   -2.764152    4.070400
     22          1           0        0.349059   -2.235243    1.372302
     23          1           0        1.337276   -1.023260    0.527949
     24          1           0        1.291373   -1.077275    2.303750
 ---------------------------------------------------------------------

 SCF Done:  E(UB3LYP) =  -5761.07758676     A.U. after    2 cycles

 Alpha  occ. eigenvalues -- -482.73171-482.73170 -62.38455 -62.38454 -56.20483
 Alpha  occ. eigenvalues --  -56.20483 -56.20110 -56.20110 -56.20092 -56.20091
 Alpha  occ. eigenvalues --  -18.95360 -18.95359 -10.13159 -10.13113 -10.10179
 Alpha  occ. eigenvalues --  -10.10178 -10.07439 -10.07437 -10.06570 -10.06523
 Alpha  occ. eigenvalues --  -10.05557 -10.05501 -10.04861 -10.04860  -8.59423
 Alpha  occ. eigenvalues --   -8.59422  -6.42542  -6.42541  -6.41294  -6.41293
 Alpha  occ. eigenvalues --   -6.41250  -6.41249  -2.53640  -2.53638  -2.53287
 Alpha  occ. eigenvalues --   -2.53286  -2.53255  -2.53255  -2.52262  -2.52261
 Alpha  occ. eigenvalues --   -2.52261  -2.52260  -0.87985  -0.87694  -0.77903
 Alpha  occ. eigenvalues --   -0.71859  -0.70467  -0.69262  -0.63716  -0.63099
 Alpha  occ. eigenvalues --   -0.61498  -0.56271  -0.53989  -0.50305  -0.47237
 Alpha  occ. eigenvalues --   -0.44209  -0.40068  -0.37086  -0.36707  -0.33945
 Alpha  occ. eigenvalues --   -0.32742  -0.32732  -0.30902  -0.30091  -0.29243
 Alpha  occ. eigenvalues --   -0.28930  -0.27779  -0.27686  -0.27292  -0.26443
 Alpha  occ. eigenvalues --   -0.25728  -0.25080  -0.23414  -0.22982  -0.21679
 Alpha  occ. eigenvalues --   -0.20921  -0.20044  -0.18122  -0.14824  -0.14660
 Alpha  occ. eigenvalues --   -0.12848  -0.12506  -0.11442  -0.03274
 Alpha virt. eigenvalues --    0.05887   0.07000   0.08131   0.08728   0.09071
 Alpha virt. eigenvalues --    0.09663   0.10456   0.11359   0.11950   0.12461
 Alpha virt. eigenvalues --    0.13146   0.13196   0.13665   0.14295   0.14370

  Beta  occ. eigenvalues -- -482.73170-482.73170 -62.38455 -62.38454 -56.20484
  Beta  occ. eigenvalues --  -56.20483 -56.20108 -56.20107 -56.20092 -56.20091
  Beta  occ. eigenvalues --  -18.94691 -18.94690 -10.13107 -10.13060 -10.10056
  Beta  occ. eigenvalues --  -10.10055 -10.07454 -10.07452 -10.06483 -10.06436
  Beta  occ. eigenvalues --  -10.05432 -10.05375 -10.04871 -10.04870  -8.59422
  Beta  occ. eigenvalues --   -8.59421  -6.42543  -6.42542  -6.41290  -6.41289
  Beta  occ. eigenvalues --   -6.41249  -6.41249  -2.53640  -2.53639  -2.53285
  Beta  occ. eigenvalues --   -2.53284  -2.53256  -2.53255  -2.52259  -2.52259
  Beta  occ. eigenvalues --   -2.52258  -2.52258  -0.86857  -0.86525  -0.77774
  Beta  occ. eigenvalues --   -0.71467  -0.70412  -0.69085  -0.63571  -0.62905
  Beta  occ. eigenvalues --   -0.61224  -0.56110  -0.53307  -0.50246  -0.46883
  Beta  occ. eigenvalues --   -0.43909  -0.39933  -0.36864  -0.36494  -0.33824
  Beta  occ. eigenvalues --   -0.32696  -0.32222  -0.30559  -0.29730  -0.28849
  Beta  occ. eigenvalues --   -0.28636  -0.27656  -0.27531  -0.26976  -0.25683
  Beta  occ. eigenvalues --   -0.25224  -0.23241  -0.22865  -0.22683  -0.21332
  Beta  occ. eigenvalues --   -0.20913  -0.19291  -0.18111  -0.14086  -0.12843
  Beta  occ. eigenvalues --   -0.11884  -0.11525  -0.10830
  Beta virt. eigenvalues --    0.03325   0.05932   0.07531   0.08138   0.09099
  Beta virt. eigenvalues --    0.09668   0.09890   0.10461   0.11373   0.11963
  Beta virt. eigenvalues --    0.12472   0.13151   0.13223   0.13668   0.14306

 Mulliken charges and spin densities:
               1          2
     1  C   -0.205804   0.009861
     2  C    0.116087   0.029995
     3  C    0.115581   0.030003
     4  C    0.514306   0.052661
     5  C    0.514871   0.052684
     6  C   -0.205665   0.009859
     7  C   -1.404041   0.040235
     8  C    0.979979   0.116921
     9  C    0.979650   0.116931
    10  C   -1.403853   0.040230
    11  O   -0.369594   0.246632
    12  O   -0.369617   0.246633
    13  H    0.223604  -0.002072
    14  H    0.223598  -0.002071
    15  Br  -0.224193   0.000977
    16  Br  -0.224128   0.000978
    17  C   -0.571673  -0.001863
    18  C   -0.571753  -0.001869
    19  H    0.201322  -0.001781
    20  H    0.120014   0.004211
    21  H    0.120006   0.004207
    22  H    0.120003   0.004207
    23  H    0.201300  -0.001781
    24  H    0.120000   0.004210
 Sum of Mulliken charges =  -1.00000   1.00000

 Dipole moment (field-independent basis, Debye):
    X=            -22.5195    Y=             18.7033    Z=             -3.3940  Tot=             29.4696
 Quadrupole moment (field-independent basis, Debye-Ang):
   XX=           -248.9503   YY=           -214.5491   ZZ=           -148.6020
   XY=             97.9592   XZ=             -8.5474   YZ=             25.5110

  Exact polarizability: 263.627 -68.373 188.692 -70.983 -29.351 217.736
 Approx polarizability: 364.704 -91.429 316.809 -76.959 -82.206 356.335

                      1                      2                      3
                      A                      A                      A
 Frequencies --     41.1319                54.3408                75.5889
 Red. masses --     11.1354                 5.0975                 1.0661
 Frc consts  --      0.0111                 0.0089                 0.0036
 IR Inten    --      0.0000                 4.0265                 0.0003

                      4                      5                      6
                      A                      A                      A
 Frequencies --    121.6776               123.4117               126.4787
 Red. masses --      6.6557                51.4648                 3.0642
 Frc consts  --      0.0581                 0.4618                 0.0289
 IR Inten    --      5.9815                 0.6768                 0.0026

                      7                      8                      9
                      A                      A                      A
 Frequencies --    127.3904               131.1774               202.7386
 Red. masses --      9.7320                 1.1317                 5.8555
 Frc consts  --      0.0931                 0.0115                 0.1418
 IR Inten    --      0.4758                 0.4843                 0.0000

                     10                     11                     12
                      A                      A                      A
 Frequencies --    221.0844               227.8020               229.8490
 Red. masses --     15.1349                 4.6494                12.8350
 Frc consts  --      0.4359                 0.1422                 0.3995
 IR Inten    --      1.2965                 0.4747                 0.0327

                     13                     14                     15
                      A                      A                      A
 Frequencies --    320.5384               337.9641               339.2920
 Red. masses --      2.6378                 3.8211                 6.5033
 Frc consts  --      0.1597                 0.2571                 0.4411
 IR Inten    --      0.6481                 1.4245                 3.8344

                     16                     17                     18
                      A                      A                      A
 Frequencies --    409.1671               413.3374               435.7429
 Red. masses --      7.7449                 8.7854                 6.2022
 Frc consts  --      0.7640                 0.8843                 0.6938
 IR Inten    --      2.5337                19.9603                 0.0000

                     19                     20                     21
                      A                      A                      A
 Frequencies --    442.6812               460.6883               479.1608
 Red. masses --      3.3162                 5.7130                11.0321
 Frc consts  --      0.3829                 0.7144                 1.4923
 IR Inten    --      2.3697                 0.2436                 5.7260

                     22                     23                     24
                      A                      A                      A
 Frequencies --    552.6945               554.1759               642.6196
 Red. masses --      7.0554                 7.1452                 4.9049
 Frc consts  --      1.2698                 1.2929                 1.1934
 IR Inten    --     23.8624                 0.0031                 0.0006

                     25                     26                     27
                      A                      A                      A
 Frequencies --    650.9949               683.7926               704.5877
 Red. masses --      5.2558                 7.1003                 4.9158
 Frc consts  --      1.3123                 1.9560                 1.4379
 IR Inten    --     23.6517                 8.8518                29.7589

                     28                     29                     30
                      A                      A                      A
 Frequencies --    715.5075               779.5582               847.8884
 Red. masses --      6.0541                 5.6644                 4.2340
 Frc consts  --      1.8261                 2.0281                 1.7934
 IR Inten    --     11.1496                 0.0000                19.6161

                     31                     32                     33
                      A                      A                      A
 Frequencies --    911.2081               915.1594               935.9320
 Red. masses --      1.3607                 3.2024                 1.4018
 Frc consts  --      0.6657                 1.5802                 0.7235
 IR Inten    --      0.0000                 0.7991                19.6309

                     34                     35                     36
                      A                      A                      A
 Frequencies --    986.0202              1016.7752              1027.7041
 Red. masses --      4.4352                 1.6896                 1.4151
 Frc consts  --      2.5406                 1.0292                 0.8806
 IR Inten    --     45.2318                 5.7347                 0.0484

                     37                     38                     39
                      A                      A                      A
 Frequencies --   1056.0050              1095.5344              1111.1935
 Red. masses --      1.5276                 1.8092                 2.7159
 Frc consts  --      1.0036                 1.2794                 1.9758
 IR Inten    --      0.0000                14.0497                11.5301

                     40                     41                     42
                      A                      A                      A
 Frequencies --   1171.1584              1176.3117              1213.1419
 Red. masses --      5.6805                 5.4213                 6.9944
 Frc consts  --      4.5906                 4.4198                 6.0649
 IR Inten    --      9.7985                 6.0935                51.2054

                     43                     44                     45
                      A                      A                      A
 Frequencies --   1232.4670              1340.4170              1344.0047
 Red. masses --      1.2770                 4.4699                11.0226
 Frc consts  --      1.1429                 4.7319                11.7311
 IR Inten    --      5.5273                17.1567                 5.8817

                     46                     47                     48
                      A                      A                      A
 Frequencies --   1373.5745              1389.8535              1429.4321
 Red. masses --      1.5242                 1.2664                 3.0911
 Frc consts  --      1.6944                 1.4413                 3.7212
 IR Inten    --     53.4208                 4.0235                 0.6132

                     49                     50                     51
                      A                      A                      A
 Frequencies --   1438.5819              1474.9099              1487.8273
 Red. masses --      2.8355                 1.2119                 1.3107
 Frc consts  --      3.4574                 1.5533                 1.7094
 IR Inten    --    120.5095                 2.9458                40.6934

                     52                     53                     54
                      A                      A                      A
 Frequencies --   1491.2808              1506.8884              1507.5894
 Red. masses --      1.0480                 1.0474                 8.5108
 Frc consts  --      1.3733                 1.4013                11.3969
 IR Inten    --      0.0006                13.9390               552.3487

                     55                     56                     57
                      A                      A                      A
 Frequencies --   1512.0653              1519.9090              1586.7110
 Red. masses --     10.2396                 4.3779                 7.7210
 Frc consts  --     13.7935                 5.9587                11.4530
 IR Inten    --     53.8113                24.6302                18.5521

                     58                     59                     60
                      A                      A                      A
 Frequencies --   1604.5373              2993.6620              2995.6032
 Red. masses --      9.8192                 1.0415                 1.0403
 Frc consts  --     14.8945                 5.4993                 5.5001
 IR Inten    --      2.0837                 6.7515               208.0568

                     61                     62                     63
                      A                      A                      A
 Frequencies --   3027.5970              3029.0496              3115.6503
 Red. masses --      1.0989                 1.0989                 1.0946
 Frc consts  --      5.9347                 5.9403                 6.2603
 IR Inten    --     81.0340                 0.0611                 2.3631

                     64                     65                     66
                      A                      A                      A
 Frequencies --   3116.0798              3199.7290              3201.4504
 Red. masses --      1.0947                 1.0899                 1.0903
 Frc consts  --      6.2626                 6.5742                 6.5839
 IR Inten    --     13.2352                 1.3765                 9.9039

 - Thermochemistry -
 -------------------
 Temperature   298.150 Kelvin.  Pressure   1.00000 Atm.
 Atom     1 has atomic number  6 and mass  12.00000

 Molecular mass:   341.88910 amu.
 Principal axes and moments of inertia in atomic units:
                           1         2         3
     Eigenvalues --  3320.837419899.58375**********
           X            0.83411   0.13237   0.53548
           Y           -0.31391  -0.68433   0.65814
           Z           -0.45357   0.71706   0.52925
 This molecule is an asymmetric top.
 Rotational symmetry number  1.
 Warning -- assumption of classical behavior for rotation
           may cause significant error
 Rotational temperatures (Kelvin)      0.02608     0.00875     0.00656
 Rotational constants (GHZ):           0.54346     0.18230     0.13674
 Zero-point vibrational energy     430584.3 (Joules/Mol)
                                  102.91212 (Kcal/Mol)
 Warning -- explicit consideration of  23 degrees of freedom as
           vibrations may cause significant error
 Vibrational temperatures:     59.18    78.18   108.76   175.07   177.56
          (Kelvin)            181.97   183.29   188.74   291.70   318.09
                              327.76   330.70   461.18   486.25   488.17
                              588.70   594.70   626.94   636.92   662.83
                              689.41   795.20   797.34   924.59   936.64
                              983.83  1013.74  1029.46  1121.61  1219.92
                             1311.03  1316.71  1346.60  1418.66  1462.91
                             1478.64  1519.36  1576.23  1598.76  1685.04
                             1692.45  1745.44  1773.25  1928.56  1933.72
                             1976.27  1999.69  2056.63  2069.80  2122.07
                             2140.65  2145.62  2168.08  2169.08  2175.52
                             2186.81  2282.92  2308.57  4307.21  4310.00
                             4356.04  4358.13  4482.73  4483.34  4603.70
                             4606.17

 Zero-point correction=                           0.164001 (Hartree/Particle)
 Thermal correction to Energy=                    0.179251
 Thermal correction to Enthalpy=                  0.180195
 Thermal correction to Gibbs Free Energy=         0.118899
 Sum of electronic and zero-point Energies=          -5760.913586
 Sum of electronic and thermal Energies=             -5760.898335
 Sum of electronic and thermal Enthalpies=           -5760.897391
 Sum of electronic and thermal Free Energies=        -5760.958688

                     E (Thermal)             CV                S
                      KCal/Mol        Cal/Mol-Kelvin    Cal/Mol-Kelvin
 Total                  112.482             55.279            129.009
 Electronic               0.000              0.000              1.377
 Translational            0.889              2.981             43.382
 Rotational               0.889              2.981             34.428
 Vibrational            110.704             49.317             49.822
 Vibration     1          0.594              1.981              5.204
 Vibration     2          0.596              1.976              4.653
 Vibration     3          0.599              1.965              4.002
 Vibration     4          0.609              1.931              3.074
 Vibration     5          0.610              1.929              3.046
 Vibration     6          0.611              1.927              2.999
 Vibration     7          0.611              1.926              2.985
 Vibration     8          0.612              1.922              2.929
 Vibration     9          0.639              1.836              2.108
 Vibration    10          0.648              1.809              1.950
 Vibration    11          0.651              1.799              1.896
 Vibration    12          0.652              1.795              1.880
 Vibration    13          0.706              1.634              1.307
 Vibration    14          0.718              1.600              1.222
 Vibration    15          0.719              1.597              1.215
 Vibration    16          0.774              1.450              0.930
 Vibration    17          0.777              1.441              0.915
 Vibration    18          0.796              1.392              0.840
 Vibration    19          0.802              1.377              0.818
 Vibration    20          0.819              1.337              0.764
 Vibration    21          0.836              1.296              0.712
 Vibration    22          0.908              1.134              0.539
 Vibration    23          0.910              1.131              0.536

 Optimization completed.
    -- Stationary point found.
 Normal termination of Gaussian 16 at Sun Jan  7 22:50:48 2024.
