 Gaussian 16, Revision A.03,
 Gaussian 16:  ES64L-G16RevA.03 25-Dec-2016

 ----------------------------------------------------------------
 #P UB3LYP/6-311++G(d,p) SCRF=(PCM,Solvent=n,n-DiMethylFormamide)
 ----------------------------------------------------------------

 -------
 Reduced
 -------
 Symbolic Z-matrix:
 Charge = -2 Multiplicity = 1

                         Standard orientation:
 ---------------------------------------------------------------------
 Center     Atomic      Atomic             Coordinates (Angstroms)
 Number     Number       Type             X           Y           Z
 ---------------------------------------------------------------------
      1          8           0       -0.820379    2.789806   -0.300223
      2          6           0       -0.746534    1.519597   -0.148856
      3          6           0       -2.028452    0.749097   -0.154675
      4          8           0       -2.396378   -0.011192    1.032031
      5          6           0       -2.028969   -0.742808   -0.175190
      6          6           0       -0.747706   -1.512717   -0.186333
      7          8           0       -0.820559   -2.783076   -0.338969
      8          6           0        0.434223   -0.738610   -0.041465
      9          6           0        1.695311   -1.398515    0.077839
     10          6           0        2.888247   -0.722354    0.151142
     11          6           0        2.894329    0.714495    0.101136
     12          6           0        1.705064    1.395498    0.010040
     13          6           0        0.436488    0.741970   -0.034566
     14          1           0       -2.872175    1.296931   -0.580318
     15          1           0       -2.874723   -1.279892   -0.609990
     16          1           0        1.673377   -2.484579    0.101342
     17          1           0        3.829216   -1.264211    0.236262
     18          1           0        3.839897    1.252445    0.144330
     19          1           0        1.690931    2.481074   -0.028766
 ---------------------------------------------------------------------

 SCF Done:  E(UB3LYP) =  -610.685615629     A.U. after   16 cycles

 The electronic state is 1-A.
 Alpha  occ. eigenvalues --  -19.11293 -19.02808 -19.02788 -10.19455 -10.19420
 Alpha  occ. eigenvalues --  -10.17141 -10.17110 -10.13943 -10.13940 -10.13627
 Alpha  occ. eigenvalues --  -10.13586 -10.12024 -10.11994  -1.04157  -0.94178
 Alpha  occ. eigenvalues --   -0.94140  -0.81001  -0.73030  -0.71515  -0.66419
 Alpha  occ. eigenvalues --   -0.65153  -0.59031  -0.57900  -0.52216  -0.48589
 Alpha  occ. eigenvalues --   -0.48022  -0.46981  -0.41994  -0.40358  -0.39259
 Alpha  occ. eigenvalues --   -0.39211  -0.37503  -0.36752  -0.36226  -0.35761
 Alpha  occ. eigenvalues --   -0.32200  -0.31341  -0.30402  -0.30015  -0.27698
 Alpha  occ. eigenvalues --   -0.26237  -0.22451  -0.21189  -0.20101  -0.19957
 Alpha  occ. eigenvalues --   -0.09215
 Alpha virt. eigenvalues --   -0.01874   0.00326   0.01404   0.01748   0.03198
 Alpha virt. eigenvalues --    0.03283   0.03592   0.04903   0.05856   0.06204
 Alpha virt. eigenvalues --    0.06406   0.07032   0.07318   0.08237   0.09747

  Beta  occ. eigenvalues --  -19.11293 -19.02808 -19.02788 -10.19455 -10.19420
  Beta  occ. eigenvalues --  -10.17141 -10.17110 -10.13943 -10.13940 -10.13627
  Beta  occ. eigenvalues --  -10.13586 -10.12024 -10.11994  -1.04157  -0.94178
  Beta  occ. eigenvalues --   -0.94140  -0.81001  -0.73030  -0.71515  -0.66419
  Beta  occ. eigenvalues --   -0.65153  -0.59031  -0.57900  -0.52216  -0.48589
  Beta  occ. eigenvalues --   -0.48022  -0.46981  -0.41994  -0.40358  -0.39259
  Beta  occ. eigenvalues --   -0.39211  -0.37503  -0.36752  -0.36226  -0.35761
  Beta  occ. eigenvalues --   -0.32200  -0.31341  -0.30402  -0.30015  -0.27698
  Beta  occ. eigenvalues --   -0.26237  -0.22451  -0.21189  -0.20101  -0.19957
  Beta  occ. eigenvalues --   -0.09215
  Beta virt. eigenvalues --   -0.01874   0.00326   0.01404   0.01748   0.03198
  Beta virt. eigenvalues --    0.03283   0.03592   0.04903   0.05856   0.06204
  Beta virt. eigenvalues --    0.06406   0.07032   0.07318   0.08237   0.09747

 Mulliken charges and spin densities:
               1          2
     1  O   -0.652655   0.000000
     2  C   -0.287748  -0.000000
     3  C   -0.017618   0.000000
     4  O   -0.251348  -0.000000
     5  C   -0.096333  -0.000000
     6  C   -0.334064   0.000000
     7  O   -0.653060  -0.000000
     8  C    0.172488  -0.000000
     9  C    0.060290  -0.000000
    10  C   -0.409049   0.000000
    11  C   -0.479911   0.000000
    12  C   -0.013011  -0.000000
    13  C    0.064253   0.000000
    14  H    0.169093  -0.000000
    15  H    0.171004   0.000000
    16  H    0.131835  -0.000000
    17  H    0.145973   0.000000
    18  H    0.144570  -0.000000
    19  H    0.135292   0.000000
 Sum of Mulliken charges =  -2.00000   0.00000

 Dipole moment (field-independent basis, Debye):
    X=              3.0453    Y=              0.0344    Z=             -0.4025  Tot=              3.0720
 Quadrupole moment (field-independent basis, Debye-Ang):
   XX=            -99.1165   YY=           -137.9553   ZZ=            -88.9991
   XY=             -0.0654   XZ=              4.4923   YZ=             -0.4570

 Normal termination of Gaussian 16 at Thu Jan 25 05:44:58 2024.
