 Gaussian 16, Revision A.03,
 Gaussian 16:  ES64L-G16RevA.03 25-Dec-2016

 --------------------------------------
 #P UB3LYP/6-311++G(d,p) nosym opt freq
 --------------------------------------

 -------
 Reduced
 -------
 Symbolic Z-matrix:
 Charge = -2 Multiplicity = 1

 SCF Done:  E(UB3LYP) =  -728.192982596     A.U. after   39 cycles
 Optimization completed.
    -- Stationary point found.
 Normal termination of Gaussian 16 at Tue Jan  9 20:39:23 2024.

 ----------------------------------------------------------------------
 #P Geom=AllCheck Guess=TCheck SCRF=Check GenChk UB3LYP/6-311++G(d,p) F
 req
 ----------------------------------------------------------------------

 Structure from the checkpoint file:  "345-an.chk"
 -------
 Reduced
 -------
 Charge = -2 Multiplicity = 1

                          Input orientation:
 ---------------------------------------------------------------------
 Center     Atomic      Atomic             Coordinates (Angstroms)
 Number     Number       Type             X           Y           Z
 ---------------------------------------------------------------------
      1          8           0        1.983471   -3.089908    0.840510
      2          6           0        1.472004   -1.962350    0.559777
      3          6           0        0.086689   -1.689645    0.477263
      4          6           0       -0.468600   -0.437602    0.182287
      5          8           0        0.406859    0.621723   -0.112915
      6          6           0        1.753640    0.460291   -0.000625
      7          6           0        2.544751    1.594382   -0.213902
      8          6           0        3.941377    1.492034   -0.151869
      9          6           0        4.536234    0.270654    0.157708
     10          6           0        3.735997   -0.850078    0.406043
     11          6           0        2.336284   -0.782393    0.314783
     12          6           0       -1.838957   -0.088506    0.069558
     13          6           0       -2.893340   -1.048008    0.257579
     14          6           0       -4.226165   -0.685334    0.194314
     15          6           0       -4.620724    0.636890   -0.086252
     16          6           0       -3.605723    1.576760   -0.344303
     17          6           0       -2.265217    1.237480   -0.283724
     18          1           0       -0.585753   -2.514048    0.680977
     19          1           0        2.057363    2.534300   -0.450357
     20          1           0        4.555481    2.368713   -0.348778
     21          1           0        5.619968    0.194081    0.208035
     22          1           0        4.162556   -1.812723    0.664846
     23          1           0       -2.641974   -2.081588    0.467315
     24          1           0       -4.987677   -1.445746    0.365507
     25          1           0       -5.669748    0.912718   -0.129999
     26          1           0       -3.876988    2.601323   -0.596277
     27          1           0       -1.511805    1.986581   -0.493555
 ---------------------------------------------------------------------

 SCF Done:  E(UB3LYP) =  -728.192982596     A.U. after   12 cycles

 Alpha  occ. eigenvalues --  -18.95020 -18.82755 -10.02703  -9.99861  -9.98970
 Alpha  occ. eigenvalues --   -9.96865  -9.96326  -9.96072  -9.95979  -9.95704
 Alpha  occ. eigenvalues --   -9.95598  -9.95573  -9.95512  -9.94927  -9.94600
 Alpha  occ. eigenvalues --   -9.94263  -9.92957  -0.86698  -0.74727  -0.64409
 Alpha  occ. eigenvalues --   -0.62924  -0.57267  -0.55102  -0.52992  -0.52309
 Alpha  occ. eigenvalues --   -0.50688  -0.43734  -0.41662  -0.38753  -0.37651
 Alpha  occ. eigenvalues --   -0.36159  -0.31686  -0.30951  -0.29902  -0.26599
 Alpha  occ. eigenvalues --   -0.25016  -0.24423  -0.23034  -0.22364  -0.21526
 Alpha  occ. eigenvalues --   -0.20756  -0.20302  -0.18973  -0.16899  -0.16404
 Alpha  occ. eigenvalues --   -0.15655  -0.14569  -0.14170  -0.13836  -0.12827
 Alpha  occ. eigenvalues --   -0.12429  -0.10499  -0.06779  -0.03889  -0.03812
 Alpha  occ. eigenvalues --   -0.01918  -0.00039   0.00674   0.12234
 Alpha virt. eigenvalues --    0.13639   0.14015   0.15202   0.15661   0.16614
 Alpha virt. eigenvalues --    0.18106   0.18249   0.18956   0.19879   0.19982
 Alpha virt. eigenvalues --    0.20790   0.21496   0.22568   0.23184   0.23792

  Beta  occ. eigenvalues --  -18.95020 -18.82755 -10.02703  -9.99861  -9.98970
  Beta  occ. eigenvalues --   -9.96865  -9.96326  -9.96072  -9.95979  -9.95704
  Beta  occ. eigenvalues --   -9.95598  -9.95573  -9.95512  -9.94927  -9.94600
  Beta  occ. eigenvalues --   -9.94263  -9.92957  -0.86698  -0.74727  -0.64409
  Beta  occ. eigenvalues --   -0.62924  -0.57267  -0.55102  -0.52992  -0.52309
  Beta  occ. eigenvalues --   -0.50688  -0.43734  -0.41662  -0.38753  -0.37651
  Beta  occ. eigenvalues --   -0.36159  -0.31686  -0.30951  -0.29902  -0.26599
  Beta  occ. eigenvalues --   -0.25016  -0.24423  -0.23034  -0.22364  -0.21526
  Beta  occ. eigenvalues --   -0.20756  -0.20302  -0.18973  -0.16899  -0.16404
  Beta  occ. eigenvalues --   -0.15655  -0.14569  -0.14170  -0.13836  -0.12827
  Beta  occ. eigenvalues --   -0.12429  -0.10499  -0.06779  -0.03889  -0.03812
  Beta  occ. eigenvalues --   -0.01918  -0.00039   0.00674   0.12234
  Beta virt. eigenvalues --    0.13639   0.14015   0.15202   0.15661   0.16614
  Beta virt. eigenvalues --    0.18106   0.18249   0.18956   0.19879   0.19982
  Beta virt. eigenvalues --    0.20790   0.21496   0.22568   0.23184   0.23792

 Mulliken charges and spin densities:
               1          2
     1  O   -0.476591  -0.000000
     2  C   -0.958587  -0.000000
     3  C   -0.524631  -0.000000
     4  C    1.051708   0.000000
     5  O   -0.034832  -0.000000
     6  C   -1.127138   0.000000
     7  C   -1.879668  -0.000000
     8  C    0.700086  -0.000000
     9  C    1.455080   0.000000
    10  C   -0.754642  -0.000000
    11  C    2.602769   0.000000
    12  C    1.327647   0.000000
    13  C   -1.517240  -0.000000
    14  C   -0.265407   0.000000
    15  C    1.682593  -0.000000
    16  C   -0.220524  -0.000000
    17  C   -0.122408   0.000000
    18  H    0.054134   0.000000
    19  H    0.017807   0.000000
    20  H   -1.269988  -0.000000
    21  H   -0.480515   0.000000
    22  H    0.173928  -0.000000
    23  H    0.213497  -0.000000
    24  H   -0.598080   0.000000
    25  H   -0.833429  -0.000000
    26  H   -0.328775  -0.000000
    27  H    0.113206   0.000000
 Sum of Mulliken charges =  -2.00000   0.00000

 Dipole moment (field-independent basis, Debye):
    X=             -0.6097    Y=              0.7373    Z=             -1.1652  Tot=              1.5077
 Quadrupole moment (field-independent basis, Debye-Ang):
   XX=           -294.4464   YY=           -165.4002   ZZ=           -128.3751
   XY=              1.1379   XZ=              2.7290   YZ=              9.2384

  Exact polarizability:6367.445 391.4552276.576-108.546-466.251 319.728
 Approx polarizability:********2282.5172584.357-672.783-528.688 395.802

                      1                      2                      3
                      A                      A                      A
 Frequencies --     48.6885                61.1991               112.2280
 Red. masses --      4.4182                 5.0284                 5.1160
 Frc consts  --      0.0062                 0.0111                 0.0380
 IR Inten    --      1.9223                 5.8360                 2.3672

                      4                      5                      6
                      A                      A                      A
 Frequencies --    130.9384               159.9649               192.2289
 Red. masses --      4.7861                 4.9224                 4.9010
 Frc consts  --      0.0483                 0.0742                 0.1067
 IR Inten    --     12.8885                 7.6969                 0.6480

                      7                      8                      9
                      A                      A                      A
 Frequencies --    261.9731               269.5194               292.0656
 Red. masses --      6.7983                 6.3214                 6.1820
 Frc consts  --      0.2749                 0.2705                 0.3107
 IR Inten    --      9.2884                16.6262                 2.1534

                     10                     11                     12
                      A                      A                      A
 Frequencies --    346.5266               393.6983               423.0330
 Red. masses --      6.2525                 3.6961                 3.4433
 Frc consts  --      0.4424                 0.3375                 0.3631
 IR Inten    --      3.3276                25.1763                97.8696

                     13                     14                     15
                      A                      A                      A
 Frequencies --    433.2232               486.0255               506.6970
 Red. masses --      3.1558                10.2577                 6.7964
 Frc consts  --      0.3490                 1.4276                 1.0281
 IR Inten    --     40.0468                66.7885                14.6418

                     16                     17                     18
                      A                      A                      A
 Frequencies --    543.8928               579.5993               590.4084
 Red. masses --      3.2996                 8.2995                 5.0305
 Frc consts  --      0.5751                 1.6427                 1.0332
 IR Inten    --      7.5429                48.1164                80.0885

                     19                     20                     21
                      A                      A                      A
 Frequencies --    603.0351               630.1735               641.9943
 Red. masses --      6.0886                 6.3456                 3.1916
 Frc consts  --      1.3045                 1.4847                 0.7750
 IR Inten    --     14.6478                49.2332                31.9596

                     22                     23                     24
                      A                      A                      A
 Frequencies --    667.3544               693.3416               732.3514
 Red. masses --      6.4332                 2.3498                 1.4039
 Frc consts  --      1.6881                 0.6655                 0.4436
 IR Inten    --     28.3846                15.5959               164.8183

                     25                     26                     27
                      A                      A                      A
 Frequencies --    745.0270               748.4827               775.2916
 Red. masses --      4.1715                 3.1756                 1.4882
 Frc consts  --      1.3642                 1.0482                 0.5270
 IR Inten    --     31.5461                17.6119               153.0148

                     28                     29                     30
                      A                      A                      A
 Frequencies --    801.2261               811.7402               819.5757
 Red. masses --      1.5347                 1.2998                 1.6593
 Frc consts  --      0.5805                 0.5046                 0.6567
 IR Inten    --     63.4856                33.7306                42.0438

                     31                     32                     33
                      A                      A                      A
 Frequencies --    836.6663               841.5755               875.2689
 Red. masses --      1.6875                 5.4787                 5.9667
 Frc consts  --      0.6960                 2.2862                 2.6932
 IR Inten    --     50.9303                66.1190               161.9073

                     34                     35                     36
                      A                      A                      A
 Frequencies --    923.7815               950.2983               961.9058
 Red. masses --      1.2846                 1.2688                 5.3373
 Frc consts  --      0.6459                 0.6751                 2.9096
 IR Inten    --    122.7351                40.4468               556.9540

                     37                     38                     39
                      A                      A                      A
 Frequencies --    971.2927               985.6459               989.0136
 Red. masses --      1.2932                 1.4875                 3.6830
 Frc consts  --      0.7188                 0.8514                 2.1226
 IR Inten    --    294.8325                88.7640               149.1007

                     40                     41                     42
                      A                      A                      A
 Frequencies --   1015.2876              1038.5226              1083.5996
 Red. masses --      2.1779                 1.9905                 1.7018
 Frc consts  --      1.3227                 1.2649                 1.1773
 IR Inten    --    183.8419               149.5665               140.1957

                     43                     44                     45
                      A                      A                      A
 Frequencies --   1094.2039              1130.6660              1152.7736
 Red. masses --      2.0460                 2.1983                 1.1412
 Frc consts  --      1.4433                 1.6558                 0.8935
 IR Inten    --     64.2812                 4.6431               238.6841

                     46                     47                     48
                      A                      A                      A
 Frequencies --   1158.6359              1183.0497              1232.1477
 Red. masses --      1.1292                 1.2620                 2.5140
 Frc consts  --      0.8932                 1.0407                 2.2488
 IR Inten    --    263.4318               689.3372               245.3511

                     49                     50                     51
                      A                      A                      A
 Frequencies --   1242.2104              1261.7641              1269.6442
 Red. masses --      2.1140                 2.0249                 3.4376
 Frc consts  --      1.9220                 1.8994                 3.2649
 IR Inten    --    296.5980               247.6153               385.6059

                     52                     53                     54
                      A                      A                      A
 Frequencies --   1312.7690              1330.7713              1355.4751
 Red. masses --      4.9700                 2.6451                 4.9477
 Frc consts  --      5.0464                 2.7600                 5.3559
 IR Inten    --    218.7086               134.5444                25.3245

                     55                     56                     57
                      A                      A                      A
 Frequencies --   1359.5042              1418.9666              1460.4404
 Red. masses --      3.0887                 2.6373                 2.7420
 Frc consts  --      3.3635                 3.1287                 3.4458
 IR Inten    --     97.4065               321.5538                46.3955

                     58                     59                     60
                      A                      A                      A
 Frequencies --   1475.5615              1483.0891              1499.0369
 Red. masses --      2.4596                 2.6309                 3.1327
 Frc consts  --      3.1553                 3.4095                 4.1476
 IR Inten    --     64.3519              1264.2597               676.3772

                     61                     62                     63
                      A                      A                      A
 Frequencies --   1517.5599              1534.7379              1576.0005
 Red. masses --      3.3772                 4.9071                 5.9716
 Frc consts  --      4.5824                 6.8099                 8.7388
 IR Inten    --    354.4313               549.4514                27.2276

                     64                     65                     66
                      A                      A                      A
 Frequencies --   1591.0086              1611.9216              3096.4670
 Red. masses --      5.8488                 6.3053                 1.0853
 Frc consts  --      8.7229                 9.6526                 6.1311
 IR Inten    --   1098.3925               130.5642               556.2362

                     67                     68                     69
                      A                      A                      A
 Frequencies --   3102.7539              3111.3035              3131.2021
 Red. masses --      1.0881                 1.0847                 1.0928
 Frc consts  --      6.1718                 6.1864                 6.3129
 IR Inten    --    750.7349               435.8954               828.4247

                     70                     71                     72
                      A                      A                      A
 Frequencies --   3150.3830              3161.6392              3162.4789
 Red. masses --      1.0915                 1.0904                 1.0910
 Frc consts  --      6.3829                 6.4217                 6.4286
 IR Inten    --    528.9338                47.1285                86.1724

                     73                     74                     75
                      A                      A                      A
 Frequencies --   3175.7516              3182.4177              3183.7720
 Red. masses --      1.0900                 1.0890                 1.0876
 Frc consts  --      6.4770                 6.4984                 6.4954
 IR Inten    --     55.8321                23.1200                15.6788

 - Thermochemistry -
 -------------------
 Temperature   298.150 Kelvin.  Pressure   1.00000 Atm.
 Atom     1 has atomic number  8 and mass  15.99491

 Molecular mass:   222.06808 amu.
 Principal axes and moments of inertia in atomic units:
                           1         2         3
     Eigenvalues --  1567.060686651.338018216.71952
           X            0.99697   0.07509  -0.02012
           Y           -0.06865   0.97188   0.22527
           Z            0.03647  -0.22320   0.97409
 This molecule is an asymmetric top.
 Rotational symmetry number  1.
 Warning -- assumption of classical behavior for rotation
           may cause significant error
 Rotational temperatures (Kelvin)      0.05527     0.01302     0.01054
 Rotational constants (GHZ):           1.15167     0.27134     0.21964
 Zero-point vibrational energy     530450.9 (Joules/Mol)
                                  126.78081 (Kcal/Mol)
 Warning -- explicit consideration of  19 degrees of freedom as
           vibrations may cause significant error
 Vibrational temperatures:     70.05    88.05   161.47   188.39   230.15
          (Kelvin)            276.57   376.92   387.78   420.22   498.57
                              566.44   608.65   623.31   699.28   729.02
                              782.54   833.91   849.47   867.63   906.68
                              923.69   960.17   997.56  1053.69  1071.93
                             1076.90  1115.47  1152.79  1167.91  1179.19
                             1203.78  1210.84  1259.32  1329.12  1367.27
                             1383.97  1397.47  1418.12  1422.97  1460.77
                             1494.20  1559.06  1574.32  1626.78  1658.58
                             1667.02  1702.14  1772.79  1787.26  1815.40
                             1826.73  1888.78  1914.68  1950.23  1956.02
                             2041.58  2101.25  2123.00  2133.83  2156.78
                             2183.43  2208.15  2267.51  2289.11  2319.20
                             4455.13  4464.17  4476.47  4505.10  4532.70
                             4548.89  4550.10  4569.20  4578.79  4580.74

 Zero-point correction=                           0.202038 (Hartree/Particle)
 Thermal correction to Energy=                    0.214772
 Thermal correction to Enthalpy=                  0.215716
 Thermal correction to Gibbs Free Energy=         0.162471
 Sum of electronic and zero-point Energies=           -727.990945
 Sum of electronic and thermal Energies=              -727.978210
 Sum of electronic and thermal Enthalpies=            -727.977266
 Sum of electronic and thermal Free Energies=         -728.030511

                     E (Thermal)             CV                S
                      KCal/Mol        Cal/Mol-Kelvin    Cal/Mol-Kelvin
 Total                  134.772             52.259            112.064
 Electronic               0.000              0.000              0.000
 Translational            0.889              2.981             42.096
 Rotational               0.889              2.981             32.815
 Vibrational            132.994             46.297             37.152
 Vibration     1          0.595              1.978              4.870
 Vibration     2          0.597              1.973              4.418
 Vibration     3          0.607              1.939              3.230
 Vibration     4          0.612              1.922              2.932
 Vibration     5          0.622              1.891              2.550
 Vibration     6          0.634              1.851              2.206
 Vibration     7          0.669              1.742              1.649
 Vibration     8          0.674              1.729              1.599
 Vibration     9          0.687              1.689              1.462
 Vibration    10          0.725              1.582              1.182
 Vibration    11          0.761              1.484              0.986
 Vibration    12          0.785              1.420              0.882
 Vibration    13          0.794              1.398              0.848
 Vibration    14          0.842              1.281              0.694
 Vibration    15          0.862              1.235              0.642
 Vibration    16          0.899              1.153              0.557
 Vibration    17          0.936              1.075              0.486
 Vibration    18          0.948              1.052              0.466
 Vibration    19          0.961              1.025              0.444

 Optimization completed.
    -- Stationary point found.
 Normal termination of Gaussian 16 at Tue Jan  9 21:37:38 2024.
