 Q-Chem 5.4, Q-Chem, Inc., Pleasanton, CA (2021)
 Q-Chem 5.4.0 for Intel X86 EM64T Linux

User input:
--------------------------------------------------------------
$molecule
-2 1
O                  1.9834710000     -3.0899080000      0.8405100000
C                  1.4720040000     -1.9623500000      0.5597770000
C                  0.0866890000     -1.6896450000      0.4772630000
C                 -0.4686000000     -0.4376020000      0.1822870000
O                  0.4068590000      0.6217230000     -0.1129150000
C                  1.7536400000      0.4602910000     -0.0006250000
C                  2.5447510000      1.5943820000     -0.2139020000
C                  3.9413770000      1.4920340000     -0.1518690000
C                  4.5362340000      0.2706540000      0.1577080000
C                  3.7359970000     -0.8500780000      0.4060430000
C                  2.3362840000     -0.7823930000      0.3147830000
C                 -1.8389570000     -0.0885060000      0.0695580000
C                 -2.8933400000     -1.0480080000      0.2575790000
C                 -4.2261650000     -0.6853340000      0.1943140000
C                 -4.6207240000      0.6368900000     -0.0862520000
C                 -3.6057230000      1.5767600000     -0.3443030000
C                 -2.2652170000      1.2374800000     -0.2837240000
H                 -0.5857530000     -2.5140480000      0.6809770000
H                  2.0573630000      2.5343000000     -0.4503570000
H                  4.5554810000      2.3687130000     -0.3487780000
H                  5.6199680000      0.1940810000      0.2080350000
H                  4.1625560000     -1.8127230000      0.6648460000
H                 -2.6419740000     -2.0815880000      0.4673150000
H                 -4.9876770000     -1.4457460000      0.3655070000
H                 -5.6697480000      0.9127180000     -0.1299990000
H                 -3.8769880000      2.6013230000     -0.5962770000
H                 -1.5118050000      1.9865810000     -0.4935550000
$end
$rem
MAX_SCF_CYCLES=200
BASIS  =  6-311++G(d,p)
GUI  =  2
JOB_TYPE  =  SP
METHOD  =  B3LYP
SOLVENT_METHOD = PCM
$end
$pcm
theory = CPCM
$end
$solvent
dielectric 37.219
opticaldielectric 1.43
$end

--------------------------------------------------------------

             Standard Nuclear Orientation (Angstroms)
    I     Atom           X                Y                Z
 ----------------------------------------------------------------
    1      O       1.9834710000    -3.0899080000     0.8405100000
    2      C       1.4720040000    -1.9623500000     0.5597770000
    3      C       0.0866890000    -1.6896450000     0.4772630000
    4      C      -0.4686000000    -0.4376020000     0.1822870000
    5      O       0.4068590000     0.6217230000    -0.1129150000
    6      C       1.7536400000     0.4602910000    -0.0006250000
    7      C       2.5447510000     1.5943820000    -0.2139020000
    8      C       3.9413770000     1.4920340000    -0.1518690000
    9      C       4.5362340000     0.2706540000     0.1577080000
   10      C       3.7359970000    -0.8500780000     0.4060430000
   11      C       2.3362840000    -0.7823930000     0.3147830000
   12      C      -1.8389570000    -0.0885060000     0.0695580000
   13      C      -2.8933400000    -1.0480080000     0.2575790000
   14      C      -4.2261650000    -0.6853340000     0.1943140000
   15      C      -4.6207240000     0.6368900000    -0.0862520000
   16      C      -3.6057230000     1.5767600000    -0.3443030000
   17      C      -2.2652170000     1.2374800000    -0.2837240000
   18      H      -0.5857530000    -2.5140480000     0.6809770000
   19      H       2.0573630000     2.5343000000    -0.4503570000
   20      H       4.5554810000     2.3687130000    -0.3487780000
   21      H       5.6199680000     0.1940810000     0.2080350000
   22      H       4.1625560000    -1.8127230000     0.6648460000
   23      H      -2.6419740000    -2.0815880000     0.4673150000
   24      H      -4.9876770000    -1.4457460000     0.3655070000
   25      H      -5.6697480000     0.9127180000    -0.1299990000
   26      H      -3.8769880000     2.6013230000    -0.5962770000
   27      H      -1.5118050000     1.9865810000    -0.4935550000
 ----------------------------------------------------------------

   10    -728.4380445155      2.84e-06  Convergence criterion met
 Total energy in the final basis set =     -728.4380445155

                    Orbital Energies (a.u.)
 --------------------------------------------------------------

 Alpha MOs
 -- Occupied --
-19.1348 -19.0244 -10.2168 -10.1746 -10.1682 -10.1529 -10.1517 -10.1492
-10.1455 -10.1426 -10.1422 -10.1419 -10.1380 -10.1300 -10.1272 -10.1200
-10.1189  -1.0541  -0.9475  -0.8327  -0.8150  -0.7586  -0.7396  -0.7173
 -0.7090  -0.6935  -0.6230  -0.6043  -0.5748  -0.5620  -0.5492  -0.5038
 -0.4953  -0.4866  -0.4528  -0.4374  -0.4292  -0.4216  -0.4116  -0.4010
 -0.3924  -0.3878  -0.3775  -0.3696  -0.3511  -0.3486  -0.3361  -0.3337
 -0.3232  -0.3219  -0.3116  -0.2925  -0.2582  -0.2327  -0.2287  -0.2114
 -0.2048  -0.1893  -0.0745

          Ground-State Mulliken Net Atomic Charges

     Atom                 Charge (a.u.)
  ----------------------------------------
      1 O                    -0.706067
      2 C                    -0.771642
      3 C                    -0.512638
      4 C                     0.516908
      5 O                    -0.122386
      6 C                    -1.452485
      7 C                    -0.437540
      8 C                    -0.475446
      9 C                    -0.244733
     10 C                     0.148280
     11 C                     1.867060
     12 C                     0.949849
     13 C                    -0.604603
     14 C                    -0.546387
     15 C                    -0.519348
     16 C                    -0.424964
     17 C                    -0.173047
     18 H                     0.148391
     19 H                     0.167520
     20 H                     0.180015
     21 H                     0.169175
     22 H                     0.152896
     23 H                     0.087349
     24 H                     0.169363
     25 H                     0.132193
     26 H                     0.164196
     27 H                     0.138090
  ----------------------------------------
  Sum of atomic charges =    -2.000000

                    Cartesian Multipole Moments
 -----------------------------------------------------------------
    Charge (ESU x 10^10)
                -9.6064
    Dipole Moment (Debye)
         X      -1.0050      Y       9.9261      Z      -3.1491
       Tot      10.4621
    Quadrupole Moments (Debye-Ang)
        XX    -172.6936     XY      25.5394     YY    -144.6860
        XZ      -7.1780     YZ       7.7608     ZZ    -118.3474

 Total job time:  49.68s(wall), 342.63s(cpu)
        *  Thank you very much for using Q-Chem.  Have a nice day.  *
