 Gaussian 16, Revision A.03,
 Gaussian 16:  ES64L-G16RevA.03 25-Dec-2016

 --------------------------------------
 #P UB3LYP/6-311++G(d,p) nosym opt freq
 --------------------------------------

 -------
 Reduced
 -------
 Symbolic Z-matrix:
 Charge = -2 Multiplicity = 1

 SCF Done:  E(UB3LYP) =  -916.875897706     A.U. after  109 cycles
 SCF Done:  E(UB3LYP) =  -916.894364816     A.U. after   28 cycles
 SCF Done:  E(UB3LYP) =  -916.897159343     A.U. after   31 cycles
 SCF Done:  E(UB3LYP) =  -916.895769980     A.U. after   24 cycles
 SCF Done:  E(UB3LYP) =  -916.897687702     A.U. after   24 cycles
 SCF Done:  E(UB3LYP) =  -916.897735193     A.U. after   21 cycles
 SCF Done:  E(UB3LYP) =  -916.897736608     A.U. after   23 cycles
 SCF Done:  E(UB3LYP) =  -916.897748372     A.U. after   19 cycles
 SCF Done:  E(UB3LYP) =  -916.897749479     A.U. after   22 cycles
 SCF Done:  E(UB3LYP) =  -916.897750109     A.U. after   19 cycles
 SCF Done:  E(UB3LYP) =  -916.897750344     A.U. after   20 cycles
 SCF Done:  E(UB3LYP) =  -916.897750445     A.U. after   16 cycles
 SCF Done:  E(UB3LYP) =  -916.897750505     A.U. after   21 cycles
 Optimization completed.
    -- Stationary point found.
 Normal termination of Gaussian 16 at Thu Dec 21 21:28:26 2023.

 ----------------------------------------------------------------------
 #P Geom=AllCheck Guess=TCheck SCRF=Check GenChk UB3LYP/6-311++G(d,p) F
 req
 ----------------------------------------------------------------------

 Structure from the checkpoint file:  "221-an.chk"
 -------
 Reduced
 -------
 Charge = -2 Multiplicity = 1

                          Input orientation:
 ---------------------------------------------------------------------
 Center     Atomic      Atomic             Coordinates (Angstroms)
 Number     Number       Type             X           Y           Z
 ---------------------------------------------------------------------
      1          6           0        4.983546   -2.504978    0.200608
      2          6           0        5.680797   -1.665405   -0.648689
      3          6           0        4.961914   -0.799065   -1.511653
      4          6           0        3.571988   -2.528926    0.238343
      5          6           0        2.839756   -1.650395   -0.635591
      6          6           0        3.581719   -0.801210   -1.495828
      7          6           0        2.901429   -3.443090    1.162775
      8          6           0        1.441780   -3.387833    1.122639
      9          6           0        0.723839   -2.489057    0.226888
     10          6           0        1.381085   -1.594903   -0.675463
     11          6           0        0.711863   -4.223634    1.972287
     12          6           0       -0.702991   -2.527893    0.275212
     13          6           0       -1.398195   -3.355885    1.114535
     14          8           0        3.551780   -4.213533    1.930312
     15          8           0        0.763861   -0.796438   -1.470699
     16          1           0        5.498804   -3.181834    0.875046
     17          1           0       -2.481726   -3.352214    1.121506
     18          1           0        3.002489   -0.150578   -2.143222
     19          1           0        1.270894   -4.881008    2.628420
     20          1           0       -1.223291   -1.855107   -0.399272
     21          6           0       -0.690094   -4.243004    2.007589
     22          1           0        5.499651   -0.133720   -2.185184
     23          6           0       -1.358756   -5.144386    2.916092
     24          8           0       -0.867116   -5.924164    3.730606
     25          8           0       -2.756901   -5.084737    2.797733
     26          6           0       -3.476631   -5.879023    3.724144
     27          1           0       -4.531777   -5.776421    3.457742
     28          1           0       -3.326414   -5.537434    4.756816
     29          1           0       -3.180148   -6.930500    3.672381
     30          1           0        6.768806   -1.668568   -0.656312
 ---------------------------------------------------------------------

 SCF Done:  E(UB3LYP) =  -916.897750505     A.U. after    2 cycles

 Alpha  occ. eigenvalues --  -18.94629 -18.87721 -18.81470 -18.79014 -10.06491
 Alpha  occ. eigenvalues --  -10.03460  -9.97327  -9.95222  -9.95191  -9.94935
 Alpha  occ. eigenvalues --   -9.94281  -9.93911  -9.93862  -9.93727  -9.93058
 Alpha  occ. eigenvalues --   -9.92907  -9.92867  -9.92445  -9.92175  -9.91119
 Alpha  occ. eigenvalues --   -0.87564  -0.78565  -0.73630  -0.70809  -0.61937
 Alpha  occ. eigenvalues --   -0.60908  -0.55051  -0.52755  -0.51609  -0.50730
 Alpha  occ. eigenvalues --   -0.49324  -0.42765  -0.41036  -0.38427  -0.36309
 Alpha  occ. eigenvalues --   -0.33975  -0.31832  -0.30732  -0.29224  -0.27675
 Alpha  occ. eigenvalues --   -0.26455  -0.25275  -0.22701  -0.22250  -0.21964
 Alpha  occ. eigenvalues --   -0.21001  -0.19249  -0.18758  -0.18062  -0.16566
 Alpha  occ. eigenvalues --   -0.16260  -0.16041  -0.15644  -0.14854  -0.13386
 Alpha  occ. eigenvalues --   -0.12358  -0.11191  -0.10632  -0.10349  -0.09223
 Alpha  occ. eigenvalues --   -0.08332  -0.08108  -0.05658  -0.02332  -0.01179
 Alpha  occ. eigenvalues --   -0.00666   0.00067   0.01411   0.03255   0.11462
 Alpha virt. eigenvalues --    0.12793   0.15096   0.16421   0.16956   0.17135
 Alpha virt. eigenvalues --    0.17583   0.18397   0.19543   0.19725   0.20333
 Alpha virt. eigenvalues --    0.21352   0.22327   0.22831   0.23890   0.24092

  Beta  occ. eigenvalues --  -18.94629 -18.87721 -18.81470 -18.79014 -10.06491
  Beta  occ. eigenvalues --  -10.03460  -9.97327  -9.95222  -9.95191  -9.94935
  Beta  occ. eigenvalues --   -9.94281  -9.93911  -9.93862  -9.93727  -9.93058
  Beta  occ. eigenvalues --   -9.92907  -9.92867  -9.92445  -9.92175  -9.91119
  Beta  occ. eigenvalues --   -0.87564  -0.78565  -0.73630  -0.70809  -0.61937
  Beta  occ. eigenvalues --   -0.60908  -0.55051  -0.52755  -0.51609  -0.50730
  Beta  occ. eigenvalues --   -0.49324  -0.42765  -0.41036  -0.38427  -0.36309
  Beta  occ. eigenvalues --   -0.33975  -0.31832  -0.30732  -0.29224  -0.27675
  Beta  occ. eigenvalues --   -0.26455  -0.25275  -0.22701  -0.22250  -0.21964
  Beta  occ. eigenvalues --   -0.21001  -0.19249  -0.18758  -0.18062  -0.16566
  Beta  occ. eigenvalues --   -0.16260  -0.16041  -0.15644  -0.14854  -0.13386
  Beta  occ. eigenvalues --   -0.12358  -0.11191  -0.10632  -0.10349  -0.09223
  Beta  occ. eigenvalues --   -0.08332  -0.08108  -0.05658  -0.02332  -0.01179
  Beta  occ. eigenvalues --   -0.00666   0.00067   0.01411   0.03255   0.11462
  Beta virt. eigenvalues --    0.12793   0.15096   0.16421   0.16956   0.17135
  Beta virt. eigenvalues --    0.17583   0.18397   0.19543   0.19725   0.20333
  Beta virt. eigenvalues --    0.21352   0.22327   0.22831   0.23890   0.24092

 Mulliken charges and spin densities:
               1          2
     1  C   -0.028793   0.000000
     2  C   -0.429458  -0.000000
     3  C   -0.406375  -0.000000
     4  C    0.615784  -0.000000
     5  C    0.595938  -0.000000
     6  C   -0.091764   0.000000
     7  C   -0.795224   0.000000
     8  C    0.362902  -0.000000
     9  C    0.364555  -0.000000
    10  C   -1.113330   0.000000
    11  C   -0.044530   0.000000
    12  C   -0.171929  -0.000000
    13  C   -0.561673  -0.000000
    14  O   -0.435978  -0.000000
    15  O   -0.494563  -0.000000
    16  H    0.129311   0.000000
    17  H    0.131783  -0.000000
    18  H    0.138885  -0.000000
    19  H    0.162083  -0.000000
    20  H    0.139639   0.000000
    21  C    0.171643  -0.000000
    22  H    0.084849   0.000000
    23  C    0.026881   0.000000
    24  O   -0.369835   0.000000
    25  O   -0.151398   0.000000
    26  C    0.144638  -0.000000
    27  H   -0.138194   0.000000
    28  H    0.023409   0.000000
    29  H    0.055503   0.000000
    30  H    0.085245  -0.000000
 Sum of Mulliken charges =  -2.00000  -0.00000

 Dipole moment (field-independent basis, Debye):
    X=            -11.9765    Y=             30.0246    Z=             -8.2761  Tot=             33.3677
 Quadrupole moment (field-independent basis, Debye-Ang):
   XX=           -210.1106   YY=           -262.3080   ZZ=           -177.2957
   XY=             18.5121   XZ=              9.1341   YZ=             66.4877

  Exact polarizability:2410.1911073.044 794.495********-636.976 854.400
 Approx polarizability:3507.4771610.2101236.227****************1324.082

                      1                      2                      3
                      A                      A                      A
 Frequencies --     33.9293                57.9061                73.5117
 Red. masses --      5.5583                 7.0462                 4.4788
 Frc consts  --      0.0038                 0.0139                 0.0143
 IR Inten    --      1.6473                 2.9088                 5.0084

                      4                      5                      6
                      A                      A                      A
 Frequencies --    101.5920               109.3097               130.6799
 Red. masses --      3.9621                 2.4247                 3.8710
 Frc consts  --      0.0241                 0.0171                 0.0389
 IR Inten    --      5.8188                17.9353                 0.8053

                      7                      8                      9
                      A                      A                      A
 Frequencies --    147.6962               166.5187               202.9305
 Red. masses --      1.6177                 6.8609                 5.4482
 Frc consts  --      0.0208                 0.1121                 0.1322
 IR Inten    --      1.9857                 4.7142                 1.8927

                     10                     11                     12
                      A                      A                      A
 Frequencies --    222.7979               245.6790               264.5278
 Red. masses --      5.2031                 8.0387                 6.1880
 Frc consts  --      0.1522                 0.2859                 0.2551
 IR Inten    --      0.4419                 7.0595                17.0729

                     13                     14                     15
                      A                      A                      A
 Frequencies --    290.5719               339.9163               369.8393
 Red. masses --      7.1903                 4.5612                10.8520
 Frc consts  --      0.3577                 0.3105                 0.8746
 IR Inten    --      1.7470               418.8513                96.1553

                     16                     17                     18
                      A                      A                      A
 Frequencies --    401.4892               412.8443               428.4751
 Red. masses --      5.8590                 7.1179                 3.7045
 Frc consts  --      0.5564                 0.7148                 0.4007
 IR Inten    --     28.0661                43.3035                 9.1368

                     19                     20                     21
                      A                      A                      A
 Frequencies --    461.5244               471.6109               492.1751
 Red. masses --      8.9810                 3.2154                 7.2159
 Frc consts  --      1.1271                 0.4214                 1.0299
 IR Inten    --   1073.1968                 0.2061               554.3021

                     22                     23                     24
                      A                      A                      A
 Frequencies --    498.4826               512.2786               625.4749
 Red. masses --      4.7524                 7.8152                 4.9261
 Frc consts  --      0.6958                 1.2084                 1.1355
 IR Inten    --     11.0497                53.6232                11.0304

                     25                     26                     27
                      A                      A                      A
 Frequencies --    631.3225               643.6453               688.2677
 Red. masses --      6.8308                 6.6638                 2.4797
 Frc consts  --      1.6041                 1.6265                 0.6921
 IR Inten    --     26.5625                 6.3945                98.6733

                     28                     29                     30
                      A                      A                      A
 Frequencies --    688.9333               691.6538               713.9659
 Red. masses --      3.7979                 6.6123                 4.1592
 Frc consts  --      1.0620                 1.8637                 1.2491
 IR Inten    --     34.2045                 4.6026                44.1347

                     31                     32                     33
                      A                      A                      A
 Frequencies --    736.0518               748.4570               759.7401
 Red. masses --      3.4762                 5.0808                 2.9158
 Frc consts  --      1.1096                 1.6769                 0.9916
 IR Inten    --    469.9248               873.3346                 3.6788

                     34                     35                     36
                      A                      A                      A
 Frequencies --    785.5364               804.2800               823.4183
 Red. masses --      1.9647                 1.6691                 6.6168
 Frc consts  --      0.7143                 0.6361                 2.6433
 IR Inten    --     17.6770                 5.0098               763.1728

                     37                     38                     39
                      A                      A                      A
 Frequencies --    835.1360               921.0855               931.5686
 Red. masses --      2.9553                 7.2412                 7.2771
 Frc consts  --      1.2144                 3.6196                 3.7208
 IR Inten    --      2.3719              1130.4662               496.4132

                     40                     41                     42
                      A                      A                      A
 Frequencies --    959.8234               968.1531               974.2711
 Red. masses --      1.2672                 1.3285                 1.3388
 Frc consts  --      0.6878                 0.7336                 0.7487
 IR Inten    --      0.2347                 2.0146                10.1043

                     43                     44                     45
                      A                      A                      A
 Frequencies --    982.3989              1010.7720              1021.1572
 Red. masses --      1.3630                 2.9214                 1.9896
 Frc consts  --      0.7750                 1.7585                 1.2224
 IR Inten    --      5.0725               258.2488               515.6610

                     46                     47                     48
                      A                      A                      A
 Frequencies --   1052.9733              1094.8964              1102.5881
 Red. masses --      6.5344                 2.4700                 1.9171
 Frc consts  --      4.2686                 1.7446                 1.3732
 IR Inten    --   5586.3895                58.0278                68.2909

                     49                     50                     51
                      A                      A                      A
 Frequencies --   1131.0922              1147.8783              1165.2348
 Red. masses --      1.4658                 1.8574                 1.2845
 Frc consts  --      1.1049                 1.4419                 1.0276
 IR Inten    --    341.8711               361.5936                46.2229

                     52                     53                     54
                      A                      A                      A
 Frequencies --   1170.0171              1190.7788              1203.6232
 Red. masses --      2.0677                 2.2554                 1.9949
 Frc consts  --      1.6677                 1.8843                 1.7028
 IR Inten    --   1677.2872               387.3220                16.1782

                     55                     56                     57
                      A                      A                      A
 Frequencies --   1211.8035              1236.1540              1270.0144
 Red. masses --      2.1771                 2.4206                 2.2172
 Frc consts  --      1.8836                 2.1793                 2.1070
 IR Inten    --   1141.9645               133.3498               669.2388

                     58                     59                     60
                      A                      A                      A
 Frequencies --   1324.0669              1347.7550              1359.6576
 Red. masses --      2.7841                 7.3599                 3.9226
 Frc consts  --      2.8758                 7.8767                 4.2725
 IR Inten    --    195.9085               288.5428               329.0483

                     61                     62                     63
                      A                      A                      A
 Frequencies --   1394.0346              1435.3840              1444.9219
 Red. masses --      3.4212                 4.1245                 1.4161
 Frc consts  --      3.9172                 5.0067                 1.7419
 IR Inten    --   1103.7283              4104.6884               919.1673

                     64                     65                     66
                      A                      A                      A
 Frequencies --   1459.3260              1465.0048              1474.6746
 Red. masses --      2.7018                 1.0572                 2.7280
 Frc consts  --      3.3901                 1.3369                 3.4953
 IR Inten    --    303.6533               134.9053                33.4122

                     67                     68                     69
                      A                      A                      A
 Frequencies --   1484.2429              1497.9668              1500.5591
 Red. masses --      4.2237                 5.3763                 1.1123
 Frc consts  --      5.4821                 7.1078                 1.4756
 IR Inten    --    545.3231              1126.2659               192.9279

                     70                     71                     72
                      A                      A                      A
 Frequencies --   1517.4607              1557.5827              1585.2245
 Red. masses --      6.2681                 6.8016                 5.8522
 Frc consts  --      8.5039                 9.7221                 8.6646
 IR Inten    --    249.0133              1308.3578              5182.5356

                     73                     74                     75
                      A                      A                      A
 Frequencies --   1599.7875              1659.7189              2983.1000
 Red. masses --      5.9519                 9.1850                 1.0397
 Frc consts  --      8.9749                14.9072                 5.4514
 IR Inten    --   1506.1472               788.7891                82.5039

                     76                     77                     78
                      A                      A                      A
 Frequencies --   3046.6322              3082.0808              3096.8900
 Red. masses --      1.0914                 1.1047                 1.0831
 Frc consts  --      5.9688                 6.1827                 6.1204
 IR Inten    --    769.7046                40.9127                67.1275

                     79                     80                     81
                      A                      A                      A
 Frequencies --   3121.2339              3153.6589              3160.7613
 Red. masses --      1.0906                 1.0854                 1.0907
 Frc consts  --      6.2601                 6.3601                 6.4200
 IR Inten    --    425.3743                 4.4779                90.3548

                     82                     83                     84
                      A                      A                      A
 Frequencies --   3164.4788              3177.5026              3185.2267
 Red. masses --      1.0911                 1.0927                 1.0887
 Frc consts  --      6.4378                 6.5002                 6.5077
 IR Inten    --    273.0098                97.3585                 7.3943

 - Thermochemistry -
 -------------------
 Temperature   298.150 Kelvin.  Pressure   1.00000 Atm.
 Atom     1 has atomic number  6 and mass  12.00000

 Molecular mass:   266.05791 amu.
 Principal axes and moments of inertia in atomic units:
                           1         2         3
     Eigenvalues --  1980.11292********************
           X            0.76129   0.64838   0.00609
           Y            0.45331  -0.53893   0.70997
           Z           -0.46361   0.53774   0.70420
 This molecule is an asymmetric top.
 Rotational symmetry number  1.
 Warning -- assumption of classical behavior for rotation
           may cause significant error
 Rotational temperatures (Kelvin)      0.04374     0.00855     0.00716
 Rotational constants (GHZ):           0.91143     0.17822     0.14922
 Zero-point vibrational energy     566057.3 (Joules/Mol)
                                  135.29094 (Kcal/Mol)
 Warning -- explicit consideration of  23 degrees of freedom as
           vibrations may cause significant error
 Vibrational temperatures:     48.82    83.31   105.77   146.17   157.27
          (Kelvin)            188.02   212.50   239.58   291.97   320.56
                              353.48   380.60   418.07   489.06   532.12
                              577.65   593.99   616.48   664.03   678.54
                              708.13   717.21   737.05   899.92   908.33
                              926.06   990.26   991.22   995.14  1027.24
                             1059.01  1076.86  1093.10  1130.21  1157.18
                             1184.72  1201.57  1325.24  1340.32  1380.97
                             1392.96  1401.76  1413.45  1454.28  1469.22
                             1514.99  1575.31  1586.38  1627.39  1651.54
                             1676.51  1683.39  1713.27  1731.75  1743.51
                             1778.55  1827.27  1905.04  1939.12  1956.24
                             2005.70  2065.20  2078.92  2099.64  2107.82
                             2121.73  2135.49  2155.24  2158.97  2183.29
                             2241.01  2280.78  2301.74  2387.97  4292.02
                             4383.42  4434.43  4455.73  4490.76  4537.41
                             4547.63  4552.98  4571.72  4582.83

 Zero-point correction=                           0.215600 (Hartree/Particle)
 Thermal correction to Energy=                    0.231677
 Thermal correction to Enthalpy=                  0.232621
 Thermal correction to Gibbs Free Energy=         0.171551
 Sum of electronic and zero-point Energies=           -916.682151
 Sum of electronic and thermal Energies=              -916.666074
 Sum of electronic and thermal Enthalpies=            -916.665129
 Sum of electronic and thermal Free Energies=         -916.726200

                     E (Thermal)             CV                S
                      KCal/Mol        Cal/Mol-Kelvin    Cal/Mol-Kelvin
 Total                  145.379             62.673            128.533
 Electronic               0.000              0.000              0.000
 Translational            0.889              2.981             42.635
 Rotational               0.889              2.981             33.849
 Vibrational            143.602             56.711             52.049
 Vibration     1          0.594              1.983              5.585
 Vibration     2          0.596              1.974              4.527
 Vibration     3          0.599              1.966              4.057
 Vibration     4          0.604              1.948              3.424
 Vibration     5          0.606              1.942              3.281
 Vibration     6          0.612              1.923              2.936
 Vibration     7          0.617              1.905              2.702
 Vibration     8          0.624              1.884              2.474
 Vibration     9          0.639              1.836              2.106
 Vibration    10          0.648              1.806              1.936
 Vibration    11          0.660              1.770              1.761
 Vibration    12          0.671              1.738              1.632
 Vibration    13          0.687              1.691              1.471
 Vibration    14          0.720              1.596              1.213
 Vibration    15          0.742              1.534              1.080
 Vibration    16          0.767              1.467              0.957
 Vibration    17          0.777              1.442              0.917
 Vibration    18          0.790              1.408              0.864
 Vibration    19          0.819              1.335              0.762
 Vibration    20          0.829              1.313              0.733
 Vibration    21          0.848              1.267              0.678
 Vibration    22          0.854              1.253              0.662
 Vibration    23          0.867              1.223              0.628

                           ! Non-Optimized Parameters !
 Normal termination of Gaussian 16 at Thu Dec 21 22:33:14 2023.
