 Gaussian 16, Revision A.03,
 Gaussian 16:  ES64L-G16RevA.03 25-Dec-2016

 ----------------------------------------------------------------------
 #P UB3LYP/6-311++G(d,p) nosym opt freq SCRF=(PCM,Solvent=n,n-DiMethylF
 ormamide)
 ----------------------------------------------------------------------

 -------
 Radical
 -------
 Symbolic Z-matrix:
 Charge = -1 Multiplicity = 2

 SCF Done:  E(UB3LYP) =  -1080.13128314     A.U. after   19 cycles
 SCF Done:  E(UB3LYP) =  -1080.13153142     A.U. after   14 cycles
 SCF Done:  E(UB3LYP) =  -1080.13155974     A.U. after   14 cycles
 SCF Done:  E(UB3LYP) =  -1080.13156846     A.U. after   13 cycles
 SCF Done:  E(UB3LYP) =  -1080.13157073     A.U. after   12 cycles
 SCF Done:  E(UB3LYP) =  -1080.13157111     A.U. after    9 cycles
 SCF Done:  E(UB3LYP) =  -1080.13157119     A.U. after    9 cycles
 Optimization completed.
    -- Stationary point found.
 Normal termination of Gaussian 16 at Sun Feb 11 16:35:09 2024.

 ----------------------------------------------------------------------
 #P Geom=AllCheck Guess=TCheck SCRF=Check GenChk UB3LYP/6-311++G(d,p) F
 req
 ----------------------------------------------------------------------

 Structure from the checkpoint file:  "296-rad.chk"
 -------
 Radical
 -------
 Charge = -1 Multiplicity = 2

                          Input orientation:
 ---------------------------------------------------------------------
 Center     Atomic      Atomic             Coordinates (Angstroms)
 Number     Number       Type             X           Y           Z
 ---------------------------------------------------------------------
      1          6           0       -1.630739    3.388710   -0.340820
      2          6           0       -2.631796    3.435293    0.612527
      3          6           0       -2.636800    2.508629    1.672667
      4          6           0       -0.606666    2.419342   -0.268012
      5          6           0       -0.609723    1.480733    0.800860
      6          6           0       -1.639135    1.550744    1.758188
      7          6           0        0.444146    2.366750   -1.260971
      8          6           0        1.450987    1.344879   -1.104417
      9          6           0        1.482250    0.412128   -0.082289
     10          6           0        0.437766    0.445836    0.920688
     11          8           0        0.542052    3.159049   -2.260084
     12          8           0        0.400983   -0.377729    1.881518
     13          8           0        2.403863    1.369885   -2.081025
     14          6           0        2.566230   -0.641055    0.030631
     15          6           0        2.565359   -1.651277   -1.153438
     16          6           0        3.985815   -0.071120    0.225555
     17          6           0        4.979961   -1.186680    0.617680
     18          6           0        4.680653   -2.559513   -0.050273
     19          6           0        3.943148   -2.311127   -1.377964
     20          6           0        5.957663   -3.426168   -0.188180
     21          6           0        5.684273   -4.812038   -0.809219
     22          6           0        6.674735   -3.610176    1.166709
     23          6           0        7.944521   -4.467095    1.059201
     24          6           0        7.655267   -5.835049    0.430762
     25          6           0        6.951321   -5.673760   -0.921413
     26          1           0       -1.614237    4.096762   -1.161007
     27          1           0       -3.412526    4.185382    0.544776
     28          1           0       -3.421070    2.545619    2.421003
     29          1           0       -1.630353    0.831912    2.568579
     30          1           0        2.118285    2.117892   -2.648183
     31          1           0        2.326904   -1.197541    0.939677
     32          1           0        2.255175   -1.151394   -2.073737
     33          1           0        1.818169   -2.426418   -0.948616
     34          1           0        3.976201    0.700156    1.002441
     35          1           0        4.309311    0.421538   -0.694660
     36          1           0        4.978657   -1.305359    1.705498
     37          1           0        5.993147   -0.867212    0.344798
     38          1           0        3.992100   -3.114273    0.604309
     39          1           0        3.800405   -3.239535   -1.935046
     40          1           0        4.567544   -1.667331   -2.010760
     41          1           0        6.646902   -2.889167   -0.859503
     42          1           0        5.237716   -4.707693   -1.801168
     43          1           0        4.944855   -5.336634   -0.187505
     44          1           0        5.976582   -4.087897    1.868966
     45          1           0        6.931110   -2.638920    1.597414
     46          1           0        8.394781   -4.590407    2.050269
     47          1           0        8.684991   -3.937927    0.444686
     48          1           0        7.012545   -6.414880    1.106456
     49          1           0        8.582514   -6.406292    0.313140
     50          1           0        6.697002   -6.654479   -1.338058
     51          1           0        7.643246   -5.203701   -1.632893
 ---------------------------------------------------------------------

 SCF Done:  E(UB3LYP) =  -1080.13157119     A.U. after    1 cycles

 Alpha  occ. eigenvalues --  -19.14079 -19.08395 -19.07183 -10.22244 -10.22044
 Alpha  occ. eigenvalues --  -10.21931 -10.17396 -10.17220 -10.17214 -10.17096
 Alpha  occ. eigenvalues --  -10.17063 -10.16909 -10.16234 -10.16145 -10.16106
 Alpha  occ. eigenvalues --  -10.15940 -10.15713 -10.15686 -10.15651 -10.15452
 Alpha  occ. eigenvalues --  -10.15421 -10.15325 -10.15225 -10.15201 -10.15083
 Alpha  occ. eigenvalues --   -1.06113  -0.99487  -0.99226  -0.85783  -0.83792
 Alpha  occ. eigenvalues --   -0.81975  -0.79783  -0.76401  -0.74988  -0.73629
 Alpha  occ. eigenvalues --   -0.73495  -0.72598  -0.70078  -0.66903  -0.62942
 Alpha  occ. eigenvalues --   -0.61698  -0.61352  -0.59726  -0.59095  -0.57324
 Alpha  occ. eigenvalues --   -0.56902  -0.54705  -0.53818  -0.51800  -0.50524
 Alpha  occ. eigenvalues --   -0.48245  -0.47592  -0.47284  -0.45647  -0.45045
 Alpha  occ. eigenvalues --   -0.43875  -0.43500  -0.43380  -0.42924  -0.42598
 Alpha  occ. eigenvalues --   -0.42124  -0.41489  -0.41150  -0.39879  -0.38846
 Alpha  occ. eigenvalues --   -0.38523  -0.38412  -0.37955  -0.37528  -0.36976
 Alpha  occ. eigenvalues --   -0.36811  -0.35845  -0.35270  -0.34735  -0.34559
 Alpha  occ. eigenvalues --   -0.34179  -0.33680  -0.33553  -0.33349  -0.32514
 Alpha  occ. eigenvalues --   -0.31375  -0.30763  -0.30584  -0.28805  -0.28274
 Alpha  occ. eigenvalues --   -0.27743  -0.26569  -0.25807  -0.25677  -0.23650
 Alpha  occ. eigenvalues --   -0.22554  -0.15035
 Alpha virt. eigenvalues --   -0.03253  -0.00834  -0.00593  -0.00117   0.00267
 Alpha virt. eigenvalues --    0.00707   0.00951   0.01392   0.02114   0.02427
 Alpha virt. eigenvalues --    0.02486   0.03236   0.03523   0.03766   0.04035

  Beta  occ. eigenvalues --  -19.14030 -19.07767 -19.06632 -10.22110 -10.21945
  Beta  occ. eigenvalues --  -10.21642 -10.17381 -10.17217 -10.17103 -10.17018
  Beta  occ. eigenvalues --  -10.17011 -10.16931 -10.16234 -10.16106 -10.16067
  Beta  occ. eigenvalues --  -10.15946 -10.15713 -10.15686 -10.15651 -10.15452
  Beta  occ. eigenvalues --  -10.15421 -10.15325 -10.15223 -10.15196 -10.15076
  Beta  occ. eigenvalues --   -1.05898  -0.98526  -0.98155  -0.85550  -0.83778
  Beta  occ. eigenvalues --   -0.81896  -0.79476  -0.76271  -0.74777  -0.73627
  Beta  occ. eigenvalues --   -0.73393  -0.72591  -0.69928  -0.66093  -0.62825
  Beta  occ. eigenvalues --   -0.61548  -0.61315  -0.59565  -0.59088  -0.57229
  Beta  occ. eigenvalues --   -0.56693  -0.54703  -0.53675  -0.51725  -0.50319
  Beta  occ. eigenvalues --   -0.48115  -0.47565  -0.47076  -0.45535  -0.44989
  Beta  occ. eigenvalues --   -0.43845  -0.43451  -0.43077  -0.42539  -0.42135
  Beta  occ. eigenvalues --   -0.41939  -0.41341  -0.40671  -0.39652  -0.38623
  Beta  occ. eigenvalues --   -0.38309  -0.37834  -0.37600  -0.37395  -0.36903
  Beta  occ. eigenvalues --   -0.36174  -0.35693  -0.34759  -0.34518  -0.34273
  Beta  occ. eigenvalues --   -0.33843  -0.33539  -0.33274  -0.32507  -0.32355
  Beta  occ. eigenvalues --   -0.31333  -0.30738  -0.30523  -0.28769  -0.28255
  Beta  occ. eigenvalues --   -0.27705  -0.25249  -0.24977  -0.24629  -0.23148
  Beta  occ. eigenvalues --   -0.21612
  Beta virt. eigenvalues --   -0.08478  -0.02511  -0.00578  -0.00108   0.00205
  Beta virt. eigenvalues --    0.00310   0.00710   0.00958   0.01405   0.02121
  Beta virt. eigenvalues --    0.02449   0.02493   0.03244   0.03529   0.03771

 Mulliken charges and spin densities:
               1          2
     1  C    0.023959   0.074926
     2  C   -0.403523   0.001735
     3  C   -0.500511   0.069278
     4  C    0.464238   0.001274
     5  C    0.280616   0.050257
     6  C    0.009084  -0.000927
     7  C   -0.630356   0.180071
     8  C   -0.378512   0.047895
     9  C    0.721538   0.056821
    10  C   -0.500958   0.083806
    11  O   -0.522815   0.230301
    12  O   -0.461284   0.204005
    13  O   -0.245334   0.016874
    14  C    0.837649   0.004810
    15  C   -0.887819  -0.010262
    16  C   -1.157586  -0.003027
    17  C   -0.328751   0.001507
    18  C    0.515124  -0.000172
    19  C   -0.604836   0.004846
    20  C    0.148054  -0.000049
    21  C   -0.311906  -0.000019
    22  C   -0.252651  -0.000159
    23  C   -0.373449  -0.000193
    24  C   -0.403365   0.000008
    25  C   -0.479894   0.000096
    26  H    0.166626  -0.003969
    27  H    0.178353  -0.000464
    28  H    0.181915  -0.005230
    29  H    0.170454  -0.000077
    30  H    0.292497  -0.003890
    31  H    0.258719  -0.002311
    32  H    0.187237   0.001597
    33  H    0.176969  -0.000721
    34  H    0.187901  -0.000236
    35  H    0.179692   0.001804
    36  H    0.142789   0.000030
    37  H    0.164324   0.000035
    38  H    0.160489   0.000072
    39  H    0.130149  -0.000024
    40  H    0.170598  -0.000073
    41  H    0.158606  -0.000015
    42  H    0.136881  -0.000174
    43  H    0.163778  -0.000016
    44  H    0.165365  -0.000006
    45  H    0.159735  -0.000027
    46  H    0.170644   0.000011
    47  H    0.139795  -0.000019
    48  H    0.122559  -0.000000
    49  H    0.172541   0.000000
    50  H    0.171029  -0.000002
    51  H    0.133647   0.000002
 Sum of Mulliken charges =  -1.00000   1.00000

 Dipole moment (field-independent basis, Debye):
    X=             -3.0008    Y=             -5.8140    Z=              0.6882  Tot=              6.5788
 Quadrupole moment (field-independent basis, Debye-Ang):
   XX=           -161.2746   YY=           -178.5895   ZZ=           -175.3205
   XY=             -3.2359   XZ=              0.5280   YZ=             15.0794

  Exact polarizability: 420.805 -86.505 397.770 -52.314 -56.098 391.828
 Approx polarizability: 433.469 -62.594 424.945 -64.728 -81.333 452.308

                      1                      2                      3
                      A                      A                      A
 Frequencies --     18.4545                32.1682                36.2467
 Red. masses --      4.2647                 3.9095                 5.0233
 Frc consts  --      0.0009                 0.0024                 0.0039
 IR Inten    --      0.2146                 1.0220                 1.7033

                      4                      5                      6
                      A                      A                      A
 Frequencies --     60.4705                78.5802                89.5272
 Red. masses --      3.0146                 3.6425                 6.4205
 Frc consts  --      0.0065                 0.0133                 0.0303
 IR Inten    --      0.5928                 2.8624                 8.5048

                      7                      8                      9
                      A                      A                      A
 Frequencies --    116.9660               134.3017               148.3582
 Red. masses --      4.5884                 3.9825                 4.9549
 Frc consts  --      0.0370                 0.0423                 0.0643
 IR Inten    --      0.3336                 2.9686                 0.2885

                     10                     11                     12
                      A                      A                      A
 Frequencies --    157.1293               173.5327               196.1919
 Red. masses --      3.4220                 5.8639                 2.2596
 Frc consts  --      0.0498                 0.1040                 0.0512
 IR Inten    --      0.9924                 2.4497                 0.8301

                     13                     14                     15
                      A                      A                      A
 Frequencies --    213.3258               215.0941               230.2012
 Red. masses --      3.3611                 2.5088                 1.8880
 Frc consts  --      0.0901                 0.0684                 0.0589
 IR Inten    --      1.3848                 3.6264                 0.2017

                     16                     17                     18
                      A                      A                      A
 Frequencies --    272.3752               305.7441               322.8379
 Red. masses --      5.7043                 2.1999                 3.3552
 Frc consts  --      0.2493                 0.1212                 0.2060
 IR Inten    --      1.3657                 0.3377                 4.0884

                     19                     20                     21
                      A                      A                      A
 Frequencies --    349.3393               351.3953               379.6287
 Red. masses --      4.7108                 4.9499                 3.2173
 Frc consts  --      0.3387                 0.3601                 0.2732
 IR Inten    --     11.3750                21.1810                 0.4345

                     22                     23                     24
                      A                      A                      A
 Frequencies --    382.4442               392.6631               423.3561
 Red. masses --      9.3984                 1.9617                 6.0354
 Frc consts  --      0.8099                 0.1782                 0.6373
 IR Inten    --     26.6798                 0.5629                 4.4990

                     25                     26                     27
                      A                      A                      A
 Frequencies --    435.5471               441.5629               447.0347
 Red. masses --      4.1453                 3.6818                 2.8009
 Frc consts  --      0.4633                 0.4230                 0.3298
 IR Inten    --      0.8980                 0.6468                 0.9002

                     28                     29                     30
                      A                      A                      A
 Frequencies --    465.4426               471.5720               485.1470
 Red. masses --      3.4521                 3.4766                 3.4213
 Frc consts  --      0.4406                 0.4555                 0.4744
 IR Inten    --      4.2979                 3.2620                 2.4578

                     31                     32                     33
                      A                      A                      A
 Frequencies --    505.4604               507.0452               550.3675
 Red. masses --      2.9576                 2.9007                 5.2080
 Frc consts  --      0.4452                 0.4394                 0.9294
 IR Inten    --      1.2744                 0.5183                 0.7891

                     34                     35                     36
                      A                      A                      A
 Frequencies --    575.6335               603.7458               660.8186
 Red. masses --      5.0856                 2.4558                 5.0815
 Frc consts  --      0.9929                 0.5274                 1.3074
 IR Inten    --      1.6888                 6.8040                25.7710

                     37                     38                     39
                      A                      A                      A
 Frequencies --    673.4817               680.7495               706.2727
 Red. masses --      1.1213                 3.0424                 3.0104
 Frc consts  --      0.2997                 0.8307                 0.8848
 IR Inten    --    119.7223                16.0693               100.1892

                     40                     41                     42
                      A                      A                      A
 Frequencies --    709.8316               722.4735               764.8853
 Red. masses --      6.1947                 5.5160                 3.6503
 Frc consts  --      1.8390                 1.6964                 1.2583
 IR Inten    --      5.0208                 1.9101                24.1197

                     43                     44                     45
                      A                      A                      A
 Frequencies --    780.4478               785.8497               787.7089
 Red. masses --      1.8566                 2.0272                 2.6442
 Frc consts  --      0.6663                 0.7376                 0.9667
 IR Inten    --      5.3532                31.2838                11.0782

                     46                     47                     48
                      A                      A                      A
 Frequencies --    792.0102               811.2036               850.4639
 Red. masses --      1.5099                 2.5965                 1.8921
 Frc consts  --      0.5580                 1.0067                 0.8063
 IR Inten    --      0.2842                13.9391                 7.3957

                     49                     50                     51
                      A                      A                      A
 Frequencies --    864.0665               879.8020               882.1160
 Red. masses --      2.6312                 2.3076                 1.3839
 Frc consts  --      1.1574                 1.0524                 0.6344
 IR Inten    --     29.5866                15.0172                 0.0242

                     52                     53                     54
                      A                      A                      A
 Frequencies --    896.7654               913.4968               921.1057
 Red. masses --      1.8586                 1.8292                 2.1779
 Frc consts  --      0.8806                 0.8993                 1.0887
 IR Inten    --      9.6890                 6.0656                16.3475

                     55                     56                     57
                      A                      A                      A
 Frequencies --    924.5784               930.2920               953.7296
 Red. masses --      1.6950                 1.9670                 2.3925
 Frc consts  --      0.8537                 1.0030                 1.2822
 IR Inten    --      7.3803                 7.2036                 6.6041

                     58                     59                     60
                      A                      A                      A
 Frequencies --    963.7677               982.9337               983.9690
 Red. masses --      4.1065                 1.3622                 2.3720
 Frc consts  --      2.2473                 0.7755                 1.3531
 IR Inten    --     25.2425                 2.6644                13.2971

                     61                     62                     63
                      A                      A                      A
 Frequencies --    997.5554              1032.2305              1040.8984
 Red. masses --      1.2801                 2.3367                 1.8982
 Frc consts  --      0.7505                 1.4669                 1.2117
 IR Inten    --      0.1162                42.6817                 6.4920

                     64                     65                     66
                      A                      A                      A
 Frequencies --   1043.5458              1054.5279              1082.3218
 Red. masses --      2.0063                 1.6700                 2.8565
 Frc consts  --      1.2873                 1.0942                 1.9715
 IR Inten    --      3.6599                 0.8083                74.6742

                     67                     68                     69
                      A                      A                      A
 Frequencies --   1084.3945              1088.0601              1095.0653
 Red. masses --      2.9525                 1.7249                 2.0568
 Frc consts  --      2.0456                 1.2032                 1.4532
 IR Inten    --     65.7640                 0.5728                 0.0939

                     70                     71                     72
                      A                      A                      A
 Frequencies --   1105.9251              1107.3375              1115.0750
 Red. masses --      2.1623                 2.6444                 2.1252
 Frc consts  --      1.5582                 1.9105                 1.5569
 IR Inten    --      1.0533                30.7481                14.1997

                     73                     74                     75
                      A                      A                      A
 Frequencies --   1120.3562              1127.9930              1151.3519
 Red. masses --      2.1400                 1.0613                 1.7106
 Frc consts  --      1.5826                 0.7956                 1.3360
 IR Inten    --      2.8922                 0.2574                18.7730

                     76                     77                     78
                      A                      A                      A
 Frequencies --   1157.4883              1176.3130              1202.3103
 Red. masses --      1.6508                 2.6816                 1.6126
 Frc consts  --      1.3031                 2.1862                 1.3735
 IR Inten    --      8.2027                 9.9590                10.2789

                     79                     80                     81
                      A                      A                      A
 Frequencies --   1204.4916              1222.4792              1242.4196
 Red. masses --      1.8818                 1.5275                 2.5765
 Frc consts  --      1.6085                 1.3449                 2.3433
 IR Inten    --     19.6564                47.8879                11.7125

                     82                     83                     84
                      A                      A                      A
 Frequencies --   1255.5204              1258.1449              1267.1895
 Red. masses --      1.3694                 1.2715                 1.7614
 Frc consts  --      1.2718                 1.1859                 1.6664
 IR Inten    --     12.2191                26.1851               196.7883

                     85                     86                     87
                      A                      A                      A
 Frequencies --   1282.8999              1285.3183              1288.0553
 Red. masses --      1.5193                 1.2546                 1.2310
 Frc consts  --      1.4733                 1.2212                 1.2034
 IR Inten    --     19.0377                 4.6728                 3.9133

                     88                     89                     90
                      A                      A                      A
 Frequencies --   1307.5942              1323.1793              1328.6729
 Red. masses --      1.3412                 1.3491                 1.8057
 Frc consts  --      1.3511                 1.3916                 1.8782
 IR Inten    --     16.6267                10.5067               160.4459

                     91                     92                     93
                      A                      A                      A
 Frequencies --   1332.9034              1338.4818              1343.9529
 Red. masses --      1.3173                 1.2626                 1.2796
 Frc consts  --      1.3789                 1.3327                 1.3618
 IR Inten    --     10.6216                32.5404                12.8897

                     94                     95                     96
                      A                      A                      A
 Frequencies --   1347.5504              1351.7005              1361.3432
 Red. masses --      1.3595                 7.0327                 1.3356
 Frc consts  --      1.4546                 7.5706                 1.4583
 IR Inten    --      8.0105                48.2013                 6.6883

                     97                     98                     99
                      A                      A                      A
 Frequencies --   1364.6149              1366.7315              1373.8818
 Red. masses --      1.3987                 1.4235                 1.4854
 Frc consts  --      1.5345                 1.5666                 1.6520
 IR Inten    --      0.3406                 9.2950                 2.3542

                    100                    101                    102
                      A                      A                      A
 Frequencies --   1374.5782              1375.4175              1381.2186
 Red. masses --      1.5116                 1.3958                 1.3568
 Frc consts  --      1.6828                 1.5557                 1.5250
 IR Inten    --      4.9141                18.3216                25.0628

                    103                    104                    105
                      A                      A                      A
 Frequencies --   1387.5614              1401.6915              1425.0310
 Red. masses --      1.4638                 1.4783                 2.4927
 Frc consts  --      1.6605                 1.7112                 2.9824
 IR Inten    --     10.6561                 1.3556               879.1631

                    106                    107                    108
                      A                      A                      A
 Frequencies --   1459.0784              1472.2583              1477.7894
 Red. masses --      2.9466                 4.5953                 1.0881
 Frc consts  --      3.6959                 5.8685                 1.4001
 IR Inten    --    126.8863               271.7567                 0.0671

                    109                    110                    111
                      A                      A                      A
 Frequencies --   1480.4819              1481.4615              1483.1251
 Red. masses --      1.0919                 1.0921                 1.0854
 Frc consts  --      1.4100                 1.4121                 1.4066
 IR Inten    --      3.8309                 3.9201                 6.6732

                    112                    113                    114
                      A                      A                      A
 Frequencies --   1483.8221              1485.3433              1491.4329
 Red. masses --      1.0839                 1.0840                 1.0965
 Frc consts  --      1.4061                 1.4091                 1.4370
 IR Inten    --      9.9089                 7.4370                 4.8047

                    115                    116                    117
                      A                      A                      A
 Frequencies --   1496.3878              1497.3468              1507.3369
 Red. masses --      4.1249                 1.0996                 1.0917
 Frc consts  --      5.4419                 1.4526                 1.4615
 IR Inten    --    901.7215                 0.5358                 2.5694

                    118                    119                    120
                      A                      A                      A
 Frequencies --   1527.5887              1570.1342              1620.8773
 Red. masses --      5.1286                 5.0458                 5.9894
 Frc consts  --      7.0512                 7.3292                 9.2712
 IR Inten    --      0.4480                28.1859                 8.4826

                    121                    122                    123
                      A                      A                      A
 Frequencies --   1627.4070              2953.1943              2968.1808
 Red. masses --      6.2701                 1.0791                 1.0825
 Frc consts  --      9.7840                 5.5449                 5.6188
 IR Inten    --      3.1988                11.3578                32.7817

                    124                    125                    126
                      A                      A                      A
 Frequencies --   2983.1534              2990.2130              2992.8949
 Red. masses --      1.0710                 1.0736                 1.0690
 Frc consts  --      5.6157                 5.6561                 5.6417
 IR Inten    --     26.4722                44.8556                51.5769

                    127                    128                    129
                      A                      A                      A
 Frequencies --   2995.1177              2997.7653              3002.1665
 Red. masses --      1.0629                 1.0601                 1.0695
 Frc consts  --      5.6179                 5.6129                 5.6792
 IR Inten    --     27.3515               150.2775                60.6450

                    130                    131                    132
                      A                      A                      A
 Frequencies --   3003.8229              3012.6694              3029.0226
 Red. masses --      1.0660                 1.0676                 1.0689
 Frc consts  --      5.6668                 5.7092                 5.7781
 IR Inten    --    101.2753                90.5566                88.4328

                    133                    134                    135
                      A                      A                      A
 Frequencies --   3036.1911              3037.9596              3041.8965
 Red. masses --      1.0983                 1.0904                 1.1019
 Frc consts  --      5.9651                 5.9293                 6.0071
 IR Inten    --     98.7686               136.2415                93.3427

                    136                    137                    138
                      A                      A                      A
 Frequencies --   3042.4796              3050.4735              3058.4255
 Red. masses --      1.0949                 1.0859                 1.0923
 Frc consts  --      5.9715                 5.9536                 6.0199
 IR Inten    --     89.8125                36.5134                45.7608

                    139                    140                    141
                      A                      A                      A
 Frequencies --   3064.6266              3071.7705              3075.7312
 Red. masses --      1.0908                 1.0956                 1.0903
 Frc consts  --      6.0359                 6.0907                 6.0773
 IR Inten    --     87.2102                19.2865               140.0761

                    142                    143                    144
                      A                      A                      A
 Frequencies --   3081.2128              3158.4245              3172.3583
 Red. masses --      1.0963                 1.0859                 1.0902
 Frc consts  --      6.1321                 6.3823                 6.4640
 IR Inten    --     81.9270                 9.3259                22.4364

                    145                    146                    147
                      A                      A                      A
 Frequencies --   3187.6183              3192.0109              3509.9128
 Red. masses --      1.0922                 1.0940                 1.0638
 Frc consts  --      6.5385                 6.5675                 7.7217
 IR Inten    --     22.4268                33.3941               216.4779

 - Thermochemistry -
 -------------------
 Temperature   298.150 Kelvin.  Pressure   1.00000 Atm.
 Atom     1 has atomic number  6 and mass  12.00000

 Molecular mass:   338.18819 amu.
 Principal axes and moments of inertia in atomic units:
                           1         2         3
     Eigenvalues --  2736.39032********************
           X            0.74656  -0.30958   0.58890
           Y           -0.66526  -0.35870   0.65480
           Z           -0.00853   0.88062   0.47375
 This molecule is an asymmetric top.
 Rotational symmetry number  1.
 Warning -- assumption of classical behavior for rotation
           may cause significant error
 Rotational temperatures (Kelvin)      0.03165     0.00390     0.00367
 Rotational constants (GHZ):           0.65953     0.08132     0.07653
 Zero-point vibrational energy    1141466.2 (Joules/Mol)
                                  272.81697 (Kcal/Mol)
 Warning -- explicit consideration of  35 degrees of freedom as
           vibrations may cause significant error
 Vibrational temperatures:     26.55    46.28    52.15    87.00   113.06
          (Kelvin)            128.81   168.29   193.23   213.45   226.07
                              249.67   282.28   306.93   309.47   331.21
                              391.89   439.90   464.49   502.62   505.58
                              546.20   550.25   564.95   609.11   626.66
                              635.31   643.18   669.67   678.49   698.02
                              727.24   729.52   791.86   828.21   868.66
                              950.77   968.99   979.45  1016.17  1021.29
                             1039.48  1100.50  1122.89  1130.66  1133.34
                             1139.53  1167.14  1223.63  1243.20  1265.84
                             1269.17  1290.25  1314.32  1325.27  1330.26
                             1338.48  1372.20  1386.65  1414.22  1415.71
                             1435.26  1485.15  1497.62  1501.43  1517.23
                             1557.22  1560.20  1565.48  1575.55  1591.18
                             1593.21  1604.34  1611.94  1622.93  1656.54
                             1665.37  1692.45  1729.86  1732.99  1758.87
                             1787.56  1806.41  1810.19  1823.20  1845.81
                             1849.29  1853.22  1881.34  1903.76  1911.66
                             1917.75  1925.78  1933.65  1938.82  1944.80
                             1958.67  1963.38  1966.42  1976.71  1977.71
                             1978.92  1987.27  1996.39  2016.72  2050.30
                             2099.29  2118.25  2126.21  2130.08  2131.49
                             2133.89  2134.89  2137.08  2145.84  2152.97
                             2154.35  2168.72  2197.86  2259.07  2332.08
                             2341.48  4248.99  4270.55  4292.09  4302.25
                             4306.11  4309.31  4313.12  4319.45  4321.83
                             4334.56  4358.09  4368.40  4370.95  4376.61
                             4377.45  4388.95  4400.39  4409.31  4419.59
                             4425.29  4433.18  4544.27  4564.32  4586.27
                             4592.59  5049.98

 Zero-point correction=                           0.434762 (Hartree/Particle)
 Thermal correction to Energy=                    0.456409
 Thermal correction to Enthalpy=                  0.457353
 Thermal correction to Gibbs Free Energy=         0.382775
 Sum of electronic and zero-point Energies=          -1079.696810
 Sum of electronic and thermal Energies=             -1079.675162
 Sum of electronic and thermal Enthalpies=           -1079.674218
 Sum of electronic and thermal Free Energies=        -1079.748797

                     E (Thermal)             CV                S
                      KCal/Mol        Cal/Mol-Kelvin    Cal/Mol-Kelvin
 Total                  286.401             87.808            156.964
 Electronic               0.000              0.000              1.377
 Translational            0.889              2.981             43.350
 Rotational               0.889              2.981             35.614
 Vibrational            284.623             81.846             76.622
 Vibration     1          0.593              1.986              6.794
 Vibration     2          0.594              1.983              5.691
 Vibration     3          0.594              1.982              5.454
 Vibration     4          0.597              1.973              4.442
 Vibration     5          0.600              1.964              3.926
 Vibration     6          0.602              1.957              3.670
 Vibration     7          0.608              1.935              3.150
 Vibration     8          0.613              1.919              2.884
 Vibration     9          0.618              1.904              2.693
 Vibration    10          0.621              1.895              2.584
 Vibration    11          0.627              1.875              2.397
 Vibration    12          0.636              1.845              2.169
 Vibration    13          0.644              1.821              2.015
 Vibration    14          0.645              1.818              2.000
 Vibration    15          0.652              1.795              1.877
 Vibration    16          0.675              1.724              1.581
 Vibration    17          0.696              1.663              1.385
 Vibration    18          0.708              1.630              1.296
 Vibration    19          0.727              1.577              1.169
 Vibration    20          0.728              1.572              1.160
 Vibration    21          0.750              1.514              1.041
 Vibration    22          0.752              1.508              1.029
 Vibration    23          0.760              1.486              0.990
 Vibration    24          0.786              1.419              0.881
 Vibration    25          0.796              1.393              0.841
 Vibration    26          0.801              1.379              0.822
 Vibration    27          0.806              1.367              0.805
 Vibration    28          0.823              1.327              0.750
 Vibration    29          0.829              1.313              0.733
 Vibration    30          0.841              1.283              0.696
 Vibration    31          0.861              1.238              0.645
 Vibration    32          0.862              1.234              0.641
 Vibration    33          0.906              1.139              0.543
 Vibration    34          0.932              1.084              0.494
 Vibration    35          0.962              1.024              0.443

                           ! Non-Optimized Parameters !
 Normal termination of Gaussian 16 at Sun Feb 11 20:10:40 2024.
