 Gaussian 16, Revision A.03,
 Gaussian 16:  ES64L-G16RevA.03 25-Dec-2016

 ----------------------------------------------------------------
 #P UB3LYP/6-311++G(d,p) SCRF=(PCM,Solvent=n,n-DiMethylFormamide)
 ----------------------------------------------------------------

 ------------------
 Quinone PCM in DMF
 ------------------
 Symbolic Z-matrix:
 Charge =  0 Multiplicity = 1

                         Standard orientation:
 ---------------------------------------------------------------------
 Center     Atomic      Atomic             Coordinates (Angstroms)
 Number     Number       Type             X           Y           Z
 ---------------------------------------------------------------------
      1          6           0       -0.973950   -0.877225    1.080271
      2          6           0        0.494009   -0.911095    1.339721
      3          6           0        1.393536   -0.912598    0.349453
      4          6           0        0.973686   -0.875944   -1.080451
      5          6           0       -0.494257   -0.910019   -1.339956
      6          6           0       -1.393802   -0.912784   -0.349697
      7          8           0       -1.760423   -0.803317    2.001687
      8          8           0        1.760199   -0.801178   -2.001758
      9         16           0       -3.166398   -1.062079   -0.795178
     10          6           0       -3.943368    0.432825   -0.169575
     11          6           0       -4.498948    0.427650    1.108294
     12          6           0       -4.005950    1.551483   -1.000227
     13          6           0       -4.630284    2.701776   -0.525245
     14          6           0       -5.124762    1.584219    1.565905
     15          6           0       -5.186869    2.716718    0.753850
     16          8           0       -3.688937   -2.219689   -0.073185
     17          8           0       -3.192600   -1.002675   -2.259996
     18          1           0       -4.438398   -0.461690    1.720579
     19          1           0       -3.593484    1.508954   -2.000364
     20          1           0       -5.566527    1.598226    2.555207
     21          1           0       -4.693049    3.579261   -1.157933
     22          1           0       -5.675894    3.613418    1.117243
     23         16           0        3.166154   -1.062328    0.794753
     24          6           0        3.943522    0.432652    0.169899
     25          6           0        4.005371    1.551515    1.000371
     26          6           0        4.500196    0.427346   -1.107512
     27          6           0        5.126228    1.583899   -1.564867
     28          6           0        4.629804    2.701836    0.525580
     29          6           0        5.187386    2.716634   -0.753084
     30          1           0        0.797883   -0.928881    2.381085
     31          1           0       -0.798129   -0.926828   -2.381338
     32          1           0        3.592509    1.509271    2.000365
     33          1           0        4.440515   -0.462156   -1.719655
     34          1           0        5.568859    1.597706   -2.553785
     35          1           0        4.691912    3.579468    1.158129
     36          1           0        5.676476    3.613364   -1.116313
     37          8           0        3.688505   -2.219591    0.072060
     38          8           0        3.192250   -1.003916    2.259591
 ---------------------------------------------------------------------

 SCF Done:  E(UB3LYP) =  -1941.06089893     A.U. after   16 cycles

 The electronic state is 1-A.
 Alpha  occ. eigenvalues --  -89.08086 -89.08085 -19.17112 -19.17111 -19.14597
 Alpha  occ. eigenvalues --  -19.14597 -19.14465 -19.14465 -10.32266 -10.32264
 Alpha  occ. eigenvalues --  -10.26166 -10.26165 -10.24846 -10.24845 -10.23104
 Alpha  occ. eigenvalues --  -10.23103 -10.20925 -10.20924 -10.20782 -10.20781
 Alpha  occ. eigenvalues --  -10.20127 -10.20127 -10.19902 -10.19902 -10.19863
 Alpha  occ. eigenvalues --  -10.19862  -8.14451  -8.14451  -6.10714  -6.10714
 Alpha  occ. eigenvalues --   -6.10652  -6.10652  -6.10547  -6.10547  -1.14190
 Alpha  occ. eigenvalues --   -1.14172  -1.10466  -1.10309  -1.03860  -1.03855
 Alpha  occ. eigenvalues --   -0.90286  -0.89235  -0.89186  -0.84379  -0.79918
 Alpha  occ. eigenvalues --   -0.79549  -0.77777  -0.77776  -0.75016  -0.72868
 Alpha  occ. eigenvalues --   -0.69175  -0.66184  -0.65366  -0.63686  -0.63675
 Alpha  occ. eigenvalues --   -0.61712  -0.59767  -0.57015  -0.56331  -0.55845
 Alpha  occ. eigenvalues --   -0.54080  -0.53338  -0.50939  -0.50476  -0.50189
 Alpha  occ. eigenvalues --   -0.49706  -0.49438  -0.48513  -0.47978  -0.47921
 Alpha  occ. eigenvalues --   -0.47197  -0.47195  -0.46765  -0.46715  -0.45294
 Alpha  occ. eigenvalues --   -0.45120  -0.45030  -0.44642  -0.40173  -0.40149
 Alpha  occ. eigenvalues --   -0.39488  -0.39433  -0.37480  -0.37472  -0.37281
 Alpha  occ. eigenvalues --   -0.36891  -0.36055  -0.35902  -0.34728  -0.34703
 Alpha  occ. eigenvalues --   -0.33936  -0.33752  -0.33112  -0.32832  -0.32053
 Alpha  occ. eigenvalues --   -0.30203  -0.28866  -0.28809  -0.28274  -0.28222
 Alpha virt. eigenvalues --   -0.16633  -0.08540  -0.06015  -0.04862  -0.03806
 Alpha virt. eigenvalues --   -0.03780  -0.03626  -0.01081  -0.00519   0.00491
 Alpha virt. eigenvalues --    0.00763   0.01057   0.01369   0.01390   0.02231

  Beta  occ. eigenvalues --  -89.08086 -89.08085 -19.17112 -19.17111 -19.14597
  Beta  occ. eigenvalues --  -19.14597 -19.14465 -19.14465 -10.32266 -10.32264
  Beta  occ. eigenvalues --  -10.26166 -10.26165 -10.24846 -10.24845 -10.23104
  Beta  occ. eigenvalues --  -10.23103 -10.20925 -10.20924 -10.20782 -10.20781
  Beta  occ. eigenvalues --  -10.20127 -10.20127 -10.19902 -10.19902 -10.19863
  Beta  occ. eigenvalues --  -10.19862  -8.14451  -8.14451  -6.10714  -6.10714
  Beta  occ. eigenvalues --   -6.10652  -6.10652  -6.10547  -6.10547  -1.14190
  Beta  occ. eigenvalues --   -1.14172  -1.10466  -1.10309  -1.03860  -1.03855
  Beta  occ. eigenvalues --   -0.90286  -0.89235  -0.89186  -0.84379  -0.79918
  Beta  occ. eigenvalues --   -0.79549  -0.77777  -0.77776  -0.75016  -0.72868
  Beta  occ. eigenvalues --   -0.69175  -0.66184  -0.65366  -0.63686  -0.63675
  Beta  occ. eigenvalues --   -0.61712  -0.59767  -0.57015  -0.56331  -0.55845
  Beta  occ. eigenvalues --   -0.54080  -0.53338  -0.50939  -0.50476  -0.50189
  Beta  occ. eigenvalues --   -0.49706  -0.49438  -0.48513  -0.47978  -0.47921
  Beta  occ. eigenvalues --   -0.47197  -0.47195  -0.46765  -0.46715  -0.45294
  Beta  occ. eigenvalues --   -0.45120  -0.45030  -0.44642  -0.40173  -0.40149
  Beta  occ. eigenvalues --   -0.39488  -0.39433  -0.37480  -0.37472  -0.37281
  Beta  occ. eigenvalues --   -0.36891  -0.36055  -0.35902  -0.34728  -0.34703
  Beta  occ. eigenvalues --   -0.33936  -0.33752  -0.33112  -0.32832  -0.32053
  Beta  occ. eigenvalues --   -0.30203  -0.28866  -0.28809  -0.28274  -0.28222
  Beta virt. eigenvalues --   -0.16633  -0.08540  -0.06015  -0.04862  -0.03806
  Beta virt. eigenvalues --   -0.03780  -0.03626  -0.01081  -0.00519   0.00491
  Beta virt. eigenvalues --    0.00763   0.01057   0.01369   0.01390   0.02231

 Mulliken charges and spin densities:
               1          2
     1  C   -0.445067  -0.000000
     2  C   -0.396458   0.000000
     3  C    0.304783   0.000000
     4  C   -0.445736   0.000000
     5  C   -0.396980   0.000000
     6  C    0.305165  -0.000000
     7  O   -0.169544   0.000000
     8  O   -0.169522   0.000000
     9  S    0.506487   0.000000
    10  C    0.565573  -0.000000
    11  C   -0.260001  -0.000000
    12  C   -0.012410   0.000000
    13  C   -0.542518   0.000000
    14  C   -0.411561   0.000000
    15  C   -0.303697   0.000000
    16  O   -0.136595   0.000000
    17  O   -0.180489  -0.000000
    18  H    0.277351  -0.000000
    19  H    0.256423   0.000000
    20  H    0.222665  -0.000000
    21  H    0.217933   0.000000
    22  H    0.201636  -0.000000
    23  S    0.507407  -0.000000
    24  C    0.566066   0.000000
    25  C   -0.012199   0.000000
    26  C   -0.260666  -0.000000
    27  C   -0.411352   0.000000
    28  C   -0.542472  -0.000000
    29  C   -0.303828  -0.000000
    30  H    0.305356   0.000000
    31  H    0.305397  -0.000000
    32  H    0.256414  -0.000000
    33  H    0.277276  -0.000000
    34  H    0.222659  -0.000000
    35  H    0.217928  -0.000000
    36  H    0.201636   0.000000
    37  O   -0.136618   0.000000
    38  O   -0.180440  -0.000000
 Sum of Mulliken charges =  -0.00000  -0.00000

 Dipole moment (field-independent basis, Debye):
    X=              0.0021    Y=             11.1461    Z=              0.0024  Tot=             11.1461
 Quadrupole moment (field-independent basis, Debye-Ang):
   XX=           -164.2694   YY=           -160.2135   ZZ=           -170.6074
   XY=             -0.0038   XZ=            -17.6331   YZ=              0.0062

 Normal termination of Gaussian 16 at Wed Jan 24 23:01:32 2024.
