 Q-Chem 5.4, Q-Chem, Inc., Pleasanton, CA (2021)
 Q-Chem 5.4.0 for Intel X86 EM64T Linux

User input:
--------------------------------------------------------------
$molecule
0 1
C                  1.3491530000      1.4895290000     -2.4702500000
C                 -0.0883360000      1.7427850000     -2.7019630000
C                 -1.0633830000      0.9765630000     -2.1812580000
C                 -0.6829530000     -0.1922050000     -1.3238680000
C                  0.7569820000     -0.4424440000     -1.0734570000
O                  2.2048090000      2.2186620000     -2.9444120000
O                 -1.5329430000     -0.9234560000     -0.8433630000
H                 -0.3068470000      2.6060880000     -3.3224120000
C                  1.7191440000      0.3175480000     -1.6168360000
C                  3.1843380000      0.0808760000     -1.3017940000
C                  4.0840360000     -0.4253660000     -2.3725110000
C                  5.4615680000     -0.4846560000     -2.1164890000
C                  3.5936340000     -0.8643530000     -3.6082770000
C                  6.3311770000     -0.9694520000     -3.0842200000
C                  5.8344000000     -1.4078510000     -4.3139620000
C                  4.4660520000     -1.3576700000     -4.5740990000
O                  3.5692080000      0.2946520000     -0.1686760000
H                  5.8261430000     -0.1432250000     -1.1555200000
H                  2.5307940000     -0.8309270000     -3.8168820000
H                  7.3959510000     -1.0074590000     -2.8848910000
H                  6.5145660000     -1.7873290000     -5.0683000000
H                  4.0803570000     -1.6999520000     -5.5273320000
C                 -2.5251830000      1.2163880000     -2.3977850000
H                  0.9808170000     -1.2843110000     -0.4267530000
H                 -2.6899200000      2.0836680000     -3.0378680000
H                 -3.0330790000      1.3745740000     -1.4423500000
H                 -2.9948350000      0.3395950000     -2.8519840000
$end
$rem
MAX_SCF_CYCLES=200
BASIS  =  6-311++G(d,p)
GUI  =  2
JOB_TYPE  =  SP
METHOD  =  B3LYP
SOLVENT_METHOD = COSMO
$end
$solvent
dielectric 37.219
opticaldielectric 1.43
$end

--------------------------------------------------------------

             Standard Nuclear Orientation (Angstroms)
    I     Atom           X                Y                Z
 ----------------------------------------------------------------
    1      C      -0.9871619725     0.6030729333     1.0965457647
    2      C      -2.3705332149     1.0902250445     0.9144167798
    3      C      -3.2340271247     0.5426408008     0.0406454903
    4      C      -2.7799819461    -0.6174368952    -0.7923766881
    5      C      -1.3986252250    -1.1221500136    -0.6030190697
    6      O      -0.2386080380     1.1138839830     1.9134611843
    7      O      -3.5239033185    -1.1356509722    -1.6085453240
    8      H      -2.6487647256     1.9259286834     1.5485955739
    9      C      -0.5415896001    -0.5524907090     0.2569707595
   10      C       0.8481542959    -1.1195211446     0.4786618592
   11      C       2.0304953890    -0.3418484338     0.0209861635
   12      C       3.3087565420    -0.7968287328     0.3755257690
   13      C       1.9028979453     0.8071974425    -0.7687820184
   14      C       4.4373304135    -0.1085464942    -0.0491374378
   15      C       4.3023287792     1.0357619431    -0.8388077593
   16      C       3.0356705597     1.4911843592    -1.2003779715
   17      O       0.9451838039    -2.2097120203     1.0076709575
   18      H       3.3919456831    -1.6879733203     0.9853555554
   19      H       0.9215652026     1.1658779575    -1.0561781656
   20      H       5.4233530860    -0.4597080274     0.2325807199
   21      H       5.1846031311     1.5715608630    -1.1707213682
   22      H       2.9309788436     2.3776854303    -1.8149723486
   23      C      -4.6406213798     1.0154006334    -0.1574705231
   24      H      -1.1252371357    -1.9786098528    -1.2103111847
   25      H      -4.8645191157     1.8633058142     0.4905616773
   26      H      -5.3488317259     0.2085718169     0.0506221561
   27      H      -4.8050335914     1.3052283088    -1.1989138680
 ----------------------------------------------------------------

    9    -765.3591321291      5.76e-06  Convergence criterion met
 Total energy in the final basis set =     -765.3591321291
    5    -765.3792707668      5.09e-06  Convergence criterion met
 Total energy in the final basis set =     -765.3792707668

                    Orbital Energies (a.u.)
 --------------------------------------------------------------

 Alpha MOs
 -- Occupied --
-19.1510 -19.1498 -19.1420 -10.2970 -10.2942 -10.2940 -10.2294 -10.2249
-10.2213 -10.2073 -10.2019 -10.1974 -10.1931 -10.1929 -10.1888 -10.1884
-10.1772  -1.0837  -1.0808  -1.0756  -0.8802  -0.8739  -0.8224  -0.7811
 -0.7659  -0.7350  -0.7151  -0.6589  -0.6359  -0.6258  -0.6092  -0.5694
 -0.5404  -0.5378  -0.5062  -0.4929  -0.4802  -0.4785  -0.4660  -0.4584
 -0.4520  -0.4509  -0.4424  -0.4394  -0.4302  -0.4191  -0.4119  -0.4116
 -0.3939  -0.3803  -0.3755  -0.3598  -0.3232  -0.3038  -0.3011  -0.2944
 -0.2781  -0.2749  -0.2733

          Ground-State Mulliken Net Atomic Charges

     Atom                 Charge (a.u.)
  ----------------------------------------
      1 C                    -0.863499
      2 C                    -0.459862
      3 C                     0.997669
      4 C                    -0.913262
      5 C                     0.480496
      6 O                    -0.279099
      7 O                    -0.280136
      8 H                     0.252276
      9 C                     1.100213
     10 C                    -0.602953
     11 C                     0.930458
     12 C                     0.348682
     13 C                    -0.779371
     14 C                    -0.488966
     15 C                    -0.287961
     16 C                    -0.343606
     17 O                    -0.272342
     18 H                     0.231425
     19 H                     0.188195
     20 H                     0.223333
     21 H                     0.208971
     22 H                     0.237282
     23 C                    -0.510141
     24 H                     0.298211
     25 H                     0.179281
     26 H                     0.202396
     27 H                     0.202310
  ----------------------------------------
  Sum of atomic charges =     0.000000

                    Cartesian Multipole Moments
 -----------------------------------------------------------------
    Charge (ESU x 10^10)
                 0.0000
    Dipole Moment (Debye)
         X       0.2334      Y       4.1589      Z      -2.4802
       Tot       4.8480
    Quadrupole Moments (Debye-Ang)
        XX     -76.9733     XY      -5.7827     YY    -102.6243
        XZ     -12.3066     YZ      -4.7653     ZZ    -107.4191

 Total job time:  53.79s(wall), 342.64s(cpu)
        *  Thank you very much for using Q-Chem.  Have a nice day.  *
