 Gaussian 16, Revision A.03,
 Gaussian 16:  ES64L-G16RevA.03 25-Dec-2016

 ----------------------------------------------------------------------
 #P UB3LYP/6-311++G(d,p) nosym opt freq SCRF=(PCM,Solvent=n,n-DiMethylF
 ormamide)
 ----------------------------------------------------------------------

 -------
 Reduced
 -------
 Symbolic Z-matrix:
 Charge = -2 Multiplicity = 1

 SCF Done:  E(UB3LYP) =  -650.255508694     A.U. after   17 cycles
 SCF Done:  E(UB3LYP) =  -650.256943509     A.U. after   14 cycles
 SCF Done:  E(UB3LYP) =  -650.257359185     A.U. after   14 cycles
 SCF Done:  E(UB3LYP) =  -650.257426782     A.U. after   12 cycles
 SCF Done:  E(UB3LYP) =  -650.257439959     A.U. after   12 cycles
 SCF Done:  E(UB3LYP) =  -650.257443128     A.U. after   11 cycles
 SCF Done:  E(UB3LYP) =  -650.257445152     A.U. after   11 cycles
 SCF Done:  E(UB3LYP) =  -650.257445965     A.U. after   11 cycles
 SCF Done:  E(UB3LYP) =  -650.257446227     A.U. after   10 cycles
 SCF Done:  E(UB3LYP) =  -650.257446340     A.U. after    9 cycles
 SCF Done:  E(UB3LYP) =  -650.257446387     A.U. after    9 cycles
 Optimization completed.
    -- Stationary point found.
 Normal termination of Gaussian 16 at Sat Feb 10 12:40:51 2024.

 ----------------------------------------------------------------------
 #P Geom=AllCheck Guess=TCheck SCRF=Check GenChk UB3LYP/6-311++G(d,p) F
 req
 ----------------------------------------------------------------------

 Structure from the checkpoint file:  "087-an.chk"
 -------
 Reduced
 -------
 Charge = -2 Multiplicity = 1

                          Input orientation:
 ---------------------------------------------------------------------
 Center     Atomic      Atomic             Coordinates (Angstroms)
 Number     Number       Type             X           Y           Z
 ---------------------------------------------------------------------
      1          6           0       -2.982707   -1.408365   -0.217100
      2          8           0       -2.227343   -0.557257    0.641723
      3          6           0       -0.858741   -0.539516    0.351096
      4          6           0       -0.328081    0.596155   -0.285053
      5          8           0       -1.223866    1.588794   -0.695366
      6          6           0       -1.178900    2.769966    0.102445
      7          6           0        1.061274    0.755414   -0.577429
      8          8           0        1.537641    1.817960   -1.189616
      9          6           0        1.882361   -0.336029   -0.163051
     10          6           0        1.333866   -1.466917    0.460298
     11          6           0       -0.044588   -1.639518    0.754746
     12          8           0       -0.528126   -2.706759    1.354652
     13          6           0        3.368942   -0.261378   -0.421122
     14          1           0       -2.605424   -2.434103   -0.174637
     15          1           0       -4.017362   -1.385368    0.133654
     16          1           0       -2.949468   -1.046828   -1.252805
     17          1           0       -1.487716    2.557498    1.133983
     18          1           0       -1.879578    3.483025   -0.338524
     19          1           0       -0.172753    3.198341    0.100329
     20          1           0        2.001602   -2.276018    0.755899
     21          1           0        3.827558    0.603421    0.074888
     22          1           0        3.874813   -1.162473   -0.061310
     23          1           0        3.596595   -0.150046   -1.488781
 ---------------------------------------------------------------------

 SCF Done:  E(UB3LYP) =  -650.257446387     A.U. after    1 cycles

 Alpha  occ. eigenvalues --  -19.10793 -19.10792 -19.00804 -19.00748 -10.19241
 Alpha  occ. eigenvalues --  -10.19211 -10.16927 -10.16748 -10.16157 -10.15923
 Alpha  occ. eigenvalues --  -10.13844 -10.12496 -10.11355  -1.02508  -1.00697
 Alpha  occ. eigenvalues --   -0.91141  -0.90811  -0.77851  -0.72760  -0.68242
 Alpha  occ. eigenvalues --   -0.67489  -0.63485  -0.61410  -0.54502  -0.52348
 Alpha  occ. eigenvalues --   -0.47464  -0.45827  -0.44995  -0.44153  -0.42395
 Alpha  occ. eigenvalues --   -0.41929  -0.40536  -0.38968  -0.38880  -0.35791
 Alpha  occ. eigenvalues --   -0.35344  -0.34353  -0.33330  -0.32952  -0.31675
 Alpha  occ. eigenvalues --   -0.31104  -0.29575  -0.25114  -0.25097  -0.21322
 Alpha  occ. eigenvalues --   -0.19195  -0.18841  -0.18681  -0.11371
 Alpha virt. eigenvalues --   -0.00053   0.01027   0.01349   0.02415   0.03110
 Alpha virt. eigenvalues --    0.03488   0.03759   0.04103   0.04980   0.05168
 Alpha virt. eigenvalues --    0.05723   0.06970   0.07068   0.07474   0.08078

  Beta  occ. eigenvalues --  -19.10793 -19.10792 -19.00804 -19.00748 -10.19241
  Beta  occ. eigenvalues --  -10.19211 -10.16927 -10.16748 -10.16157 -10.15923
  Beta  occ. eigenvalues --  -10.13844 -10.12496 -10.11355  -1.02508  -1.00697
  Beta  occ. eigenvalues --   -0.91141  -0.90811  -0.77851  -0.72760  -0.68242
  Beta  occ. eigenvalues --   -0.67489  -0.63485  -0.61410  -0.54502  -0.52348
  Beta  occ. eigenvalues --   -0.47464  -0.45827  -0.44995  -0.44153  -0.42395
  Beta  occ. eigenvalues --   -0.41929  -0.40536  -0.38968  -0.38880  -0.35791
  Beta  occ. eigenvalues --   -0.35344  -0.34353  -0.33330  -0.32952  -0.31675
  Beta  occ. eigenvalues --   -0.31104  -0.29575  -0.25114  -0.25097  -0.21322
  Beta  occ. eigenvalues --   -0.19195  -0.18841  -0.18681  -0.11371
  Beta virt. eigenvalues --   -0.00053   0.01027   0.01349   0.02415   0.03110
  Beta virt. eigenvalues --    0.03488   0.03759   0.04103   0.04980   0.05168
  Beta virt. eigenvalues --    0.05723   0.06970   0.07068   0.07474   0.08078

 Mulliken charges and spin densities:
               1          2
     1  C   -0.243130  -0.000000
     2  O   -0.220107  -0.000000
     3  C    0.150695   0.000000
     4  C   -0.283448  -0.000000
     5  O   -0.210477   0.000000
     6  C   -0.244491   0.000000
     7  C   -0.532803  -0.000000
     8  O   -0.745252   0.000000
     9  C    1.083623  -0.000000
    10  C   -0.595243   0.000000
    11  C   -0.346979  -0.000000
    12  O   -0.758742   0.000000
    13  C   -0.415317   0.000000
    14  H    0.159236   0.000000
    15  H    0.135213   0.000000
    16  H    0.131395   0.000000
    17  H    0.130311  -0.000000
    18  H    0.135998  -0.000000
    19  H    0.159693   0.000000
    20  H    0.102499  -0.000000
    21  H    0.138069  -0.000000
    22  H    0.133556   0.000000
    23  H    0.135701  -0.000000
 Sum of Mulliken charges =  -2.00000  -0.00000

 Dipole moment (field-independent basis, Debye):
    X=             -2.9279    Y=              3.7984    Z=             -0.8902  Tot=              4.8778
 Quadrupole moment (field-independent basis, Debye-Ang):
   XX=           -101.3592   YY=           -125.5883   ZZ=           -102.4911
   XY=            -13.2712   XZ=             11.7591   YZ=             27.0916

  Exact polarizability: 235.717   6.780 227.334 -16.101 -39.600 158.200
 Approx polarizability: 245.849   7.291 242.422 -17.671 -45.105 171.763

                      1                      2                      3
                      A                      A                      A
 Frequencies --     45.4237                51.6216                87.9053
 Red. masses --      3.0416                 2.7674                 4.0256
 Frc consts  --      0.0037                 0.0043                 0.0183
 IR Inten    --     15.3115                15.1196                13.7088

                      4                      5                      6
                      A                      A                      A
 Frequencies --    100.8211               136.6515               160.0408
 Red. masses --      4.0703                 1.0476                 2.6966
 Frc consts  --      0.0244                 0.0115                 0.0407
 IR Inten    --     17.2099                 0.2475                 7.8200

                      7                      8                      9
                      A                      A                      A
 Frequencies --    174.2097               195.7055               222.3067
 Red. masses --      1.3022                 1.0729                 3.5858
 Frc consts  --      0.0233                 0.0242                 0.1044
 IR Inten    --      4.0369                 1.0337                 1.2064

                     10                     11                     12
                      A                      A                      A
 Frequencies --    264.0673               275.2430               336.5165
 Red. masses --      3.7816                 3.4849                 8.6834
 Frc consts  --      0.1554                 0.1556                 0.5794
 IR Inten    --      6.2705                16.2953                 0.8270

                     13                     14                     15
                      A                      A                      A
 Frequencies --    339.8156               354.4941               388.8819
 Red. masses --      7.8614                 9.1704                 5.7153
 Frc consts  --      0.5349                 0.6790                 0.5092
 IR Inten    --      3.7863                 2.6678                 1.0625

                     16                     17                     18
                      A                      A                      A
 Frequencies --    415.2964               467.1685               516.6681
 Red. masses --      6.7807                 7.5681                 5.4265
 Frc consts  --      0.6890                 0.9732                 0.8535
 IR Inten    --      4.0841                 4.6769                 4.6439

                     19                     20                     21
                      A                      A                      A
 Frequencies --    556.0185               615.5353               685.4550
 Red. masses --      5.7434                 4.3351                 4.1321
 Frc consts  --      1.0462                 0.9677                 1.1439
 IR Inten    --     12.3165                11.8920                 1.6865

                     22                     23                     24
                      A                      A                      A
 Frequencies --    699.3743               720.7698               773.8638
 Red. masses --      5.5411                 5.1128                 7.7885
 Frc consts  --      1.5969                 1.5650                 2.7481
 IR Inten    --     47.0778                18.5814                 6.3292

                     25                     26                     27
                      A                      A                      A
 Frequencies --    834.5689               920.1687               938.2683
 Red. masses --      1.5625                 6.2463                 4.3726
 Frc consts  --      0.6412                 3.1161                 2.2680
 IR Inten    --     51.7669               222.9571                93.8044

                     28                     29                     30
                      A                      A                      A
 Frequencies --   1002.4972              1027.1226              1037.7024
 Red. masses --      1.8029                 6.8505                 1.4757
 Frc consts  --      1.0676                 4.2581                 0.9363
 IR Inten    --     84.7005                68.3367                 1.8417

                     31                     32                     33
                      A                      A                      A
 Frequencies --   1077.8972              1126.7007              1155.7490
 Red. masses --      7.2598                 7.2147                 1.2763
 Frc consts  --      4.9697                 5.3962                 1.0044
 IR Inten    --    362.7844               230.5209                16.9047

                     34                     35                     36
                      A                      A                      A
 Frequencies --   1160.2647              1185.2825              1192.7094
 Red. masses --      1.2815                 1.6775                 4.0465
 Frc consts  --      1.0164                 1.3885                 3.3916
 IR Inten    --     16.4926               126.2900               223.3873

                     37                     38                     39
                      A                      A                      A
 Frequencies --   1215.3476              1217.2730              1271.4539
 Red. masses --      1.6576                 1.7223                 4.0705
 Frc consts  --      1.4426                 1.5036                 3.8770
 IR Inten    --    126.5687                95.6210               312.4709

                     40                     41                     42
                      A                      A                      A
 Frequencies --   1351.1261              1381.7994              1404.7342
 Red. masses --      9.1137                 1.7528                 2.5900
 Frc consts  --      9.8025                 1.9719                 3.0112
 IR Inten    --    185.1837               345.9497               584.3201

                     43                     44                     45
                      A                      A                      A
 Frequencies --   1428.1523              1446.5154              1455.4765
 Red. masses --      2.5190                 1.2209                 1.0505
 Frc consts  --      3.0271                 1.5051                 1.3112
 IR Inten    --    582.4188                 1.6263                 5.6200

                     46                     47                     48
                      A                      A                      A
 Frequencies --   1459.0115              1471.3783              1472.6650
 Red. masses --      1.4674                 1.0744                 1.1018
 Frc consts  --      1.8404                 1.3705                 1.4078
 IR Inten    --     63.4387                 0.7891                12.5038

                     49                     50                     51
                      A                      A                      A
 Frequencies --   1483.3416              1498.1951              1499.9952
 Red. masses --      1.1642                 1.0491                 1.0637
 Frc consts  --      1.5092                 1.3875                 1.4101
 IR Inten    --     38.8027                15.7745                22.1138

                     52                     53                     54
                      A                      A                      A
 Frequencies --   1506.9124              1602.6555              2983.3984
 Red. masses --      4.7030                 7.3206                 1.0380
 Frc consts  --      6.2921                11.0785                 5.4432
 IR Inten    --     11.5885                12.7718               224.2027

                     55                     56                     57
                      A                      A                      A
 Frequencies --   2984.8507              2985.9544              3013.2592
 Red. masses --      1.0380                 1.0373                 1.0990
 Frc consts  --      5.4485                 5.4489                 5.8792
 IR Inten    --    173.5609                54.2190                86.9238

                     58                     59                     60
                      A                      A                      A
 Frequencies --   3053.3311              3055.7094              3063.9299
 Red. masses --      1.0958                 1.0937                 1.0982
 Frc consts  --      6.0189                 6.0167                 6.0740
 IR Inten    --     79.1347                68.1575                51.7402

                     61                     62                     63
                      A                      A                      A
 Frequencies --   3088.0694              3089.9542              3098.3200
 Red. masses --      1.1042                 1.1045                 1.0875
 Frc consts  --      6.2040                 6.2132                 6.1506
 IR Inten    --     72.3510                69.6285               103.3693

 - Thermochemistry -
 -------------------
 Temperature   298.150 Kelvin.  Pressure   1.00000 Atm.
 Atom     1 has atomic number  6 and mass  12.00000

 Molecular mass:   182.05791 amu.
 Principal axes and moments of inertia in atomic units:
                           1         2         3
     Eigenvalues --  1816.484982314.710723852.78982
           X            0.89315  -0.43848   0.10006
           Y            0.39114   0.86710   0.30845
           Z           -0.22202  -0.23636   0.94596
 This molecule is an asymmetric top.
 Rotational symmetry number  1.
 Warning -- assumption of classical behavior for rotation
           may cause significant error
 Rotational temperatures (Kelvin)      0.04768     0.03742     0.02248
 Rotational constants (GHZ):           0.99353     0.77968     0.46842
 Zero-point vibrational energy     453537.8 (Joules/Mol)
                                  108.39813 (Kcal/Mol)
 Warning -- explicit consideration of  20 degrees of freedom as
           vibrations may cause significant error
 Vibrational temperatures:     65.35    74.27   126.48   145.06   196.61
          (Kelvin)            230.26   250.65   281.58   319.85   379.93
                              396.01   484.17   488.92   510.04   559.51
                              597.52   672.15   743.37   799.99   885.62
                              986.22  1006.24  1037.03  1113.42  1200.76
                             1323.92  1349.96  1442.37  1477.80  1493.02
                             1550.85  1621.07  1662.86  1669.36  1705.36
                             1716.04  1748.61  1751.38  1829.34  1943.97
                             1988.10  2021.10  2054.79  2081.21  2094.11
                             2099.19  2116.99  2118.84  2134.20  2155.57
                             2158.16  2168.11  2305.86  4292.44  4294.53
                             4296.12  4335.41  4393.06  4396.48  4408.31
                             4443.04  4445.75  4457.79

 Zero-point correction=                           0.172743 (Hartree/Particle)
 Thermal correction to Energy=                    0.186112
 Thermal correction to Enthalpy=                  0.187056
 Thermal correction to Gibbs Free Energy=         0.132446
 Sum of electronic and zero-point Energies=           -650.084703
 Sum of electronic and thermal Energies=              -650.071334
 Sum of electronic and thermal Enthalpies=            -650.070390
 Sum of electronic and thermal Free Energies=         -650.125000

                     E (Thermal)             CV                S
                      KCal/Mol        Cal/Mol-Kelvin    Cal/Mol-Kelvin
 Total                  116.787             47.950            114.936
 Electronic               0.000              0.000              0.000
 Translational            0.889              2.981             41.504
 Rotational               0.889              2.981             31.161
 Vibrational            115.010             41.989             42.271
 Vibration     1          0.595              1.979              5.007
 Vibration     2          0.596              1.977              4.754
 Vibration     3          0.601              1.958              3.706
 Vibration     4          0.604              1.948              3.438
 Vibration     5          0.614              1.917              2.850
 Vibration     6          0.622              1.891              2.549
 Vibration     7          0.627              1.874              2.390
 Vibration     8          0.636              1.846              2.173
 Vibration     9          0.648              1.807              1.940
 Vibration    10          0.671              1.739              1.635
 Vibration    11          0.677              1.719              1.563
 Vibration    12          0.717              1.603              1.229
 Vibration    13          0.720              1.596              1.213
 Vibration    14          0.730              1.566              1.146
 Vibration    15          0.757              1.494              1.004
 Vibration    16          0.779              1.437              0.908
 Vibration    17          0.824              1.323              0.746
 Vibration    18          0.872              1.213              0.618
 Vibration    19          0.911              1.127              0.532
 Vibration    20          0.975              0.999              0.424

                           ! Non-Optimized Parameters !
 Normal termination of Gaussian 16 at Sat Feb 10 13:03:21 2024.
