 Q-Chem 5.4, Q-Chem, Inc., Pleasanton, CA (2021)
 Q-Chem 5.4.0 for Intel X86 EM64T Linux

User input:
--------------------------------------------------------------
$molecule
-1 2
O                  2.5425450000     -0.9970870000     -0.2523720000
C                  1.3170630000     -0.4440790000     -0.1248550000
C                  1.0986830000      0.9049870000     -0.0016020000
Cl                 2.4487610000      2.0311280000     -0.0027210000
C                 -0.2285750000      1.4259410000      0.1300870000
O                 -0.5573610000      2.6409310000      0.2491200000
C                 -1.3167220000      0.4441530000      0.1249880000
C                 -1.0985280000     -0.9051890000      0.0017250000
Cl                -2.4488950000     -2.0309100000      0.0026940000
C                  0.2285040000     -1.4261190000     -0.1298500000
O                  0.5572670000     -2.6410930000     -0.2494810000
O                 -2.5422670000      0.9971520000      0.2525250000
H                  2.3260310000     -1.9554680000     -0.3143450000
H                 -2.3265050000      1.9556540000      0.3140880000
$end

$rem
BASIS  =  6-311++G(d,p)
GUI  =  2
JOB_TYPE  =  SP
METHOD  =  B3LYP
SCF_CONVERGENCE  = 8
SOLVENT_METHOD = sm12
$end

$smx
solvent dimethylformamide
charges CM5
$end

--------------------------------------------------------------

             Standard Nuclear Orientation (Angstroms)
    I     Atom           X                Y                Z
 ----------------------------------------------------------------
    1      O       2.5425450000    -0.9970870000    -0.2523720000
    2      C       1.3170630000    -0.4440790000    -0.1248550000
    3      C       1.0986830000     0.9049870000    -0.0016020000
    4      Cl      2.4487610000     2.0311280000    -0.0027210000
    5      C      -0.2285750000     1.4259410000     0.1300870000
    6      O      -0.5573610000     2.6409310000     0.2491200000
    7      C      -1.3167220000     0.4441530000     0.1249880000
    8      C      -1.0985280000    -0.9051890000     0.0017250000
    9      Cl     -2.4488950000    -2.0309100000     0.0026940000
   10      C       0.2285040000    -1.4261190000    -0.1298500000
   11      O       0.5572670000    -2.6410930000    -0.2494810000
   12      O      -2.5422670000     0.9971520000     0.2525250000
   13      H       2.3260310000    -1.9554680000    -0.3143450000
   14      H      -2.3265050000     1.9556540000     0.3140880000
 ----------------------------------------------------------------

   16   -1451.4147571143      6.05e-09  Convergence criterion met
 Total energy in the final basis set =    -1451.4921391334

                    Orbital Energies (a.u.)
 --------------------------------------------------------------

 Alpha MOs
 -- Occupied --
********-101.5497 -19.1571 -19.1571 -19.0962 -19.0962 -10.2436 -10.2436
-10.2419 -10.2419 -10.2228 -10.2228  -9.4636  -9.4636  -7.2283  -7.2283
 -7.2187  -7.2187  -7.2179  -7.2179  -1.0822  -1.0802  -1.0116  -1.0110
 -0.8783  -0.8631  -0.8055  -0.7252  -0.6926  -0.6182  -0.5923  -0.5673
 -0.5188  -0.5077  -0.4605  -0.4583  -0.4469  -0.4268  -0.4211  -0.4194
 -0.3909  -0.3873  -0.3661  -0.3626  -0.3386  -0.3324  -0.3122  -0.3102
 -0.2737  -0.2682  -0.2668  -0.2257  -0.1689

 Beta MOs
 -- Occupied --
********-101.5497 -19.1560 -19.1559 -19.0899 -19.0899 -10.2413 -10.2413
-10.2400 -10.2399 -10.2233 -10.2233  -9.4636  -9.4636  -7.2283  -7.2283
 -7.2187  -7.2187  -7.2179  -7.2179  -1.0787  -1.0769  -1.0011  -1.0008
 -0.8764  -0.8628  -0.8014  -0.7226  -0.6823  -0.6146  -0.5886  -0.5648
 -0.5154  -0.5061  -0.4573  -0.4468  -0.4457  -0.4209  -0.4148  -0.4077
 -0.3850  -0.3767  -0.3635  -0.3507  -0.3283  -0.3219  -0.3118  -0.3097
 -0.2681  -0.2608  -0.2460  -0.2202

          Ground-State Mulliken Net Atomic Charges

     Atom                 Charge (a.u.)    Spin (a.u.)
  --------------------------------------------------------
      1 O                    -0.144023       0.035057
      2 C                    -1.467424       0.180236
      3 C                     2.182505      -0.020353
      4 Cl                    0.348386      -0.002451
      5 C                    -1.336467       0.081119
      6 O                    -0.368633       0.229587
      7 C                    -1.467350       0.180591
      8 C                     2.182884      -0.020352
      9 Cl                    0.348385      -0.002435
     10 C                    -1.336742       0.081243
     11 O                    -0.368620       0.229428
     12 O                    -0.144017       0.035117
     13 H                     0.285541      -0.003393
     14 H                     0.285575      -0.003393
  --------------------------------------------------------
  Sum of atomic charges =    -1.000000

                    Cartesian Multipole Moments
 -----------------------------------------------------------------
    Charge (ESU x 10^10)
                -4.8032
    Dipole Moment (Debye)
         X      -0.0013      Y       0.0007      Z       0.0002
       Tot       0.0015
    Quadrupole Moments (Debye-Ang)
        XX    -103.0062     XY      -4.6006     YY    -113.7411
        XZ       0.8815     YZ      -2.0200     ZZ     -84.8473

 Total job time:  131.48s(wall), 966.06s(cpu)
        *  Thank you very much for using Q-Chem.  Have a nice day.  *
