 Q-Chem 5.4, Q-Chem, Inc., Pleasanton, CA (2021)
 Q-Chem 5.4.0 for Intel X86 EM64T Linux

User input:
--------------------------------------------------------------
$molecule
-1 2
C                  1.0828610000      1.4257770000     -1.3132490000
C                 -0.1643360000      0.7087160000     -1.4049620000
C                 -0.4619750000     -0.4028650000     -0.6538060000
C                  0.4977100000     -0.9227440000      0.3102240000
C                  1.7653230000     -0.1986610000      0.4217950000
C                  2.0469630000      0.9109920000     -0.3450990000
C                  3.3592020000      1.6445210000     -0.2214870000
C                  2.7627600000     -0.7279750000      1.4232860000
O                  1.3167850000      2.4422410000     -2.0318010000
O                  0.2581230000     -1.9440540000      1.0172140000
H                 -0.8838930000      1.0988230000     -2.1208380000
H                  4.2120190000      0.9909510000     -0.4442190000
H                  3.5147430000      2.0288340000      0.7944970000
H                  3.3694880000      2.4834220000     -0.9182360000
H                  2.3461490000     -1.6044080000      1.9200620000
H                  3.0099660000      0.0236940000      2.1835270000
H                  3.7077690000     -1.0111600000      0.9426530000
C                 -1.7945760000     -1.0763350000     -0.8596210000
C                 -1.7469220000     -2.5720620000     -1.1600990000
O                 -2.6028500000     -0.8680230000      0.3683180000
C                 -3.9223850000     -0.7515750000      0.2540340000
C                 -4.5512770000     -0.4708590000      1.6039800000
O                 -4.5544830000     -0.8350580000     -0.7805710000
H                 -2.3296370000     -0.5617670000     -1.6588690000
H                 -2.7559800000     -2.9569730000     -1.3314110000
H                 -1.2683990000     -3.0982640000     -0.3355050000
H                 -1.1588280000     -2.7328050000     -2.0686590000
H                 -4.1050350000     -1.1026580000      2.3734150000
H                 -5.6273170000     -0.6306660000      1.5478120000
H                 -4.3549160000      0.5698410000      1.8770640000
$end
$rem
MAX_SCF_CYCLES=200
BASIS  =  6-311++G(d,p)
GUI  =  2
JOB_TYPE  =  SP
METHOD  =  B3LYP
SOLVENT_METHOD = COSMO
$end
$solvent
dielectric 37.219
opticaldielectric 1.43
$end

--------------------------------------------------------------

             Standard Nuclear Orientation (Angstroms)
    I     Atom           X                Y                Z
 ----------------------------------------------------------------
    1      C       2.0435535935     1.5281098213    -0.0258701097
    2      C       0.6454559853     1.4138430868    -0.3580662873
    3      C      -0.0203511575     0.2154733603    -0.4531845156
    4      C       0.6762004395    -1.0392766107    -0.2061183352
    5      C       2.0946446219    -0.9384702549     0.1423657774
    6      C       2.7456030198     0.2730949813     0.2268650073
    7      C       4.2086226082     0.3607854462     0.5835160692
    8      C       2.8219691276    -2.2344747835     0.4058224680
    9      O       2.6179316433     2.6548583452     0.0431523333
   10      O       0.0956642119    -2.1603901333    -0.2860749785
   11      H       0.1228675721     2.3503222888    -0.5378779936
   12      H       4.8345989513    -0.1848834773    -0.1337420210
   13      H       4.4118705499    -0.0722460683     1.5710822466
   14      H       4.5151251995     1.4073634380     0.5906243024
   15      H       2.1297704735    -3.0682865847     0.2870587259
   16      H       3.2393361767    -2.2647764554     1.4202040654
   17      H       3.6636154736    -2.3739997638    -0.2844007156
   18      C      -1.4795390059     0.2294676211    -0.8304404820
   19      C      -1.8701513399    -0.6464872227    -2.0178251319
   20      O      -2.2589996909    -0.2087650574     0.3548561460
   21      C      -3.4714899445     0.3014702677     0.5480422834
   22      C      -4.0657613975    -0.2131719740     1.8436678567
   23      O      -4.0354455464     1.0872772410    -0.1877472781
   24      H      -1.7838760608     1.2591939878    -1.0225613622
   25      H      -2.9361677083    -0.5372130519    -2.2354729767
   26      H      -1.6246375481    -1.6858807484    -1.8051936479
   27      H      -1.3048948483    -0.3242558236    -2.8974990276
   28      H      -3.8796705749    -1.2826957086     1.9523936821
   29      H      -5.1340848824    -0.0017361330     1.8667983545
   30      H      -3.5795970186     0.2930685034     2.6824489838
 ----------------------------------------------------------------

   10    -766.9000331445      7.52e-06  Convergence criterion met
 Total energy in the final basis set =     -766.9000331445
    4    -766.9867827745      8.11e-06  Convergence criterion met
 Total energy in the final basis set =     -766.9867827745

                    Orbital Energies (a.u.)
 --------------------------------------------------------------

 Alpha MOs
 -- Occupied --
-19.1651 -19.1157 -19.0793 -19.0763 -10.3075 -10.2323 -10.2207 -10.2185
-10.1715 -10.1710 -10.1679 -10.1672 -10.1624 -10.1533 -10.1513 -10.1507
 -1.1079  -1.0240  -1.0011  -0.9987  -0.8337  -0.8022  -0.7582  -0.7298
 -0.7219  -0.6711  -0.6626  -0.6317  -0.5720  -0.5671  -0.5352  -0.5010
 -0.4868  -0.4831  -0.4749  -0.4512  -0.4381  -0.4322  -0.4210  -0.4134
 -0.4076  -0.4000  -0.3944  -0.3917  -0.3878  -0.3847  -0.3814  -0.3748
 -0.3664  -0.3623  -0.3492  -0.3439  -0.3383  -0.3095  -0.2879  -0.2789
 -0.2466  -0.2412  -0.2353  -0.1625

 Beta MOs
 -- Occupied --
-19.1650 -19.1157 -19.0724 -19.0696 -10.3074 -10.2324 -10.2192 -10.2169
-10.1710 -10.1702 -10.1670 -10.1664 -10.1610 -10.1532 -10.1514 -10.1508
 -1.1078  -1.0238  -0.9892  -0.9866  -0.8285  -0.8008  -0.7564  -0.7291
 -0.7190  -0.6684  -0.6565  -0.6292  -0.5703  -0.5635  -0.5327  -0.5005
 -0.4857  -0.4812  -0.4746  -0.4483  -0.4349  -0.4263  -0.4187  -0.4109
 -0.4071  -0.3972  -0.3905  -0.3887  -0.3856  -0.3809  -0.3772  -0.3658
 -0.3636  -0.3476  -0.3428  -0.3404  -0.3368  -0.3091  -0.2870  -0.2499
 -0.2403  -0.2319  -0.2294

          Ground-State Mulliken Net Atomic Charges

     Atom                 Charge (a.u.)    Spin (a.u.)
  --------------------------------------------------------
      1 C                    -0.705030       0.118505
      2 C                    -0.350939       0.070117
      3 C                     1.096899       0.095386
      4 C                    -0.727081       0.092493
      5 C                     0.304285       0.052277
      6 C                     0.651617       0.080037
      7 C                    -0.434283       0.008273
      8 C                    -0.569785      -0.009482
      9 O                    -0.537204       0.240142
     10 O                    -0.486684       0.242970
     11 H                     0.193055      -0.010432
     12 H                     0.161648       0.002414
     13 H                     0.161617       0.002443
     14 H                     0.182930      -0.001769
     15 H                     0.184624      -0.001215
     16 H                     0.158915       0.002845
     17 H                     0.160781       0.002960
     18 C                    -0.605172       0.000011
     19 C                    -0.596539       0.009010
     20 O                     0.105258       0.001598
     21 C                     0.333241       0.001738
     22 C                    -0.607444       0.000572
     23 O                    -0.387592       0.000361
     24 H                     0.219303      -0.000864
     25 H                     0.170401       0.000679
     26 H                     0.203722      -0.001615
     27 H                     0.152890       0.000535
     28 H                     0.184616      -0.000056
     29 H                     0.178741       0.000085
     30 H                     0.203210      -0.000017
  --------------------------------------------------------
  Sum of atomic charges =    -1.000000

                    Cartesian Multipole Moments
 -----------------------------------------------------------------
    Charge (ESU x 10^10)
                -4.8032
    Dipole Moment (Debye)
         X      -3.1953      Y      -3.6909      Z       1.5460
       Tot       5.1208
    Quadrupole Moments (Debye-Ang)
        XX    -124.6085     XY     -11.6567     YY    -132.5707
        XZ      -6.4740     YZ      -1.1495     ZZ     -94.3864

 Total job time:  94.73s(wall), 652.72s(cpu)
        *  Thank you very much for using Q-Chem.  Have a nice day.  *
