 Q-Chem 5.4, Q-Chem, Inc., Pleasanton, CA (2021)
 Q-Chem 5.4.0 for Intel X86 EM64T Linux

User input:
--------------------------------------------------------------
$molecule
0 1
C                  0.4493120000      1.6989870000     -2.2719040000
C                 -0.9873170000      2.0807860000     -2.2478930000
C                 -1.9553280000      1.1854780000     -2.0157440000
C                 -1.6286130000     -0.2373290000     -1.7575470000
C                 -0.1937880000     -0.6149340000     -1.7463370000
C                  0.7910190000      0.2806570000     -1.9387410000
O                  1.2976270000      2.5106060000     -2.5977280000
O                 -2.5002460000     -1.0661020000     -1.5543410000
C                  3.3080940000      0.7040960000     -1.3452570000
C                  4.4397660000      0.9675180000     -2.1464900000
C                  3.2084740000      1.2157730000     -0.0361820000
C                  4.2563480000      1.9972370000      0.4567910000
C                  5.4498410000      1.7747480000     -1.6213440000
C                  5.3648080000      2.2846280000     -0.3301860000
H                 -1.1930450000      3.1240370000     -2.4614240000
H                 -3.0082440000      1.4447820000     -2.0153090000
H                  0.0290440000     -1.6591130000     -1.5548040000
H                  4.1990400000      2.3794000000      1.4703500000
H                  6.3148140000      2.0021300000     -2.2348850000
H                  6.1647680000      2.9016370000      0.0637350000
C                  2.2352200000     -0.1891930000     -1.8950240000
O                  2.4842350000     -1.3042890000     -2.3106530000
C                  2.0319320000      0.9215050000      0.8695060000
H                  1.7598410000     -0.1367170000      0.8672080000
H                  1.1416590000      1.4914840000      0.5838040000
H                  2.2713000000      1.1968030000      1.8979870000
C                  4.5743960000      0.4336010000     -3.5536940000
H                  3.6937570000      0.6662000000     -4.1588150000
H                  4.6909620000     -0.6518640000     -3.5584010000
H                  5.4427940000      0.8766670000     -4.0438580000
$end
$rem
MAX_SCF_CYCLES=200
BASIS  =  6-311++G(d,p)
GUI  =  2
JOB_TYPE  =  SP
METHOD  =  B3LYP
SOLVENT_METHOD = COSMO
$end
$solvent
dielectric 37.219
opticaldielectric 1.43
$end

--------------------------------------------------------------

             Standard Nuclear Orientation (Angstroms)
    I     Atom           X                Y                Z
 ----------------------------------------------------------------
    1      C       1.2443935431     0.1555737469     1.2731010815
    2      C       2.5709048264     0.6560967833     1.7204201995
    3      C       3.6634498006     0.5526028668     0.9535112364
    4      C       3.5907624364    -0.0611672702    -0.3940016234
    5      C       2.2615793189    -0.5301491705    -0.8574260489
    6      C       1.1484922209    -0.3970674012    -0.1142748391
    7      O       0.2943710422     0.1601891172     2.0359647427
    8      O       4.5794649578    -0.1712728423    -1.0998667223
    9      C      -1.4505648068    -0.1657657119    -0.3563337078
   10      C      -2.5230687377    -0.9003341574     0.1933857689
   11      C      -1.5862978188     1.2036442610    -0.6591665461
   12      C      -2.8096659978     1.8266409048    -0.4003350134
   13      C      -3.7177986870    -0.2298149668     0.4592324598
   14      C      -3.8655786398     1.1211044187     0.1634705526
   15      H       2.5936764224     1.0797371729     2.7185696982
   16      H       4.6413619914     0.8943287925     1.2741075488
   17      H       2.2245579368    -0.9756513621    -1.8457610068
   18      H      -2.9314208496     2.8755935364    -0.6483445793
   19      H      -4.5424235903    -0.7782322936     0.9014378735
   20      H      -4.8052410727     1.6221130671     0.3680059002
   21      C      -0.1755048794    -0.8906161756    -0.6726904662
   22      O      -0.1619347705    -1.8781589878    -1.3817532783
   23      C      -0.4748464726     2.0161289846    -1.2881816223
   24      H      -0.0061492389     1.4988829545    -2.1288076044
   25      H       0.3142341571     2.2581053166    -0.5685380145
   26      H      -0.8672128533     2.9630272645    -1.6627366468
   27      C      -2.4071330655    -2.3690427152     0.5293467630
   28      H      -1.5298631179    -2.5723887351     1.1497068222
   29      H      -2.3123036637    -2.9775473411    -0.3720818583
   30      H      -3.2891642035    -2.7010330544     1.0793347629
 ----------------------------------------------------------------

    9    -804.6718043419      5.66e-06  Convergence criterion met
 Total energy in the final basis set =     -804.6718043419
    5    -804.6908718206      6.16e-06  Convergence criterion met
 Total energy in the final basis set =     -804.6908718206

                    Orbital Energies (a.u.)
 --------------------------------------------------------------

 Alpha MOs
 -- Occupied --
-19.1538 -19.1531 -19.1446 -10.3000 -10.2975 -10.2952 -10.2313 -10.2264
-10.2179 -10.2166 -10.1998 -10.1980 -10.1947 -10.1817 -10.1766 -10.1760
-10.1722 -10.1655  -1.0861  -1.0828  -1.0785  -0.8786  -0.8740  -0.8117
 -0.7936  -0.7796  -0.7281  -0.7118  -0.6874  -0.6710  -0.6317  -0.6236
 -0.5862  -0.5662  -0.5364  -0.5240  -0.5105  -0.4947  -0.4902  -0.4772
 -0.4673  -0.4599  -0.4586  -0.4453  -0.4344  -0.4317  -0.4262  -0.4183
 -0.4178  -0.4143  -0.4110  -0.4036  -0.3784  -0.3622  -0.3575  -0.3503
 -0.3220  -0.3119  -0.3046  -0.3020  -0.2771  -0.2593  -0.2532

          Ground-State Mulliken Net Atomic Charges

     Atom                 Charge (a.u.)
  ----------------------------------------
      1 C                    -1.149631
      2 C                    -0.234461
      3 C                     0.191931
      4 C                    -0.519039
      5 C                     0.463126
      6 C                     1.112387
      7 O                    -0.172636
      8 O                    -0.293667
      9 C                     0.292872
     10 C                     0.188177
     11 C                     0.633716
     12 C                    -0.283669
     13 C                    -0.357641
     14 C                    -0.277654
     15 H                     0.276861
     16 H                     0.276134
     17 H                     0.296570
     18 H                     0.189151
     19 H                     0.187234
     20 H                     0.218744
     21 C                    -0.666893
     22 O                    -0.222922
     23 C                    -0.774584
     24 H                     0.194988
     25 H                     0.188281
     26 H                     0.185300
     27 C                    -0.520443
     28 H                     0.201332
     29 H                     0.212084
     30 H                     0.164350
  ----------------------------------------
  Sum of atomic charges =     0.000000

                    Cartesian Multipole Moments
 -----------------------------------------------------------------
    Charge (ESU x 10^10)
                 0.0000
    Dipole Moment (Debye)
         X      -0.3601      Y       3.3948      Z       2.1206
       Tot       4.0189
    Quadrupole Moments (Debye-Ang)
        XX    -104.8928     XY       3.1238     YY    -101.2845
        XZ      10.8659     YZ      -5.7330     ZZ    -110.1113

 Total job time:  63.02s(wall), 472.93s(cpu)
        *  Thank you very much for using Q-Chem.  Have a nice day.  *
