 Gaussian 16, Revision A.03,
 Gaussian 16:  ES64L-G16RevA.03 25-Dec-2016

 ----------------------------------------------------------------------
 #P UB3LYP/6-311++G(d,p) nosym opt freq SCRF=(PCM,Solvent=n,n-DiMethylF
 ormamide)
 ----------------------------------------------------------------------

 -------
 Radical
 -------
 Symbolic Z-matrix:
 Charge = -1 Multiplicity = 2

 SCF Done:  E(UB3LYP) =  -965.522041253     A.U. after   18 cycles
 SCF Done:  E(UB3LYP) =  -965.522451867     A.U. after   16 cycles
 SCF Done:  E(UB3LYP) =  -965.522508052     A.U. after   15 cycles
 SCF Done:  E(UB3LYP) =  -965.522527278     A.U. after   13 cycles
 SCF Done:  E(UB3LYP) =  -965.522536408     A.U. after   13 cycles
 SCF Done:  E(UB3LYP) =  -965.522539580     A.U. after   11 cycles
 SCF Done:  E(UB3LYP) =  -965.522541775     A.U. after   12 cycles
 SCF Done:  E(UB3LYP) =  -965.522543336     A.U. after   12 cycles
 SCF Done:  E(UB3LYP) =  -965.522544632     A.U. after   11 cycles
 SCF Done:  E(UB3LYP) =  -965.522544847     A.U. after   11 cycles
 SCF Done:  E(UB3LYP) =  -965.522544879     A.U. after   10 cycles
 Optimization completed.
    -- Stationary point found.
 Normal termination of Gaussian 16 at Sun Feb 11 03:16:47 2024.

 ----------------------------------------------------------------------
 #P Geom=AllCheck Guess=TCheck SCRF=Check GenChk UB3LYP/6-311++G(d,p) F
 req
 ----------------------------------------------------------------------

 Structure from the checkpoint file:  "251-rad.chk"
 -------
 Radical
 -------
 Charge = -1 Multiplicity = 2

                          Input orientation:
 ---------------------------------------------------------------------
 Center     Atomic      Atomic             Coordinates (Angstroms)
 Number     Number       Type             X           Y           Z
 ---------------------------------------------------------------------
      1          6           0        3.123532   -2.505345   -2.470557
      2          6           0        2.719224   -3.540024   -3.296188
      3          6           0        1.417764   -3.541861   -3.832669
      4          6           0        2.251247   -1.443761   -2.152242
      5          6           0        0.940646   -1.445611   -2.693511
      6          6           0        0.547353   -2.508580   -3.532309
      7          6           0        2.701986   -0.355995   -1.273766
      8          6           0        1.754669    0.698722   -0.983534
      9          6           0        0.473513    0.702082   -1.527862
     10          6           0        0.002086   -0.357622   -2.389815
     11          8           0        3.879722   -0.358549   -0.799336
     12          8           0       -1.171400   -0.360463   -2.874086
     13          1           0        3.403291   -4.348779   -3.530406
     14          1           0        1.099206   -4.351971   -4.480050
     15          6           0        2.217674    1.811432   -0.073303
     16          1           0        4.122250   -2.489554   -2.051006
     17          1           0       -0.457602   -2.494610   -3.936637
     18          1           0        2.367010    2.747666   -0.625026
     19          1           0        3.168121    1.544300    0.386684
     20          1           0        1.488570    2.017704    0.714301
     21          6           0       -0.508383    1.822427   -1.228328
     22          6           0       -1.355453    1.536867   -0.008149
     23          6           0       -1.616994    2.331644    1.040646
     24          6           0       -2.504979    1.835215    2.165710
     25          6           0       -1.103311    3.742751    1.196403
     26          6           0       -1.754230    1.556233    3.492567
     27          6           0       -2.688349    1.152960    4.600925
     28          6           0       -2.764950   -0.019834    5.246952
     29          6           0       -1.878490   -1.211174    4.981167
     30          6           0       -3.788307   -0.238120    6.336148
     31          1           0       -1.173319    1.911564   -2.093782
     32          1           0        0.020195    2.770424   -1.125643
     33          1           0       -1.811439    0.547876   -0.009455
     34          1           0       -3.010877    0.916258    1.854781
     35          1           0       -3.290278    2.577484    2.362433
     36          1           0       -0.468705    4.060095    0.369461
     37          1           0       -0.528932    3.858734    2.121649
     38          1           0       -1.942816    4.445137    1.262519
     39          1           0       -1.220797    2.464536    3.797665
     40          1           0       -0.992110    0.794724    3.312426
     41          1           0       -3.399237    1.926525    4.892967
     42          1           0       -1.156742   -1.043972    4.182261
     43          1           0       -2.484461   -2.084336    4.712595
     44          1           0       -1.324702   -1.485957    5.886695
     45          1           0       -4.407731    0.647025    6.495710
     46          1           0       -3.301538   -0.492068    7.285401
     47          1           0       -4.447590   -1.079220    6.090598
 ---------------------------------------------------------------------

 SCF Done:  E(UB3LYP) =  -965.522544879     A.U. after    1 cycles

 Alpha  occ. eigenvalues --  -19.07050 -19.07045 -10.21563 -10.21560 -10.17558
 Alpha  occ. eigenvalues --  -10.17081 -10.17069 -10.17032 -10.16964 -10.16917
 Alpha  occ. eigenvalues --  -10.16769 -10.16763 -10.16688 -10.16577 -10.16490
 Alpha  occ. eigenvalues --  -10.16471 -10.16088 -10.16011 -10.15981 -10.15912
 Alpha  occ. eigenvalues --  -10.15893 -10.15863 -10.15042  -0.99284  -0.99007
 Alpha  occ. eigenvalues --   -0.85496  -0.82646  -0.81618  -0.80226  -0.76231
 Alpha  occ. eigenvalues --   -0.74833  -0.74676  -0.72735  -0.69066  -0.68821
 Alpha  occ. eigenvalues --   -0.68021  -0.65729  -0.64399  -0.60805  -0.59466
 Alpha  occ. eigenvalues --   -0.58073  -0.54959  -0.51962  -0.51507  -0.50655
 Alpha  occ. eigenvalues --   -0.48909  -0.47251  -0.46350  -0.46217  -0.44421
 Alpha  occ. eigenvalues --   -0.43961  -0.43329  -0.42927  -0.42290  -0.41891
 Alpha  occ. eigenvalues --   -0.41439  -0.40958  -0.40693  -0.40068  -0.39429
 Alpha  occ. eigenvalues --   -0.38735  -0.38330  -0.37849  -0.37402  -0.37256
 Alpha  occ. eigenvalues --   -0.37075  -0.36609  -0.36381  -0.35915  -0.35557
 Alpha  occ. eigenvalues --   -0.34656  -0.34217  -0.33319  -0.33262  -0.32772
 Alpha  occ. eigenvalues --   -0.31748  -0.26520  -0.25401  -0.24592  -0.24159
 Alpha  occ. eigenvalues --   -0.24010  -0.23322  -0.22443  -0.14849
 Alpha virt. eigenvalues --   -0.03120  -0.01274  -0.00778  -0.00089   0.00283
 Alpha virt. eigenvalues --    0.00676   0.00943   0.01402   0.01598   0.01894
 Alpha virt. eigenvalues --    0.02489   0.02620   0.03582   0.03608   0.03860

  Beta  occ. eigenvalues --  -19.06437 -19.06420 -10.21389 -10.21388 -10.17558
  Beta  occ. eigenvalues --  -10.17066 -10.17048 -10.16999 -10.16912 -10.16865
  Beta  occ. eigenvalues --  -10.16764 -10.16757 -10.16577 -10.16546 -10.16490
  Beta  occ. eigenvalues --  -10.16343 -10.16097 -10.16011 -10.15981 -10.15912
  Beta  occ. eigenvalues --  -10.15893 -10.15851 -10.15053  -0.98204  -0.97894
  Beta  occ. eigenvalues --   -0.85288  -0.82565  -0.81429  -0.80073  -0.76089
  Beta  occ. eigenvalues --   -0.74717  -0.74507  -0.72558  -0.69066  -0.68636
  Beta  occ. eigenvalues --   -0.67973  -0.65319  -0.64059  -0.60743  -0.59371
  Beta  occ. eigenvalues --   -0.57778  -0.54690  -0.51928  -0.51439  -0.50519
  Beta  occ. eigenvalues --   -0.48693  -0.47224  -0.46315  -0.45951  -0.44346
  Beta  occ. eigenvalues --   -0.43883  -0.43205  -0.42754  -0.42215  -0.41735
  Beta  occ. eigenvalues --   -0.41045  -0.40746  -0.40130  -0.39969  -0.38813
  Beta  occ. eigenvalues --   -0.38529  -0.38330  -0.37708  -0.37324  -0.37117
  Beta  occ. eigenvalues --   -0.37019  -0.36382  -0.35862  -0.35639  -0.34567
  Beta  occ. eigenvalues --   -0.33975  -0.33389  -0.33118  -0.33090  -0.32745
  Beta  occ. eigenvalues --   -0.31664  -0.24750  -0.24570  -0.24253  -0.23598
  Beta  occ. eigenvalues --   -0.23474  -0.22597  -0.22126
  Beta virt. eigenvalues --   -0.08240  -0.02404  -0.00778  -0.00223  -0.00071
  Beta virt. eigenvalues --    0.00286   0.00685   0.00962   0.01411   0.01632
  Beta virt. eigenvalues --    0.01915   0.02511   0.02636   0.03596   0.03633

 Mulliken charges and spin densities:
               1          2
     1  C    0.088253   0.031063
     2  C   -0.462204   0.023980
     3  C   -0.433261   0.026353
     4  C    0.010322   0.000949
     5  C    0.132033   0.014991
     6  C   -0.000576   0.028194
     7  C   -0.689770   0.108856
     8  C    0.730400   0.097089
     9  C    0.804885   0.099303
    10  C   -0.855379   0.097125
    11  O   -0.483011   0.231513
    12  O   -0.464940   0.225657
    13  H    0.174265  -0.002061
    14  H    0.178942  -0.002165
    15  C   -0.561251   0.001437
    16  H    0.169443  -0.002486
    17  H    0.166038  -0.002362
    18  H    0.189818   0.006734
    19  H    0.171090  -0.001587
    20  H    0.166761   0.003818
    21  C   -0.035889   0.004321
    22  C   -0.716385  -0.015110
    23  C    0.746060   0.022797
    24  C   -0.692847   0.001781
    25  C   -0.747981  -0.001812
    26  C   -0.194070   0.000299
    27  C   -0.045226  -0.000086
    28  C    0.286457   0.000163
    29  C   -0.671468  -0.000012
    30  C   -0.620417  -0.000005
    31  H    0.197732   0.002222
    32  H    0.177020   0.000184
    33  H    0.214244  -0.001406
    34  H    0.162347   0.000032
    35  H    0.140226  -0.000047
    36  H    0.121806   0.000258
    37  H    0.159751   0.000050
    38  H    0.163904  -0.000054
    39  H    0.135657  -0.000026
    40  H    0.110918  -0.000037
    41  H    0.186487  -0.000004
    42  H    0.144187   0.000075
    43  H    0.148936   0.000001
    44  H    0.146047   0.000002
    45  H    0.152303   0.000001
    46  H    0.146871   0.000004
    47  H    0.151475   0.000008
 Sum of Mulliken charges =  -1.00000   1.00000

 Dipole moment (field-independent basis, Debye):
    X=             -6.4037    Y=              2.4116    Z=              9.2990  Tot=             11.5453
 Quadrupole moment (field-independent basis, Debye-Ang):
   XX=           -186.2086   YY=           -138.9125   ZZ=           -166.0044
   XY=              3.4111   XZ=             -1.3964   YZ=             -3.7217

  Exact polarizability: 416.183 -37.550 420.201  16.180  76.242 361.044
 Approx polarizability: 468.558 -32.084 445.049  44.884  72.207 378.595

                      1                      2                      3
                      A                      A                      A
 Frequencies --     14.8186                17.7907                21.2963
 Red. masses --      4.3453                 3.6590                 3.7922
 Frc consts  --      0.0006                 0.0007                 0.0010
 IR Inten    --      0.5535                 0.3022                 0.5644

                      4                      5                      6
                      A                      A                      A
 Frequencies --     37.3170                42.8883                60.4854
 Red. masses --      3.6938                 3.3091                 3.2087
 Frc consts  --      0.0030                 0.0036                 0.0069
 IR Inten    --      2.0366                 1.6600                 4.7969

                      7                      8                      9
                      A                      A                      A
 Frequencies --     82.0204                84.7058               103.9530
 Red. masses --      4.1645                 2.1629                 2.0750
 Frc consts  --      0.0165                 0.0091                 0.0132
 IR Inten    --     13.4457                 0.4170                 0.6758

                     10                     11                     12
                      A                      A                      A
 Frequencies --    123.8478               133.0694               141.2587
 Red. masses --      1.3476                 1.8323                 1.0739
 Frc consts  --      0.0122                 0.0191                 0.0126
 IR Inten    --      0.0026                 0.5996                 0.3102

                     13                     14                     15
                      A                      A                      A
 Frequencies --    144.6675               168.7418               187.0584
 Red. masses --      2.2493                 2.9314                 2.7136
 Frc consts  --      0.0277                 0.0492                 0.0559
 IR Inten    --      0.3700                 1.5876                 1.3219

                     16                     17                     18
                      A                      A                      A
 Frequencies --    203.1676               215.6102               258.5050
 Red. masses --      1.7221                 2.6636                 3.5740
 Frc consts  --      0.0419                 0.0730                 0.1407
 IR Inten    --      0.0751                 1.8750                 0.6356

                     19                     20                     21
                      A                      A                      A
 Frequencies --    263.4263               289.0407               304.4690
 Red. masses --      4.1755                 2.7565                 3.3116
 Frc consts  --      0.1707                 0.1357                 0.1809
 IR Inten    --      8.4665                 1.9500                 0.7391

                     22                     23                     24
                      A                      A                      A
 Frequencies --    330.7842               349.5184               361.8060
 Red. masses --      2.8332                 3.6715                 2.3190
 Frc consts  --      0.1826                 0.2643                 0.1789
 IR Inten    --      1.9339                 1.3326                 4.6309

                     25                     26                     27
                      A                      A                      A
 Frequencies --    388.3126               396.2994               400.8285
 Red. masses --      7.4732                 2.6455                 2.7157
 Frc consts  --      0.6639                 0.2448                 0.2571
 IR Inten    --     31.0606                 0.5665                 3.3165

                     28                     29                     30
                      A                      A                      A
 Frequencies --    426.2089               429.1204               442.3251
 Red. masses --      5.0182                 4.3435                 3.3157
 Frc consts  --      0.5371                 0.4713                 0.3822
 IR Inten    --      0.8396                 9.4785                 1.5438

                     31                     32                     33
                      A                      A                      A
 Frequencies --    462.7501               474.8873               497.8994
 Red. masses --      2.7976                 3.9221                 2.7169
 Frc consts  --      0.3530                 0.5211                 0.3968
 IR Inten    --      9.2060                 1.7869                 2.3033

                     34                     35                     36
                      A                      A                      A
 Frequencies --    513.8254               535.0230               565.2894
 Red. masses --      4.8406                 3.8492                 4.1105
 Frc consts  --      0.7530                 0.6492                 0.7739
 IR Inten    --      1.6264                10.4531                 8.2065

                     37                     38                     39
                      A                      A                      A
 Frequencies --    586.6871               638.3352               672.5053
 Red. masses --      2.5932                 4.6040                 4.9391
 Frc consts  --      0.5259                 1.1053                 1.3161
 IR Inten    --     24.5908                33.1242                 5.7091

                     40                     41                     42
                      A                      A                      A
 Frequencies --    677.4630               690.1517               715.5511
 Red. masses --      4.7236                 3.6513                 3.3745
 Frc consts  --      1.2773                 1.0247                 1.0180
 IR Inten    --      0.4542                39.6306                54.3430

                     43                     44                     45
                      A                      A                      A
 Frequencies --    752.6187               785.4177               789.5777
 Red. masses --      1.5838                 1.7113                 4.0395
 Frc consts  --      0.5286                 0.6220                 1.4838
 IR Inten    --      5.3915                46.8437                 0.7462

                     46                     47                     48
                      A                      A                      A
 Frequencies --    806.6351               808.1814               830.1496
 Red. masses --      2.5800                 2.1380                 2.7803
 Frc consts  --      0.9891                 0.8228                 1.1289
 IR Inten    --      2.8500                 1.0278                 1.4687

                     49                     50                     51
                      A                      A                      A
 Frequencies --    849.5959               870.7844               887.3149
 Red. masses --      1.8228                 1.6912                 1.4507
 Frc consts  --      0.7752                 0.7555                 0.6730
 IR Inten    --     40.6910                11.6562                 0.0110

                     52                     53                     54
                      A                      A                      A
 Frequencies --    906.9043               958.2565               962.8862
 Red. masses --      2.4290                 1.4635                 2.6545
 Frc consts  --      1.1771                 0.7918                 1.4501
 IR Inten    --     16.6945                 1.0281                41.9663

                     55                     56                     57
                      A                      A                      A
 Frequencies --    967.5301               984.8777               988.2548
 Red. masses --      1.6226                 1.3717                 3.3086
 Frc consts  --      0.8949                 0.7839                 1.9039
 IR Inten    --      1.7594                 2.9214                15.5544

                     58                     59                     60
                      A                      A                      A
 Frequencies --    999.5258              1004.6321              1011.0650
 Red. masses --      1.2806                 3.1932                 1.3282
 Frc consts  --      0.7538                 1.8988                 0.8000
 IR Inten    --      0.0337                 7.8789                 1.6183

                     61                     62                     63
                      A                      A                      A
 Frequencies --   1017.3907              1032.2791              1041.1339
 Red. masses --      1.7230                 1.9598                 1.7933
 Frc consts  --      1.0508                 1.2304                 1.1453
 IR Inten    --     12.9237                 0.3230                 7.3933

                     64                     65                     66
                      A                      A                      A
 Frequencies --   1043.5037              1061.4802              1075.7300
 Red. masses --      1.7642                 1.6767                 2.0919
 Frc consts  --      1.1318                 1.1131                 1.4262
 IR Inten    --     14.2392                 6.1110                24.7696

                     67                     68                     69
                      A                      A                      A
 Frequencies --   1097.9388              1098.9584              1110.7422
 Red. masses --      2.0735                 1.7713                 2.1211
 Frc consts  --      1.4727                 1.2604                 1.5418
 IR Inten    --     21.8109                 7.2346                38.7127

                     70                     71                     72
                      A                      A                      A
 Frequencies --   1126.1630              1147.8920              1164.0575
 Red. masses --      2.0471                 1.5406                 1.8196
 Frc consts  --      1.5297                 1.1961                 1.4527
 IR Inten    --     19.0909                 1.0894                12.5035

                     73                     74                     75
                      A                      A                      A
 Frequencies --   1172.2919              1191.6498              1209.8197
 Red. masses --      1.5762                 2.0047                 1.9937
 Frc consts  --      1.2762                 1.6773                 1.7193
 IR Inten    --     33.0526                 6.0418                19.9760

                     76                     77                     78
                      A                      A                      A
 Frequencies --   1236.1856              1243.3113              1260.7563
 Red. masses --      2.3971                 1.8802                 2.1178
 Frc consts  --      2.1583                 1.7124                 1.9833
 IR Inten    --     17.7132                 5.7448                47.6746

                     79                     80                     81
                      A                      A                      A
 Frequencies --   1277.1240              1284.8192              1307.6731
 Red. masses --      1.8711                 1.4223                 1.1930
 Frc consts  --      1.7981                 1.3834                 1.2019
 IR Inten    --     70.2903                 0.7335                 3.5611

                     82                     83                     84
                      A                      A                      A
 Frequencies --   1314.8850              1353.1610              1355.1108
 Red. masses --      1.3595                 1.4128                10.3007
 Frc consts  --      1.3848                 1.5241                11.1446
 IR Inten    --     11.7927                 4.5759                 5.0534

                     85                     86                     87
                      A                      A                      A
 Frequencies --   1379.4232              1379.8081              1383.6716
 Red. masses --      1.3145                 1.3276                 1.3185
 Frc consts  --      1.4737                 1.4892                 1.4873
 IR Inten    --     20.3242                24.1666                 9.6604

                     88                     89                     90
                      A                      A                      A
 Frequencies --   1404.1988              1404.8683              1410.3191
 Red. masses --      1.3591                 2.7068                 1.3277
 Frc consts  --      1.5789                 3.1476                 1.5559
 IR Inten    --      8.5753               198.7598                 7.8737

                     91                     92                     93
                      A                      A                      A
 Frequencies --   1411.3879              1446.6188              1463.7404
 Red. masses --      1.2764                 1.8760                 1.0452
 Frc consts  --      1.4981                 2.3131                 1.3194
 IR Inten    --      6.7324               614.3392                 0.5509

                     94                     95                     96
                      A                      A                      A
 Frequencies --   1466.0286              1467.7539              1468.8611
 Red. masses --      1.8223                 1.3366                 1.4799
 Frc consts  --      2.3076                 1.6965                 1.8812
 IR Inten    --    164.0707                29.9539                64.6471

                     97                     98                     99
                      A                      A                      A
 Frequencies --   1475.0389              1478.1939              1480.0689
 Red. masses --      1.1217                 1.6017                 1.0456
 Frc consts  --      1.4379                 2.0621                 1.3495
 IR Inten    --     14.4410                75.2340                15.9581

                    100                    101                    102
                      A                      A                      A
 Frequencies --   1481.1666              1483.0668              1484.7628
 Red. masses --      1.0707                 1.1279                 1.0836
 Frc consts  --      1.3839                 1.4617                 1.4075
 IR Inten    --     23.5623                15.2481                11.7924

                    103                    104                    105
                      A                      A                      A
 Frequencies --   1487.8167              1494.9858              1496.3886
 Red. masses --      1.0938                 2.9036                 1.0957
 Frc consts  --      1.4265                 3.8235                 1.4455
 IR Inten    --      8.5057                72.5610                21.7831

                    106                    107                    108
                      A                      A                      A
 Frequencies --   1502.3347              1542.5291              1608.3650
 Red. masses --      3.0970                 4.7962                 7.8314
 Frc consts  --      4.1184                 6.7238                11.9360
 IR Inten    --    656.0235                20.5415                 7.7854

                    109                    110                    111
                      A                      A                      A
 Frequencies --   1627.0469              1705.7647              1719.5122
 Red. masses --      5.8812                 6.6375                 6.3535
 Frc consts  --      9.1730                11.3787                11.0682
 IR Inten    --      2.0060                 2.4624                 5.2505

                    112                    113                    114
                      A                      A                      A
 Frequencies --   2993.6454              3001.6022              3007.4601
 Red. masses --      1.0651                 1.0382                 1.0495
 Frc consts  --      5.6239                 5.5109                 5.5929
 IR Inten    --     64.3046                51.8962                78.3658

                    115                    116                    117
                      A                      A                      A
 Frequencies --   3008.6606              3010.0324              3013.5688
 Red. masses --      1.0509                 1.0481                 1.0545
 Frc consts  --      5.6049                 5.5948                 5.6423
 IR Inten    --     54.5363                78.1540                62.3399

                    118                    119                    120
                      A                      A                      A
 Frequencies --   3028.5570              3042.1528              3045.8340
 Red. masses --      1.0664                 1.0994                 1.0989
 Frc consts  --      5.7626                 5.9949                 6.0065
 IR Inten    --     47.7822                27.5520                50.2284

                    121                    122                    123
                      A                      A                      A
 Frequencies --   3051.0844              3051.4938              3065.7493
 Red. masses --      1.0935                 1.0943                 1.0878
 Frc consts  --      5.9976                 6.0038                 6.0239
 IR Inten    --     60.3152                20.0913                33.6016

                    124                    125                    126
                      A                      A                      A
 Frequencies --   3074.9469              3091.9581              3092.1461
 Red. masses --      1.0950                 1.0984                 1.0930
 Frc consts  --      6.1004                 6.1872                 6.1575
 IR Inten    --     33.8386                15.4422                11.6232

                    127                    128                    129
                      A                      A                      A
 Frequencies --   3099.9695              3114.4390              3118.2639
 Red. masses --      1.0888                 1.0886                 1.0940
 Frc consts  --      6.1648                 6.2210                 6.2675
 IR Inten    --    105.5764                24.8801                64.5843

                    130                    131                    132
                      A                      A                      A
 Frequencies --   3118.6197              3121.5523              3156.8305
 Red. masses --      1.0948                 1.0980                 1.0860
 Frc consts  --      6.2734                 6.3036                 6.3764
 IR Inten    --     48.9508                11.0576                10.8563

                    133                    134                    135
                      A                      A                      A
 Frequencies --   3171.3982              3189.3141              3192.4610
 Red. masses --      1.0908                 1.0913                 1.0938
 Frc consts  --      6.4637                 6.5402                 6.5679
 IR Inten    --     27.3638                18.2651                35.9348

 - Thermochemistry -
 -------------------
 Temperature   298.150 Kelvin.  Pressure   1.00000 Atm.
 Atom     1 has atomic number  6 and mass  12.00000

 Molecular mass:   308.17763 amu.
 Principal axes and moments of inertia in atomic units:
                           1         2         3
     Eigenvalues --  4794.48556********************
           X           -0.51531   0.02201   0.85672
           Y            0.30210   0.94016   0.15756
           Z            0.80199  -0.34001   0.49113
 This molecule is an asymmetric top.
 Rotational symmetry number  1.
 Warning -- assumption of classical behavior for rotation
           may cause significant error
 Rotational temperatures (Kelvin)      0.01807     0.00520     0.00488
 Rotational constants (GHZ):           0.37642     0.10832     0.10161
 Zero-point vibrational energy    1027935.7 (Joules/Mol)
                                  245.68254 (Kcal/Mol)
 Warning -- explicit consideration of  37 degrees of freedom as
           vibrations may cause significant error
 Vibrational temperatures:     21.32    25.60    30.64    53.69    61.71
          (Kelvin)             87.03   118.01   121.87   149.57   178.19
                              191.46   203.24   208.14   242.78   269.14
                              292.31   310.22   371.93   379.01   415.87
                              438.06   475.92   502.88   520.56   558.70
                              570.19   576.70   613.22   617.41   636.41
                              665.79   683.26   716.37   739.28   769.78
                              813.33   844.11   918.42   967.59   974.72
                              992.97  1029.52  1082.85  1130.04  1136.03
                             1160.57  1162.79  1194.40  1222.38  1252.86
                             1276.65  1304.83  1378.72  1385.38  1392.06
                             1417.02  1421.88  1438.09  1445.44  1454.70
                             1463.80  1485.22  1497.96  1501.37  1527.23
                             1547.74  1579.69  1581.16  1598.11  1620.30
                             1651.56  1674.82  1686.67  1714.52  1740.66
                             1778.60  1788.85  1813.95  1837.50  1848.57
                             1881.45  1891.83  1946.90  1949.70  1984.68
                             1985.24  1990.79  2020.33  2021.29  2029.13
                             2030.67  2081.36  2106.00  2109.29  2111.77
                             2113.36  2122.25  2126.79  2129.49  2131.07
                             2133.80  2136.24  2140.64  2150.95  2152.97
                             2161.52  2219.36  2314.08  2340.96  2454.21
                             2473.99  4307.19  4318.64  4327.06  4328.79
                             4330.77  4335.85  4357.42  4376.98  4382.28
                             4389.83  4390.42  4410.93  4424.16  4448.64
                             4448.91  4460.16  4480.98  4486.49  4487.00
                             4491.22  4541.97  4562.93  4588.71  4593.24

 Zero-point correction=                           0.391520 (Hartree/Particle)
 Thermal correction to Energy=                    0.415223
 Thermal correction to Enthalpy=                  0.416167
 Thermal correction to Gibbs Free Energy=         0.334281
 Sum of electronic and zero-point Energies=           -965.131025
 Sum of electronic and thermal Energies=              -965.107322
 Sum of electronic and thermal Enthalpies=            -965.106378
 Sum of electronic and thermal Free Energies=         -965.188263

                     E (Thermal)             CV                S
                      KCal/Mol        Cal/Mol-Kelvin    Cal/Mol-Kelvin
 Total                  260.556             88.810            172.342
 Electronic               0.000              0.000              1.377
 Translational            0.889              2.981             43.073
 Rotational               0.889              2.981             35.605
 Vibrational            258.779             82.848             92.287
 Vibration     1          0.593              1.986              7.230
 Vibration     2          0.593              1.986              6.867
 Vibration     3          0.593              1.985              6.510
 Vibration     4          0.594              1.982              5.397
 Vibration     5          0.595              1.980              5.121
 Vibration     6          0.597              1.973              4.441
 Vibration     7          0.600              1.961              3.842
 Vibration     8          0.601              1.960              3.779
 Vibration     9          0.605              1.946              3.379
 Vibration    10          0.610              1.929              3.039
 Vibration    11          0.613              1.920              2.901
 Vibration    12          0.615              1.912              2.787
 Vibration    13          0.616              1.908              2.741
 Vibration    14          0.625              1.881              2.449
 Vibration    15          0.632              1.858              2.257
 Vibration    16          0.639              1.835              2.104
 Vibration    17          0.645              1.817              1.996
 Vibration    18          0.667              1.748              1.672
 Vibration    19          0.670              1.740              1.639
 Vibration    20          0.686              1.694              1.480
 Vibration    21          0.695              1.665              1.392
 Vibration    22          0.713              1.614              1.256
 Vibration    23          0.727              1.576              1.168
 Vibration    24          0.736              1.551              1.114
 Vibration    25          0.756              1.495              1.007
 Vibration    26          0.763              1.478              0.976
 Vibration    27          0.767              1.468              0.960
 Vibration    28          0.788              1.413              0.871
 Vibration    29          0.790              1.407              0.862
 Vibration    30          0.802              1.378              0.819
 Vibration    31          0.820              1.333              0.758
 Vibration    32          0.832              1.306              0.724
 Vibration    33          0.853              1.255              0.663
 Vibration    34          0.869              1.219              0.624
 Vibration    35          0.890              1.173              0.576
 Vibration    36          0.921              1.106              0.513
 Vibration    37          0.944              1.060              0.473

                           ! Non-Optimized Parameters !
 Normal termination of Gaussian 16 at Sun Feb 11 07:28:03 2024.
