 Gaussian 16, Revision A.03,
 Gaussian 16:  ES64L-G16RevA.03 25-Dec-2016

 --------------------------------------
 #P UB3LYP/6-311++G(d,p) nosym opt freq
 --------------------------------------

 --------
 Oxidized
 --------
 Symbolic Z-matrix:
 Charge =  0 Multiplicity = 1

 SCF Done:  E(UB3LYP) =  -1144.83267094     A.U. after   16 cycles
 SCF Done:  E(UB3LYP) =  -1144.84118489     A.U. after   15 cycles
 SCF Done:  E(UB3LYP) =  -1144.84166048     A.U. after   13 cycles
 SCF Done:  E(UB3LYP) =  -1144.84170615     A.U. after   12 cycles
 SCF Done:  E(UB3LYP) =  -1144.84167059     A.U. after   13 cycles
 SCF Done:  E(UB3LYP) =  -1144.84180784     A.U. after   12 cycles
 SCF Done:  E(UB3LYP) =  -1144.84196693     A.U. after   15 cycles
 SCF Done:  E(UB3LYP) =  -1144.84063929     A.U. after   16 cycles
 SCF Done:  E(UB3LYP) =  -1144.84212096     A.U. after   14 cycles
 SCF Done:  E(UB3LYP) =  -1144.84215740     A.U. after   13 cycles
 SCF Done:  E(UB3LYP) =  -1144.84236143     A.U. after   13 cycles
 SCF Done:  E(UB3LYP) =  -1144.84246337     A.U. after   12 cycles
 SCF Done:  E(UB3LYP) =  -1144.84258168     A.U. after   13 cycles
 SCF Done:  E(UB3LYP) =  -1144.84259250     A.U. after   13 cycles
 SCF Done:  E(UB3LYP) =  -1144.84262355     A.U. after   12 cycles
 SCF Done:  E(UB3LYP) =  -1144.84264167     A.U. after   12 cycles
 SCF Done:  E(UB3LYP) =  -1144.84264196     A.U. after   10 cycles
 SCF Done:  E(UB3LYP) =  -1144.84264215     A.U. after   10 cycles
 SCF Done:  E(UB3LYP) =  -1144.84264217     A.U. after    8 cycles
 Optimization completed.
    -- Stationary point found.
 Normal termination of Gaussian 16 at Thu Dec 21 11:22:11 2023.

 ----------------------------------------------------------------------
 #P Geom=AllCheck Guess=TCheck SCRF=Check GenChk UB3LYP/6-311++G(d,p) F
 req
 ----------------------------------------------------------------------

 Structure from the checkpoint file:  "147.chk"
 --------
 Oxidized
 --------
 Charge =  0 Multiplicity = 1

                          Input orientation:
 ---------------------------------------------------------------------
 Center     Atomic      Atomic             Coordinates (Angstroms)
 Number     Number       Type             X           Y           Z
 ---------------------------------------------------------------------
      1          6           0       -2.893644    3.940015    0.413098
      2          6           0       -4.174574    3.423729    0.546157
      3          6           0       -4.351482    2.038327    0.531146
      4          6           0       -1.790389    3.091910    0.270931
      5          6           0       -1.985770    1.699920    0.263788
      6          6           0       -3.272941    1.177343    0.394229
      7          6           0       -0.431408    3.683323    0.133032
      8          6           0        0.715483    2.736537   -0.012089
      9          6           0        0.520104    1.344540   -0.019236
     10          6           0       -0.838900    0.753135    0.118507
     11          6           0        2.002666    3.259109   -0.142389
     12          6           0        3.081223    2.398115   -0.279145
     13          6           0        2.904320    1.012723   -0.294171
     14          6           0        1.623367    0.496434   -0.161273
     15          8           0       -0.256764    4.890873    0.138255
     16          8           0       -1.013569   -0.454410    0.113065
     17          1           0       -3.419461    0.104929    0.391388
     18          1           0        1.455756   -0.573314   -0.167835
     19          1           0       -2.726026    5.009762    0.419635
     20          1           0        2.149190    4.331524   -0.139580
     21          1           0        3.755279    0.354687   -0.401039
     22          8           0       -5.593505    1.448673    0.735575
     23          8           0        4.323305    2.987726   -0.483400
     24          6           0        5.421534    2.597209    0.252780
     25          6           0        6.623445    3.394306   -0.170655
     26          8           0        5.384904    1.753038    1.102777
     27          1           0       -5.025512    4.081775    0.653121
     28          1           0        6.450843    4.454582    0.028528
     29          1           0        6.786050    3.285879   -1.245058
     30          1           0        7.496597    3.051125    0.379686
     31          6           0       -6.692008    1.839448   -0.000063
     32          6           0       -7.894024    1.043092    0.424460
     33          8           0       -6.655589    2.683575   -0.850112
     34          1           0       -7.719598   -0.018197    0.232642
     35          1           0       -8.766093    1.382019   -0.130209
     36          1           0       -8.059831    1.158230    1.497724
 ---------------------------------------------------------------------

 SCF Done:  E(UB3LYP) =  -1144.84264217     A.U. after    1 cycles

 Alpha  occ. eigenvalues --  -19.19840 -19.19840 -19.13839 -19.13839 -19.13001
 Alpha  occ. eigenvalues --  -19.13000 -10.33102 -10.33102 -10.28289 -10.28288
 Alpha  occ. eigenvalues --  -10.26971 -10.26971 -10.21603 -10.21602 -10.21180
 Alpha  occ. eigenvalues --  -10.21179 -10.20786 -10.20786 -10.20576 -10.20576
 Alpha  occ. eigenvalues --  -10.20471 -10.20470 -10.19952 -10.19951  -1.13772
 Alpha  occ. eigenvalues --   -1.13772  -1.06516  -1.06323  -1.05736  -1.05733
 Alpha  occ. eigenvalues --   -0.90219  -0.89182  -0.82644  -0.80258  -0.79357
 Alpha  occ. eigenvalues --   -0.78787  -0.77121  -0.75971  -0.70373  -0.68571
 Alpha  occ. eigenvalues --   -0.67383  -0.64166  -0.63079  -0.60726  -0.58310
 Alpha  occ. eigenvalues --   -0.57088  -0.53369  -0.52620  -0.51710  -0.51676
 Alpha  occ. eigenvalues --   -0.50597  -0.50540  -0.50501  -0.49389  -0.47936
 Alpha  occ. eigenvalues --   -0.47212  -0.46216  -0.45847  -0.45834  -0.45824
 Alpha  occ. eigenvalues --   -0.45339  -0.44211  -0.43700  -0.43434  -0.43191
 Alpha  occ. eigenvalues --   -0.41841  -0.41757  -0.40990  -0.40943  -0.39943
 Alpha  occ. eigenvalues --   -0.39238  -0.39198  -0.37764  -0.37040  -0.35010
 Alpha  occ. eigenvalues --   -0.34602  -0.30871  -0.30854  -0.28997  -0.28682
 Alpha  occ. eigenvalues --   -0.28297  -0.27972  -0.27519  -0.27064
 Alpha virt. eigenvalues --   -0.11951  -0.07829  -0.04628  -0.03582  -0.02266
 Alpha virt. eigenvalues --   -0.01710  -0.01432  -0.01317   0.00218   0.00811
 Alpha virt. eigenvalues --    0.01507   0.01985   0.02397   0.02632   0.03115

  Beta  occ. eigenvalues --  -19.19840 -19.19840 -19.13839 -19.13839 -19.13001
  Beta  occ. eigenvalues --  -19.13000 -10.33102 -10.33102 -10.28289 -10.28288
  Beta  occ. eigenvalues --  -10.26971 -10.26971 -10.21603 -10.21602 -10.21180
  Beta  occ. eigenvalues --  -10.21179 -10.20786 -10.20786 -10.20576 -10.20576
  Beta  occ. eigenvalues --  -10.20471 -10.20470 -10.19952 -10.19951  -1.13772
  Beta  occ. eigenvalues --   -1.13772  -1.06516  -1.06323  -1.05736  -1.05733
  Beta  occ. eigenvalues --   -0.90219  -0.89182  -0.82644  -0.80258  -0.79357
  Beta  occ. eigenvalues --   -0.78787  -0.77121  -0.75971  -0.70373  -0.68571
  Beta  occ. eigenvalues --   -0.67383  -0.64166  -0.63079  -0.60726  -0.58310
  Beta  occ. eigenvalues --   -0.57088  -0.53369  -0.52620  -0.51710  -0.51676
  Beta  occ. eigenvalues --   -0.50597  -0.50540  -0.50501  -0.49389  -0.47936
  Beta  occ. eigenvalues --   -0.47212  -0.46216  -0.45847  -0.45834  -0.45824
  Beta  occ. eigenvalues --   -0.45339  -0.44211  -0.43700  -0.43434  -0.43191
  Beta  occ. eigenvalues --   -0.41841  -0.41757  -0.40990  -0.40943  -0.39943
  Beta  occ. eigenvalues --   -0.39238  -0.39198  -0.37764  -0.37040  -0.35010
  Beta  occ. eigenvalues --   -0.34602  -0.30871  -0.30854  -0.28997  -0.28682
  Beta  occ. eigenvalues --   -0.28297  -0.27972  -0.27519  -0.27064
  Beta virt. eigenvalues --   -0.11951  -0.07829  -0.04628  -0.03582  -0.02266
  Beta virt. eigenvalues --   -0.01710  -0.01432  -0.01317   0.00218   0.00811
  Beta virt. eigenvalues --    0.01507   0.01985   0.02397   0.02632   0.03115

 Mulliken charges and spin densities:
               1          2
     1  C    0.159828   0.000000
     2  C    0.108959  -0.000000
     3  C   -0.521332   0.000000
     4  C    0.353531   0.000000
     5  C    0.465748  -0.000000
     6  C   -0.011580  -0.000000
     7  C   -0.847406  -0.000000
     8  C    0.465866   0.000000
     9  C    0.354772   0.000000
    10  C   -0.847914   0.000000
    11  C   -0.011241  -0.000000
    12  C   -0.522831  -0.000000
    13  C    0.109409  -0.000000
    14  C    0.160350  -0.000000
    15  O   -0.203547   0.000000
    16  O   -0.203518  -0.000000
    17  H    0.209421   0.000000
    18  H    0.194050   0.000000
    19  H    0.194035  -0.000000
    20  H    0.209418   0.000000
    21  H    0.215735   0.000000
    22  O   -0.027943  -0.000000
    23  O   -0.027848  -0.000000
    24  C    0.129087  -0.000000
    25  C   -0.546217   0.000000
    26  O   -0.220904   0.000000
    27  H    0.215723  -0.000000
    28  H    0.180946  -0.000000
    29  H    0.181143  -0.000000
    30  H    0.180025  -0.000000
    31  C    0.129031   0.000000
    32  C   -0.545824  -0.000000
    33  O   -0.220953  -0.000000
    34  H    0.180717  -0.000000
    35  H    0.180061   0.000000
    36  H    0.181205  -0.000000
 Sum of Mulliken charges =  -0.00000  -0.00000

 Dipole moment (field-independent basis, Debye):
    X=             -0.0002    Y=              0.0013    Z=              0.0024  Tot=              0.0027
 Quadrupole moment (field-independent basis, Debye-Ang):
   XX=            -96.3401   YY=           -143.8666   ZZ=           -142.0367
   XY=             13.6613   XZ=            -19.6154   YZ=              4.6689

  Exact polarizability: 377.267  11.166 226.472 -11.569  -5.140 127.689
 Approx polarizability: 461.783  14.292 440.913 -18.075 -16.409 212.190

                      1                      2                      3
                      A                      A                      A
 Frequencies --     17.2586                28.7480                32.3443
 Red. masses --      7.6259                 7.1889                 5.3888
 Frc consts  --      0.0013                 0.0035                 0.0033
 IR Inten    --      0.7573                 0.0000                 6.8304

                      4                      5                      6
                      A                      A                      A
 Frequencies --     51.8011                51.8885                64.0752
 Red. masses --      2.2669                 2.2332                 6.2588
 Frc consts  --      0.0036                 0.0035                 0.0151
 IR Inten    --      1.6020                 1.0070                 1.8169

                      7                      8                      9
                      A                      A                      A
 Frequencies --     73.9624                76.7344                88.1605
 Red. masses --      1.8777                 1.3859                 2.9580
 Frc consts  --      0.0061                 0.0048                 0.0135
 IR Inten    --      0.0001                 0.7938                 0.0000

                     10                     11                     12
                      A                      A                      A
 Frequencies --    127.4478               140.4436               148.4802
 Red. masses --      4.6659                 5.8163                 9.0399
 Frc consts  --      0.0447                 0.0676                 0.1174
 IR Inten    --      2.7356                 0.0000                 6.5386

                     13                     14                     15
                      A                      A                      A
 Frequencies --    183.2046               190.5056               210.9314
 Red. masses --      8.3419                 7.3813                 6.5497
 Frc consts  --      0.1650                 0.1578                 0.1717
 IR Inten    --      0.0000                 7.9307                 0.0000

                     16                     17                     18
                      A                      A                      A
 Frequencies --    268.4830               291.8340               303.8133
 Red. masses --      6.6019                 6.7579                 4.7091
 Frc consts  --      0.2804                 0.3391                 0.2561
 IR Inten    --      0.0000                 0.3921                 4.5957

                     19                     20                     21
                      A                      A                      A
 Frequencies --    321.9306               394.4348               395.5064
 Red. masses --      5.6156                 4.8160                 6.7946
 Frc consts  --      0.3429                 0.4415                 0.6262
 IR Inten    --      0.0000                 5.8312                 0.0020

                     22                     23                     24
                      A                      A                      A
 Frequencies --    400.3878               410.7394               430.3034
 Red. masses --      5.3011                 8.9807                 3.4553
 Frc consts  --      0.5007                 0.8927                 0.3769
 IR Inten    --      0.0001                49.6714                 1.9783

                     25                     26                     27
                      A                      A                      A
 Frequencies --    450.6664               462.5421               478.8172
 Red. masses --      3.4571                 5.7611                 9.6714
 Frc consts  --      0.4137                 0.7262                 1.3064
 IR Inten    --      0.0000                 0.0000                 0.0000

                     28                     29                     30
                      A                      A                      A
 Frequencies --    515.2250               551.4651               565.2626
 Red. masses --      6.4048                 4.8857                 4.0520
 Frc consts  --      1.0017                 0.8754                 0.7628
 IR Inten    --      0.0000                10.9079                22.3379

                     31                     32                     33
                      A                      A                      A
 Frequencies --    593.7896               595.9670               609.4382
 Red. masses --      2.8727                 2.9338                 4.9793
 Frc consts  --      0.5968                 0.6139                 1.0896
 IR Inten    --      0.0004                 7.3032                 0.0002

                     34                     35                     36
                      A                      A                      A
 Frequencies --    656.5431               664.6357               686.5607
 Red. masses --      6.6375                 4.8410                 5.7254
 Frc consts  --      1.6857                 1.2599                 1.5901
 IR Inten    --     17.5716                 0.0000                 4.8826

                     37                     38                     39
                      A                      A                      A
 Frequencies --    700.8635               706.6206               715.0725
 Red. masses --      7.0438                 4.6760                 4.5958
 Frc consts  --      2.0386                 1.3756                 1.3846
 IR Inten    --      0.0000                 0.0000                10.2780

                     40                     41                     42
                      A                      A                      A
 Frequencies --    740.1633               770.6560               791.3960
 Red. masses --      4.8620                 7.3927                 4.2998
 Frc consts  --      1.5693                 2.5869                 1.5867
 IR Inten    --     19.9692                25.8748                 0.0000

                     43                     44                     45
                      A                      A                      A
 Frequencies --    806.2827               851.0268               861.7590
 Red. masses --      4.7672                 2.2818                 1.8875
 Frc consts  --      1.8259                 0.9737                 0.8259
 IR Inten    --      0.0000                33.2611                 0.0000

                     46                     47                     48
                      A                      A                      A
 Frequencies --    874.6172               906.5147               914.7676
 Red. masses --      2.4605                 3.6599                 4.5131
 Frc consts  --      1.1090                 1.7720                 2.2251
 IR Inten    --     30.9263                 0.0000               291.8153

                     49                     50                     51
                      A                      A                      A
 Frequencies --    940.4978               943.0081               996.5867
 Red. masses --      1.6680                 1.7380                 1.5983
 Frc consts  --      0.8693                 0.9106                 0.9353
 IR Inten    --      0.0001               100.0224                 0.0000

                     52                     53                     54
                      A                      A                      A
 Frequencies --    999.6603              1000.0906              1003.0773
 Red. masses --      1.3577                 2.5041                 2.4288
 Frc consts  --      0.7994                 1.4757                 1.4398
 IR Inten    --      3.2771                 0.0003               132.9427

                     55                     56                     57
                      A                      A                      A
 Frequencies --   1021.7471              1028.7212              1063.7798
 Red. masses --      1.9753                 1.9334                 1.7723
 Frc consts  --      1.2150                 1.2055                 1.1817
 IR Inten    --      0.0002               175.3393                11.7590

                     58                     59                     60
                      A                      A                      A
 Frequencies --   1063.7960              1103.2802              1123.5562
 Red. masses --      1.7711                 3.1634                 1.9016
 Frc consts  --      1.1809                 2.2687                 1.4144
 IR Inten    --      2.8986                34.2982                 0.0000

                     61                     62                     63
                      A                      A                      A
 Frequencies --   1154.7797              1172.4507              1196.9113
 Red. masses --      1.6431                 1.5209                 4.1583
 Frc consts  --      1.2910                 1.2318                 3.5099
 IR Inten    --      0.0000                25.6449              2176.3968

                     64                     65                     66
                      A                      A                      A
 Frequencies --   1206.2229              1218.3183              1229.0789
 Red. masses --      3.9629                 2.5689                 1.8009
 Frc consts  --      3.3972                 2.2466                 1.6029
 IR Inten    --      0.0001                14.9311                 0.0000

                     67                     68                     69
                      A                      A                      A
 Frequencies --   1237.5739              1276.3587              1299.2477
 Red. masses --      6.6813                 1.5550                 2.0396
 Frc consts  --      6.0291                 1.4925                 2.0285
 IR Inten    --      0.0000                41.7764                 0.0000

                     70                     71                     72
                      A                      A                      A
 Frequencies --   1310.3252              1350.6010              1366.8657
 Red. masses --      6.4803                10.7153                 9.6160
 Frc consts  --      6.5555                11.5161                10.5851
 IR Inten    --    815.3229                29.7590                 0.0000

                     73                     74                     75
                      A                      A                      A
 Frequencies --   1401.0297              1401.1496              1443.5399
 Red. masses --      1.3005                 1.3020                 3.9826
 Frc consts  --      1.5040                 1.5060                 4.8896
 IR Inten    --    105.5509                 0.0136                50.3930

                     76                     77                     78
                      A                      A                      A
 Frequencies --   1457.4862              1470.8619              1470.8768
 Red. masses --      4.7485                 1.0486                 1.0484
 Frc consts  --      5.9432                 1.3366                 1.3364
 IR Inten    --      0.0000                 4.3184                26.3035

                     79                     80                     81
                      A                      A                      A
 Frequencies --   1474.9902              1474.9964              1508.8426
 Red. masses --      1.0455                 1.0458                 2.9620
 Frc consts  --      1.3401                 1.3406                 3.9731
 IR Inten    --     19.9934                 1.5270                20.4649

                     82                     83                     84
                      A                      A                      A
 Frequencies --   1517.3748              1603.3820              1616.8122
 Red. masses --      2.8830                 7.7004                 8.6095
 Frc consts  --      3.9109                11.6637                13.2601
 IR Inten    --      0.0000                30.7823                 0.0000

                     85                     86                     87
                      A                      A                      A
 Frequencies --   1627.8233              1634.4702              1718.7656
 Red. masses --      6.7084                 6.3754                12.7879
 Frc consts  --     10.4732                10.0349                22.2579
 IR Inten    --    265.6690                 0.0000                 0.0000

                     88                     89                     90
                      A                      A                      A
 Frequencies --   1729.5635              1825.8267              1825.9051
 Red. masses --     12.0999                11.6904                11.6854
 Frc consts  --     21.3257                22.9613                22.9536
 IR Inten    --    326.8123               476.3565                 1.3625

                     91                     92                     93
                      A                      A                      A
 Frequencies --   3051.7031              3051.7171              3112.2245
 Red. masses --      1.0365                 1.0365                 1.0998
 Frc consts  --      5.6874                 5.6873                 6.2761
 IR Inten    --      0.6881                 0.7005                 2.7101

                     94                     95                     96
                      A                      A                      A
 Frequencies --   3112.2543              3159.4711              3159.4927
 Red. masses --      1.0997                 1.1033                 1.1033
 Frc consts  --      6.2761                 6.4891                 6.4891
 IR Inten    --      2.8694                 9.4221                 4.0140

                     97                     98                     99
                      A                      A                      A
 Frequencies --   3199.3140              3199.3358              3209.0434
 Red. masses --      1.0896                 1.0895                 1.0915
 Frc consts  --      6.5709                 6.5708                 6.6227
 IR Inten    --      0.6705                 0.0026                10.3118

                    100                    101                    102
                      A                      A                      A
 Frequencies --   3209.1678              3219.9290              3219.9522
 Red. masses --      1.0915                 1.0943                 1.0944
 Frc consts  --      6.6231                 6.6850                 6.6851
 IR Inten    --      0.0058                 4.7129                 0.5067

 - Thermochemistry -
 -------------------
 Temperature   298.150 Kelvin.  Pressure   1.00000 Atm.
 Atom     1 has atomic number  6 and mass  12.00000

 Molecular mass:   324.06339 amu.
 Principal axes and moments of inertia in atomic units:
                           1         2         3
     Eigenvalues --  2120.33522********************
           X            0.99857  -0.05188   0.01317
           Y            0.05143   0.99815   0.03228
           Z           -0.01482  -0.03155   0.99939
 This molecule is an asymmetric top.
 Rotational symmetry number  1.
 Warning -- assumption of classical behavior for rotation
           may cause significant error
 Rotational temperatures (Kelvin)      0.04085     0.00435     0.00401
 Rotational constants (GHZ):           0.85116     0.09060     0.08354
 Zero-point vibrational energy     685387.9 (Joules/Mol)
                                  163.81164 (Kcal/Mol)
 Warning -- explicit consideration of  33 degrees of freedom as
           vibrations may cause significant error
 Vibrational temperatures:     24.83    41.36    46.54    74.53    74.66
          (Kelvin)             92.19   106.42   110.40   126.84   183.37
                              202.07   213.63   263.59   274.10   303.48
                              386.29   419.88   437.12   463.19   567.50
                              569.05   576.07   590.96   619.11   648.41
                              665.49   688.91   741.29   793.44   813.29
                              854.33   857.46   876.85   944.62   956.26
                              987.81  1008.39  1016.67  1028.83  1064.93
                             1108.80  1138.64  1160.06  1224.44  1239.88
                             1258.38  1304.27  1316.15  1353.17  1356.78
                             1433.87  1438.29  1438.91  1443.20  1470.07
                             1480.10  1530.54  1530.57  1587.37  1616.55
                             1661.47  1686.90  1722.09  1735.49  1752.89
                             1768.37  1780.59  1836.40  1869.33  1885.27
                             1943.21  1966.61  2015.77  2015.94  2076.93
                             2097.00  2116.24  2116.26  2122.18  2122.19
                             2170.89  2183.16  2306.91  2326.23  2342.07
                             2351.64  2472.92  2488.46  2626.96  2627.07
                             4390.72  4390.74  4477.80  4477.84  4545.77
                             4545.81  4603.10  4603.13  4617.10  4617.28
                             4632.76  4632.79

 Zero-point correction=                           0.261050 (Hartree/Particle)
 Thermal correction to Energy=                    0.282062
 Thermal correction to Enthalpy=                  0.283006
 Thermal correction to Gibbs Free Energy=         0.207711
 Sum of electronic and zero-point Energies=          -1144.581592
 Sum of electronic and thermal Energies=             -1144.560581
 Sum of electronic and thermal Enthalpies=           -1144.559636
 Sum of electronic and thermal Free Energies=        -1144.634931

                     E (Thermal)             CV                S
                      KCal/Mol        Cal/Mol-Kelvin    Cal/Mol-Kelvin
 Total                  176.996             77.621            158.471
 Electronic               0.000              0.000              0.000
 Translational            0.889              2.981             43.223
 Rotational               0.889              2.981             35.166
 Vibrational            175.219             71.660             80.083
 Vibration     1          0.593              1.986              6.927
 Vibration     2          0.593              1.984              5.914
 Vibration     3          0.594              1.983              5.680
 Vibration     4          0.596              1.977              4.747
 Vibration     5          0.596              1.977              4.744
 Vibration     6          0.597              1.971              4.328
 Vibration     7          0.599              1.966              4.045
 Vibration     8          0.599              1.965              3.973
 Vibration     9          0.601              1.958              3.700
 Vibration    10          0.611              1.926              2.984
 Vibration    11          0.615              1.913              2.798
 Vibration    12          0.618              1.904              2.692
 Vibration    13          0.631              1.863              2.296
 Vibration    14          0.634              1.853              2.223
 Vibration    15          0.643              1.824              2.036
 Vibration    16          0.673              1.731              1.606
 Vibration    17          0.687              1.689              1.463
 Vibration    18          0.695              1.666              1.396
 Vibration    19          0.707              1.632              1.300
 Vibration    20          0.761              1.482              0.983
 Vibration    21          0.762              1.480              0.979
 Vibration    22          0.766              1.469              0.961
 Vibration    23          0.775              1.447              0.924
 Vibration    24          0.791              1.404              0.858
 Vibration    25          0.809              1.359              0.794
 Vibration    26          0.820              1.333              0.759
 Vibration    27          0.835              1.297              0.713
 Vibration    28          0.870              1.216              0.621
 Vibration    29          0.907              1.136              0.541
 Vibration    30          0.921              1.106              0.513
 Vibration    31          0.951              1.045              0.460
 Vibration    32          0.954              1.040              0.457
 Vibration    33          0.968              1.012              0.434

                           ! Non-Optimized Parameters !
 Normal termination of Gaussian 16 at Thu Dec 21 15:13:53 2023.
