 Gaussian 16, Revision A.03,
 Gaussian 16:  ES64L-G16RevA.03 25-Dec-2016

 ----------------------------------------------------------------------
 #P UB3LYP/6-311++G(d,p) nosym opt freq SCRF=(PCM,Solvent=n,n-DiMethylF
 ormamide)
 ----------------------------------------------------------------------

 --------
 Oxidized
 --------
 Symbolic Z-matrix:
 Charge =  0 Multiplicity = 1

 SCF Done:  E(UB3LYP) =  -989.974808579     A.U. after   14 cycles
 SCF Done:  E(UB3LYP) =  -989.974946198     A.U. after   11 cycles
 SCF Done:  E(UB3LYP) =  -989.974965518     A.U. after   11 cycles
 SCF Done:  E(UB3LYP) =  -989.974982392     A.U. after   10 cycles
 SCF Done:  E(UB3LYP) =  -989.974983052     A.U. after   10 cycles
 SCF Done:  E(UB3LYP) =  -989.974986191     A.U. after    9 cycles
 SCF Done:  E(UB3LYP) =  -989.974986391     A.U. after    8 cycles
 SCF Done:  E(UB3LYP) =  -989.974986445     A.U. after    7 cycles
 SCF Done:  E(UB3LYP) =  -989.974986482     A.U. after    8 cycles
 SCF Done:  E(UB3LYP) =  -989.974986500     A.U. after    8 cycles
 SCF Done:  E(UB3LYP) =  -989.974986529     A.U. after    8 cycles
 SCF Done:  E(UB3LYP) =  -989.974986537     A.U. after    9 cycles
 Optimization completed.
    -- Stationary point found.
 Normal termination of Gaussian 16 at Sat Feb 10 22:41:32 2024.

 ----------------------------------------------------------------------
 #P Geom=AllCheck Guess=TCheck SCRF=Check GenChk UB3LYP/6-311++G(d,p) F
 req
 ----------------------------------------------------------------------

 Structure from the checkpoint file:  "204.chk"
 --------
 Oxidized
 --------
 Charge =  0 Multiplicity = 1

                          Input orientation:
 ---------------------------------------------------------------------
 Center     Atomic      Atomic             Coordinates (Angstroms)
 Number     Number       Type             X           Y           Z
 ---------------------------------------------------------------------
      1          8           0        4.880110   -0.864807    0.031807
      2          6           0        3.668937   -0.258708    0.063919
      3          6           0        3.581540    1.124535    0.129965
      4          6           0        2.335001    1.749096    0.163249
      5          6           0        1.161629    1.002645    0.132245
      6          6           0       -0.148649    1.704730    0.169325
      7          8           0       -0.182071    2.930952    0.216903
      8          6           0       -1.382341    0.873312    0.146580
      9          6           0       -2.658706    1.452448    0.190470
     10          8           0       -2.813088    2.797162    0.257865
     11          6           0       -3.804707    0.628764    0.165542
     12          6           0       -3.706557   -0.738288    0.097748
     13          6           0       -2.444097   -1.353740    0.052367
     14          8           0       -2.421885   -2.695337   -0.013411
     15          6           0       -1.281094   -0.555177    0.077470
     16          6           0        0.021682   -1.211348    0.033504
     17          8           0        0.106344   -2.469519   -0.029974
     18          6           0        1.235878   -0.408053    0.065300
     19          6           0        2.493154   -1.036426    0.030422
     20          8           0        2.672509   -2.370700   -0.033730
     21          1           0        4.751200   -1.824147   -0.010774
     22          1           0        4.495498    1.705734    0.155209
     23          1           0        2.268239    2.827442    0.214507
     24          1           0       -3.754943    3.010065    0.280678
     25          1           0       -4.784448    1.094236    0.200349
     26          1           0       -4.591637   -1.361783    0.078219
     27          1           0       -1.473122   -2.969425   -0.037804
     28          1           0        1.775626   -2.783668   -0.051094
 ---------------------------------------------------------------------

 SCF Done:  E(UB3LYP) =  -989.974986537     A.U. after    1 cycles

 Alpha  occ. eigenvalues --  -19.17727 -19.17570 -19.17527 -19.16612 -19.15155
 Alpha  occ. eigenvalues --  -19.11950 -10.29817 -10.27973 -10.27106 -10.27071
 Alpha  occ. eigenvalues --  -10.27038 -10.26338 -10.21684 -10.21512 -10.21446
 Alpha  occ. eigenvalues --  -10.21008 -10.20594 -10.20476 -10.20060 -10.19739
 Alpha  occ. eigenvalues --   -1.10972  -1.09568  -1.09198  -1.08006  -1.06116
 Alpha  occ. eigenvalues --   -1.05292  -0.89663  -0.88085  -0.82156  -0.78377
 Alpha  occ. eigenvalues --   -0.77542  -0.76890  -0.70385  -0.68392  -0.67911
 Alpha  occ. eigenvalues --   -0.63718  -0.62620  -0.59418  -0.58596  -0.56732
 Alpha  occ. eigenvalues --   -0.55725  -0.53229  -0.52581  -0.51276  -0.49635
 Alpha  occ. eigenvalues --   -0.48416  -0.47882  -0.46909  -0.46390  -0.45714
 Alpha  occ. eigenvalues --   -0.44847  -0.43654  -0.43585  -0.42608  -0.42146
 Alpha  occ. eigenvalues --   -0.41834  -0.40810  -0.40341  -0.39336  -0.38869
 Alpha  occ. eigenvalues --   -0.38616  -0.38492  -0.35107  -0.33835  -0.30418
 Alpha  occ. eigenvalues --   -0.29716  -0.27495  -0.27009  -0.24518  -0.23651
 Alpha virt. eigenvalues --   -0.12377  -0.06705  -0.04091  -0.01183  -0.00958
 Alpha virt. eigenvalues --   -0.00501   0.00589   0.01054   0.01644   0.03020
 Alpha virt. eigenvalues --    0.03267   0.03768   0.04078   0.04216   0.04343

  Beta  occ. eigenvalues --  -19.17727 -19.17570 -19.17527 -19.16612 -19.15155
  Beta  occ. eigenvalues --  -19.11950 -10.29817 -10.27973 -10.27106 -10.27071
  Beta  occ. eigenvalues --  -10.27038 -10.26338 -10.21684 -10.21512 -10.21446
  Beta  occ. eigenvalues --  -10.21008 -10.20594 -10.20476 -10.20060 -10.19739
  Beta  occ. eigenvalues --   -1.10972  -1.09568  -1.09198  -1.08006  -1.06116
  Beta  occ. eigenvalues --   -1.05292  -0.89663  -0.88085  -0.82156  -0.78377
  Beta  occ. eigenvalues --   -0.77542  -0.76890  -0.70385  -0.68392  -0.67911
  Beta  occ. eigenvalues --   -0.63718  -0.62620  -0.59418  -0.58596  -0.56732
  Beta  occ. eigenvalues --   -0.55725  -0.53229  -0.52581  -0.51276  -0.49635
  Beta  occ. eigenvalues --   -0.48416  -0.47882  -0.46909  -0.46390  -0.45714
  Beta  occ. eigenvalues --   -0.44847  -0.43654  -0.43585  -0.42608  -0.42146
  Beta  occ. eigenvalues --   -0.41834  -0.40810  -0.40341  -0.39336  -0.38869
  Beta  occ. eigenvalues --   -0.38616  -0.38492  -0.35107  -0.33835  -0.30418
  Beta  occ. eigenvalues --   -0.29716  -0.27495  -0.27009  -0.24518  -0.23651
  Beta virt. eigenvalues --   -0.12377  -0.06705  -0.04091  -0.01183  -0.00958
  Beta virt. eigenvalues --   -0.00501   0.00589   0.01054   0.01644   0.03020
  Beta virt. eigenvalues --    0.03267   0.03768   0.04078   0.04216   0.04343

 Mulliken charges and spin densities:
               1          2
     1  O   -0.267480  -0.000000
     2  C   -0.327068   0.000000
     3  C    0.034979   0.000000
     4  C    0.021858  -0.000000
     5  C    0.293136  -0.000000
     6  C   -0.490294   0.000000
     7  O   -0.306336  -0.000000
     8  C    0.163093  -0.000000
     9  C   -0.191386  -0.000000
    10  O   -0.214274  -0.000000
    11  C   -0.166336  -0.000000
    12  C   -0.082123   0.000000
    13  C   -0.176774   0.000000
    14  O   -0.337604  -0.000000
    15  C    0.617112  -0.000000
    16  C   -0.518583   0.000000
    17  O   -0.398854   0.000000
    18  C    0.515784   0.000000
    19  C   -0.030810  -0.000000
    20  O   -0.394575   0.000000
    21  H    0.317219   0.000000
    22  H    0.236252  -0.000000
    23  H    0.186706  -0.000000
    24  H    0.304998  -0.000000
    25  H    0.203222  -0.000000
    26  H    0.229451   0.000000
    27  H    0.380076  -0.000000
    28  H    0.398612  -0.000000
 Sum of Mulliken charges =  -0.00000   0.00000

 Dipole moment (field-independent basis, Debye):
    X=             -3.7156    Y=             -1.2574    Z=              0.0303  Tot=              3.9227
 Quadrupole moment (field-independent basis, Debye-Ang):
   XX=            -87.3223   YY=           -125.8455   ZZ=           -115.6128
   XY=            -10.1304   XZ=             -1.1482   YZ=             -0.3832

  Exact polarizability: 453.025 -11.272 318.170  -3.156   9.455 118.165
 Approx polarizability: 500.864 -18.188 413.494  -3.710  12.920 140.370

                      1                      2                      3
                      A                      A                      A
 Frequencies --     22.8527                61.1516                93.2266
 Red. masses --      8.2848                 7.2041                 8.2390
 Frc consts  --      0.0025                 0.0159                 0.0422
 IR Inten    --      8.8037                 0.0122                 2.0339

                      4                      5                      6
                      A                      A                      A
 Frequencies --    123.9847               147.1182               183.7212
 Red. masses --      7.8517                 8.7409                 6.9848
 Frc consts  --      0.0711                 0.1115                 0.1389
 IR Inten    --      0.6526                 1.1692                 1.0228

                      7                      8                      9
                      A                      A                      A
 Frequencies --    189.7023               257.5464               273.2026
 Red. masses --      6.7423                 6.1440                 7.5676
 Frc consts  --      0.1430                 0.2401                 0.3328
 IR Inten    --      0.0591                 3.1053                 8.2133

                     10                     11                     12
                      A                      A                      A
 Frequencies --    309.9867               331.1579               339.6431
 Red. masses --      7.3427                 6.0094                 5.5053
 Frc consts  --      0.4157                 0.3883                 0.3742
 IR Inten    --      2.7754                 4.1994                 2.9901

                     13                     14                     15
                      A                      A                      A
 Frequencies --    358.0196               363.8370               399.2587
 Red. masses --      4.5843                11.6427                 1.1844
 Frc consts  --      0.3462                 0.9081                 0.1112
 IR Inten    --      2.0531                12.6051               122.0919

                     16                     17                     18
                      A                      A                      A
 Frequencies --    410.9748               418.9994               451.4994
 Red. masses --      1.0940                 6.2862                 7.3392
 Frc consts  --      0.1089                 0.6502                 0.8815
 IR Inten    --    232.1680                25.2431                 0.3268

                     19                     20                     21
                      A                      A                      A
 Frequencies --    455.1177               460.8723               472.0525
 Red. masses --     10.8332                10.0817                 7.9824
 Frc consts  --      1.3221                 1.2617                 1.0480
 IR Inten    --      6.2203                72.5049                 5.9851

                     22                     23                     24
                      A                      A                      A
 Frequencies --    486.7666               494.1943               521.7467
 Red. masses --      8.0282                 4.6071                 6.7103
 Frc consts  --      1.1207                 0.6629                 1.0762
 IR Inten    --      3.9896                 0.0440                 3.3805

                     25                     26                     27
                      A                      A                      A
 Frequencies --    567.4565               590.4870               593.2357
 Red. masses --      5.1184                 3.6111                 6.0484
 Frc consts  --      0.9711                 0.7418                 1.2541
 IR Inten    --      1.6418                23.5817                12.1537

                     28                     29                     30
                      A                      A                      A
 Frequencies --    635.2806               685.4322               706.3930
 Red. masses --      5.9051                 5.0724                 1.5832
 Frc consts  --      1.4041                 1.4041                 0.4654
 IR Inten    --     57.3457                25.8691                85.2587

                     31                     32                     33
                      A                      A                      A
 Frequencies --    708.3263               717.3142               742.2565
 Red. masses --      6.5171                 2.6113                 7.4065
 Frc consts  --      1.9265                 0.7916                 2.4042
 IR Inten    --      2.0966                38.3960                27.9246

                     34                     35                     36
                      A                      A                      A
 Frequencies --    748.0360               766.0755               777.4522
 Red. masses --      1.1576                 6.7211                 4.5211
 Frc consts  --      0.3816                 2.3240                 1.6100
 IR Inten    --     98.4637                33.8588                37.5479

                     37                     38                     39
                      A                      A                      A
 Frequencies --    813.0978               845.9827               859.7376
 Red. masses --      8.9150                 1.6179                 1.6051
 Frc consts  --      3.4726                 0.6822                 0.6990
 IR Inten    --    212.1798                66.8800                17.1875

                     40                     41                     42
                      A                      A                      A
 Frequencies --    863.4672               940.8865               970.0089
 Red. masses --      8.3409                 6.4947                 1.3001
 Frc consts  --      3.6640                 3.3875                 0.7207
 IR Inten    --     17.7570               119.8918                 0.0126

                     43                     44                     45
                      A                      A                      A
 Frequencies --    974.9581               985.9417              1040.9319
 Red. masses --      1.3199                 7.0870                 3.1628
 Frc consts  --      0.7392                 4.0590                 2.0191
 IR Inten    --      0.0062                28.1158                40.2718

                     46                     47                     48
                      A                      A                      A
 Frequencies --   1107.6152              1166.7472              1187.9716
 Red. masses --      2.6626                 1.7082                 1.3377
 Frc consts  --      1.9246                 1.3700                 1.1123
 IR Inten    --    262.5985                10.8298               486.5322

                     49                     50                     51
                      A                      A                      A
 Frequencies --   1203.8578              1222.2183              1232.5472
 Red. masses --      1.5110                 1.6646                 3.0476
 Frc consts  --      1.2902                 1.4651                 2.7279
 IR Inten    --    197.0115                33.2665               907.2953

                     52                     53                     54
                      A                      A                      A
 Frequencies --   1259.3660              1295.7820              1298.1474
 Red. masses --      3.0692                 3.7701                 4.9067
 Frc consts  --      2.8680                 3.7296                 4.8718
 IR Inten    --    824.9063              1456.8519               456.6892

                     55                     56                     57
                      A                      A                      A
 Frequencies --   1307.0799              1334.2886              1341.5658
 Red. masses --      2.4173                 2.5295                 3.0265
 Frc consts  --      2.4333                 2.6533                 3.2094
 IR Inten    --    170.0976                 9.3641               174.2430

                     58                     59                     60
                      A                      A                      A
 Frequencies --   1399.8578              1411.0111              1422.8839
 Red. masses --      3.5953                 5.4538                 3.0495
 Frc consts  --      4.1510                 6.3975                 3.6376
 IR Inten    --     36.1724               153.2942                23.2777

                     61                     62                     63
                      A                      A                      A
 Frequencies --   1462.3412              1474.9377              1486.2147
 Red. masses --      3.8504                 3.5507                 2.4817
 Frc consts  --      4.8513                 4.5510                 3.2297
 IR Inten    --    464.3560               164.2089               728.8152

                     64                     65                     66
                      A                      A                      A
 Frequencies --   1513.8538              1591.4741              1607.2526
 Red. masses --      3.6431                 4.8822                 4.7664
 Frc consts  --      4.9191                 7.2855                 7.2546
 IR Inten    --      8.9243                37.0347                91.9382

                     67                     68                     69
                      A                      A                      A
 Frequencies --   1616.9483              1635.3865              1644.8495
 Red. masses --      3.5096                 6.0032                 8.7658
 Frc consts  --      5.4063                 9.4596                13.9732
 IR Inten    --    385.9366                66.4414               575.2059

                     70                     71                     72
                      A                      A                      A
 Frequencies --   1692.1866              3171.5226              3192.4125
 Red. masses --      9.0592                 1.0903                 1.0903
 Frc consts  --     15.2839                 6.4612                 6.5467
 IR Inten    --    149.9143                10.9656                 8.6683

                     73                     74                     75
                      A                      A                      A
 Frequencies --   3202.9340              3212.4116              3313.6799
 Red. masses --      1.0943                 1.0929                 1.0669
 Frc consts  --      6.6143                 6.6449                 6.9024
 IR Inten    --      4.4782                 3.8256               748.2828

                     76                     77                     78
                      A                      A                      A
 Frequencies --   3352.6367              3748.2485              3792.3278
 Red. masses --      1.0681                 1.0657                 1.0663
 Frc consts  --      7.0735                 8.8212                 9.0351
 IR Inten    --    244.0409               238.1185               208.6783

 - Thermochemistry -
 -------------------
 Temperature   298.150 Kelvin.  Pressure   1.00000 Atm.
 Atom     1 has atomic number  8 and mass  15.99491

 Molecular mass:   272.03209 amu.
 Principal axes and moments of inertia in atomic units:
                           1         2         3
     Eigenvalues --  2867.832466707.107439574.81687
           X            0.98892   0.14826   0.00733
           Y           -0.14776   0.98791  -0.04687
           Z           -0.01420   0.04527   0.99887
 This molecule is an asymmetric top.
 Rotational symmetry number  1.
 Warning -- assumption of classical behavior for rotation
           may cause significant error
 Rotational temperatures (Kelvin)      0.03020     0.01291     0.00905
 Rotational constants (GHZ):           0.62930     0.26908     0.18849
 Zero-point vibrational energy     514764.8 (Joules/Mol)
                                  123.03173 (Kcal/Mol)
 Warning -- explicit consideration of  27 degrees of freedom as
           vibrations may cause significant error
 Vibrational temperatures:     32.88    87.98   134.13   178.39   211.67
          (Kelvin)            264.33   272.94   370.55   393.08   446.00
                              476.46   488.67   515.11   523.48   574.44
                              591.30   602.85   649.61   654.81   663.09
                              679.18   700.35   711.04   750.68   816.44
                              849.58   853.53   914.03   986.18  1016.34
                             1019.12  1032.06  1067.94  1076.26  1102.21
                             1118.58  1169.87  1217.18  1236.97  1242.34
                             1353.73  1395.63  1402.75  1418.55  1497.67
                             1593.61  1678.69  1709.23  1732.08  1758.50
                             1773.36  1811.95  1864.34  1867.74  1880.60
                             1919.74  1930.21  2014.08  2030.13  2047.21
                             2103.98  2122.11  2138.33  2178.10  2289.78
                             2312.48  2326.43  2352.96  2366.57  2434.68
                             4563.11  4593.17  4608.31  4621.94  4767.65
                             4823.70  5392.89  5456.31

 Zero-point correction=                           0.196064 (Hartree/Particle)
 Thermal correction to Energy=                    0.211393
 Thermal correction to Enthalpy=                  0.212337
 Thermal correction to Gibbs Free Energy=         0.153492
 Sum of electronic and zero-point Energies=           -989.778923
 Sum of electronic and thermal Energies=              -989.763594
 Sum of electronic and thermal Enthalpies=            -989.762650
 Sum of electronic and thermal Free Energies=         -989.821495

                     E (Thermal)             CV                S
                      KCal/Mol        Cal/Mol-Kelvin    Cal/Mol-Kelvin
 Total                  132.651             62.023            123.850
 Electronic               0.000              0.000              0.000
 Translational            0.889              2.981             42.701
 Rotational               0.889              2.981             33.576
 Vibrational            130.873             56.062             47.573
 Vibration     1          0.593              1.985              6.369
 Vibration     2          0.597              1.973              4.420
 Vibration     3          0.602              1.954              3.591
 Vibration     4          0.610              1.929              3.037
 Vibration     5          0.617              1.906              2.709
 Vibration     6          0.631              1.862              2.290
 Vibration     7          0.633              1.854              2.231
 Vibration     8          0.667              1.750              1.678
 Vibration     9          0.676              1.723              1.576
 Vibration    10          0.699              1.655              1.362
 Vibration    11          0.714              1.613              1.254
 Vibration    12          0.720              1.596              1.214
 Vibration    13          0.733              1.559              1.131
 Vibration    14          0.737              1.547              1.106
 Vibration    15          0.765              1.472              0.965
 Vibration    16          0.775              1.446              0.923
 Vibration    17          0.782              1.429              0.895
 Vibration    18          0.810              1.358              0.791
 Vibration    19          0.813              1.350              0.780
 Vibration    20          0.819              1.337              0.764
 Vibration    21          0.829              1.312              0.732
 Vibration    22          0.843              1.279              0.692
 Vibration    23          0.850              1.263              0.673
 Vibration    24          0.877              1.202              0.606
 Vibration    25          0.923              1.102              0.509
 Vibration    26          0.948              1.052              0.466
 Vibration    27          0.951              1.046              0.461

                           ! Non-Optimized Parameters !
 Normal termination of Gaussian 16 at Sat Feb 10 23:21:44 2024.
