 Q-Chem 5.4, Q-Chem, Inc., Pleasanton, CA (2021)
 Q-Chem 5.4.0 for Intel X86 EM64T Linux

User input:
--------------------------------------------------------------
$molecule
0 1
C                 -3.2616290000      3.6623860000      0.0827750000
C                 -4.5063210000      3.0250390000      0.0878230000
C                 -4.5717330000      1.6241390000      0.0641930000
C                 -2.0916170000      2.9137040000      0.0544360000
C                 -2.1481150000      1.5046890000      0.0305400000
C                 -3.3969530000      0.8819010000      0.0359050000
C                 -0.7817220000      3.6341170000      0.0499280000
C                  0.4570130000      2.7977970000      0.0194820000
C                  0.3846150000      1.3895040000     -0.0041560000
C                 -0.9171240000      0.6732790000      0.0000700000
C                  1.6905290000      3.4370710000      0.0147960000
C                  2.8718480000      2.6892780000     -0.0134550000
C                  2.8090740000      1.2882570000     -0.0371240000
C                  1.5713970000      0.6558470000     -0.0322410000
O                 -0.7260940000      4.8517410000      0.0706470000
O                 -0.9729810000     -0.5495080000     -0.0204350000
H                 -3.4314460000     -0.2005770000      0.0174660000
H                  1.5068550000     -0.4252580000     -0.0502980000
H                 -3.2090260000      4.7434240000      0.1009670000
H                  1.7369000000      4.5183960000      0.0330690000
O                  4.0243550000      3.4050050000     -0.0158350000
C                  5.2684050000      2.7115550000     -0.0429010000
O                 -5.5886780000      3.8425090000      0.1162810000
H                  3.7106200000      0.6910600000     -0.0591830000
H                  6.0352620000      3.4836680000     -0.0388120000
H                  5.3665330000      2.1064020000     -0.9498660000
H                  5.3881640000      2.0754020000      0.8399270000
C                 -6.8909120000      3.2650770000      0.1213810000
H                 -5.5240460000      1.1113210000      0.0676800000
H                 -7.5840290000      4.1037120000      0.1442700000
H                 -7.0456600000      2.6411770000      1.0075140000
H                 -7.0665990000      2.6726750000     -0.7822840000
$end

$rem
BASIS  =  6-311++G(d,p)
GUI  =  2
JOB_TYPE  =  SP
METHOD  =  B3LYP
SCF_CONVERGENCE  = 8
SOLVENT_METHOD = sm12
$end

$smx
solvent dimethylformamide
charges CM5
$end

--------------------------------------------------------------

             Standard Nuclear Orientation (Angstroms)
    I     Atom           X                Y                Z
 ----------------------------------------------------------------
    1      C      -3.2616290000     3.6623860000     0.0827750000
    2      C      -4.5063210000     3.0250390000     0.0878230000
    3      C      -4.5717330000     1.6241390000     0.0641930000
    4      C      -2.0916170000     2.9137040000     0.0544360000
    5      C      -2.1481150000     1.5046890000     0.0305400000
    6      C      -3.3969530000     0.8819010000     0.0359050000
    7      C      -0.7817220000     3.6341170000     0.0499280000
    8      C       0.4570130000     2.7977970000     0.0194820000
    9      C       0.3846150000     1.3895040000    -0.0041560000
   10      C      -0.9171240000     0.6732790000     0.0000700000
   11      C       1.6905290000     3.4370710000     0.0147960000
   12      C       2.8718480000     2.6892780000    -0.0134550000
   13      C       2.8090740000     1.2882570000    -0.0371240000
   14      C       1.5713970000     0.6558470000    -0.0322410000
   15      O      -0.7260940000     4.8517410000     0.0706470000
   16      O      -0.9729810000    -0.5495080000    -0.0204350000
   17      H      -3.4314460000    -0.2005770000     0.0174660000
   18      H       1.5068550000    -0.4252580000    -0.0502980000
   19      H      -3.2090260000     4.7434240000     0.1009670000
   20      H       1.7369000000     4.5183960000     0.0330690000
   21      O       4.0243550000     3.4050050000    -0.0158350000
   22      C       5.2684050000     2.7115550000    -0.0429010000
   23      O      -5.5886780000     3.8425090000     0.1162810000
   24      H       3.7106200000     0.6910600000    -0.0591830000
   25      H       6.0352620000     3.4836680000    -0.0388120000
   26      H       5.3665330000     2.1064020000    -0.9498660000
   27      H       5.3881640000     2.0754020000     0.8399270000
   28      C      -6.8909120000     3.2650770000     0.1213810000
   29      H      -5.5240460000     1.1113210000     0.0676800000
   30      H      -7.5840290000     4.1037120000     0.1442700000
   31      H      -7.0456600000     2.6411770000     1.0075140000
   32      H      -7.0665990000     2.6726750000    -0.7822840000
 ----------------------------------------------------------------

   15    -918.0671038771      4.32e-09  Convergence criterion met
 Total energy in the final basis set =     -918.0920890806

                    Orbital Energies (a.u.)
 --------------------------------------------------------------

 Alpha MOs
 -- Occupied --
-19.1681 -19.1680 -19.1288 -19.1178 -10.2810 -10.2725 -10.2597 -10.2597
-10.2209 -10.2209 -10.2086 -10.2086 -10.1991 -10.1991 -10.1984 -10.1983
-10.1959 -10.1959 -10.1932 -10.1931  -1.0842  -1.0841  -1.0636  -1.0522
 -0.8907  -0.8794  -0.8097  -0.7834  -0.7823  -0.7705  -0.7236  -0.7114
 -0.6805  -0.6569  -0.6291  -0.6192  -0.5867  -0.5627  -0.5589  -0.5217
 -0.5209  -0.5138  -0.4935  -0.4773  -0.4762  -0.4704  -0.4628  -0.4527
 -0.4525  -0.4502  -0.4487  -0.4281  -0.4206  -0.4174  -0.4139  -0.4035
 -0.3978  -0.3848  -0.3813  -0.3788  -0.3440  -0.3429  -0.3399  -0.3311
 -0.2830  -0.2829  -0.2805  -0.2695  -0.2517  -0.2427

          Ground-State Mulliken Net Atomic Charges

     Atom                 Charge (a.u.)
  ----------------------------------------
      1 C                    -0.567297
      2 C                    -0.035229
      3 C                     1.517933
      4 C                    -0.216028
      5 C                    -0.571395
      6 C                     0.224976
      7 C                    -1.332030
      8 C                    -0.212406
      9 C                    -0.572205
     10 C                    -1.293759
     11 C                    -0.569928
     12 C                    -0.047812
     13 C                     1.517245
     14 C                     0.225375
     15 O                    -0.253937
     16 O                    -0.277506
     17 H                     0.200627
     18 H                     0.200499
     19 H                     0.173118
     20 H                     0.173000
     21 O                    -0.172970
     22 C                    -0.057131
     23 O                    -0.174082
     24 H                     0.414203
     25 H                     0.240137
     26 H                     0.217035
     27 H                     0.217032
     28 C                    -0.055962
     29 H                     0.414230
     30 H                     0.240167
     31 H                     0.217074
     32 H                     0.217027
  ----------------------------------------
  Sum of atomic charges =     0.000000

                    Cartesian Multipole Moments
 -----------------------------------------------------------------
    Charge (ESU x 10^10)
                 0.0000
    Dipole Moment (Debye)
         X      -0.0701      Y      -1.4086      Z      -0.0246
       Tot       1.4106
    Quadrupole Moments (Debye-Ang)
        XX     -46.9099     XY      -2.9186     YY    -139.9242
        XZ      -0.9355     YZ      -0.3239     ZZ    -117.4702

 Total job time:  826.78s(wall), 6417.56s(cpu)
        *  Thank you very much for using Q-Chem.  Have a nice day.  *
