 Gaussian 16, Revision A.03,
 Gaussian 16:  ES64L-G16RevA.03 25-Dec-2016

 --------------------------------------
 #P UB3LYP/6-311++G(d,p) nosym opt freq
 --------------------------------------

 --------
 Oxidized
 --------
 Symbolic Z-matrix:
 Charge =  0 Multiplicity = 1

 SCF Done:  E(UB3LYP) =  -918.070135404     A.U. after   15 cycles
 SCF Done:  E(UB3LYP) =  -918.070135346     A.U. after    9 cycles
 SCF Done:  E(UB3LYP) =  -918.070135460     A.U. after    8 cycles
 Optimization completed.
    -- Stationary point found.
 Normal termination of Gaussian 16 at Wed Dec 27 19:57:09 2023.

 ----------------------------------------------------------------------
 #P Geom=AllCheck Guess=TCheck SCRF=Check GenChk UB3LYP/6-311++G(d,p) F
 req
 ----------------------------------------------------------------------

 Structure from the checkpoint file:  "142.chk"
 --------
 Oxidized
 --------
 Charge =  0 Multiplicity = 1

                          Input orientation:
 ---------------------------------------------------------------------
 Center     Atomic      Atomic             Coordinates (Angstroms)
 Number     Number       Type             X           Y           Z
 ---------------------------------------------------------------------
      1          6           0       -3.261629    3.662386    0.082775
      2          6           0       -4.506321    3.025039    0.087823
      3          6           0       -4.571733    1.624139    0.064193
      4          6           0       -2.091617    2.913704    0.054436
      5          6           0       -2.148115    1.504689    0.030540
      6          6           0       -3.396953    0.881901    0.035905
      7          6           0       -0.781722    3.634117    0.049928
      8          6           0        0.457013    2.797797    0.019482
      9          6           0        0.384615    1.389504   -0.004156
     10          6           0       -0.917124    0.673279    0.000070
     11          6           0        1.690529    3.437071    0.014796
     12          6           0        2.871848    2.689278   -0.013455
     13          6           0        2.809074    1.288257   -0.037124
     14          6           0        1.571397    0.655847   -0.032241
     15          8           0       -0.726094    4.851741    0.070647
     16          8           0       -0.972981   -0.549508   -0.020435
     17          1           0       -3.431446   -0.200577    0.017466
     18          1           0        1.506855   -0.425258   -0.050298
     19          1           0       -3.209026    4.743424    0.100967
     20          1           0        1.736900    4.518396    0.033069
     21          8           0        4.024355    3.405005   -0.015835
     22          6           0        5.268405    2.711555   -0.042901
     23          8           0       -5.588678    3.842509    0.116281
     24          1           0        3.710620    0.691060   -0.059183
     25          1           0        6.035262    3.483668   -0.038812
     26          1           0        5.366533    2.106402   -0.949866
     27          1           0        5.388164    2.075402    0.839927
     28          6           0       -6.890912    3.265077    0.121381
     29          1           0       -5.524046    1.111321    0.067680
     30          1           0       -7.584029    4.103712    0.144270
     31          1           0       -7.045660    2.641177    1.007514
     32          1           0       -7.066599    2.672675   -0.782284
 ---------------------------------------------------------------------

 SCF Done:  E(UB3LYP) =  -918.070135460     A.U. after    2 cycles

 Alpha  occ. eigenvalues --  -19.17545 -19.17545 -19.12173 -19.11166 -10.27403
 Alpha  occ. eigenvalues --  -10.26651 -10.26020 -10.26020 -10.24147 -10.24147
 Alpha  occ. eigenvalues --  -10.20467 -10.20466 -10.19757 -10.19757 -10.19666
 Alpha  occ. eigenvalues --  -10.19666 -10.19564 -10.19563 -10.19034 -10.19034
 Alpha  occ. eigenvalues --   -1.09165  -1.09164  -1.05602  -1.04531  -0.88855
 Alpha  occ. eigenvalues --   -0.87782  -0.80904  -0.78324  -0.78304  -0.77115
 Alpha  occ. eigenvalues --   -0.73185  -0.72051  -0.67968  -0.65841  -0.63079
 Alpha  occ. eigenvalues --   -0.61913  -0.58478  -0.56558  -0.56452  -0.52526
 Alpha  occ. eigenvalues --   -0.52467  -0.51361  -0.49539  -0.49087  -0.49057
 Alpha  occ. eigenvalues --   -0.47558  -0.46067  -0.44988  -0.44808  -0.44572
 Alpha  occ. eigenvalues --   -0.44412  -0.43979  -0.42677  -0.41856  -0.40601
 Alpha  occ. eigenvalues --   -0.40418  -0.40303  -0.38781  -0.38653  -0.38059
 Alpha  occ. eigenvalues --   -0.35181  -0.34956  -0.34527  -0.33194  -0.28010
 Alpha  occ. eigenvalues --   -0.27845  -0.27509  -0.26237  -0.25101  -0.24383
 Alpha virt. eigenvalues --   -0.10529  -0.06779  -0.02758  -0.01812  -0.01476
 Alpha virt. eigenvalues --   -0.01369   0.00839   0.01075   0.01222   0.02180
 Alpha virt. eigenvalues --    0.02377   0.02551   0.03249   0.03734   0.03941

  Beta  occ. eigenvalues --  -19.17545 -19.17545 -19.12173 -19.11166 -10.27403
  Beta  occ. eigenvalues --  -10.26651 -10.26020 -10.26020 -10.24147 -10.24147
  Beta  occ. eigenvalues --  -10.20467 -10.20466 -10.19757 -10.19757 -10.19666
  Beta  occ. eigenvalues --  -10.19666 -10.19564 -10.19563 -10.19034 -10.19034
  Beta  occ. eigenvalues --   -1.09165  -1.09164  -1.05602  -1.04531  -0.88855
  Beta  occ. eigenvalues --   -0.87782  -0.80904  -0.78324  -0.78304  -0.77115
  Beta  occ. eigenvalues --   -0.73185  -0.72051  -0.67968  -0.65841  -0.63079
  Beta  occ. eigenvalues --   -0.61913  -0.58478  -0.56558  -0.56452  -0.52526
  Beta  occ. eigenvalues --   -0.52467  -0.51361  -0.49539  -0.49087  -0.49057
  Beta  occ. eigenvalues --   -0.47558  -0.46067  -0.44988  -0.44808  -0.44572
  Beta  occ. eigenvalues --   -0.44412  -0.43979  -0.42677  -0.41856  -0.40601
  Beta  occ. eigenvalues --   -0.40418  -0.40303  -0.38781  -0.38653  -0.38059
  Beta  occ. eigenvalues --   -0.35181  -0.34956  -0.34527  -0.33194  -0.28010
  Beta  occ. eigenvalues --   -0.27845  -0.27509  -0.26237  -0.25101  -0.24383
  Beta virt. eigenvalues --   -0.10529  -0.06779  -0.02758  -0.01812  -0.01476
  Beta virt. eigenvalues --   -0.01369   0.00839   0.01075   0.01222   0.02180
  Beta virt. eigenvalues --    0.02377   0.02551   0.03249   0.03734   0.03941

 Mulliken charges and spin densities:
               1          2
     1  C   -0.472878  -0.000000
     2  C   -0.770702   0.000000
     3  C    0.137995   0.000000
     4  C    0.848732  -0.000000
     5  C    0.523441   0.000000
     6  C    0.079033   0.000000
     7  C   -0.862197  -0.000000
     8  C    0.848400  -0.000000
     9  C    0.523710   0.000000
    10  C   -0.598107  -0.000000
    11  C   -0.472976   0.000000
    12  C   -0.770712  -0.000000
    13  C    0.137864  -0.000000
    14  C    0.079179   0.000000
    15  O   -0.200873  -0.000000
    16  O   -0.234861   0.000000
    17  H    0.187020  -0.000000
    18  H    0.187018  -0.000000
    19  H    0.202968   0.000000
    20  H    0.202965   0.000000
    21  O   -0.149445  -0.000000
    22  C   -0.335976  -0.000000
    23  O   -0.149469   0.000000
    24  H    0.195073   0.000000
    25  H    0.188770  -0.000000
    26  H    0.157038   0.000000
    27  H    0.157038   0.000000
    28  C   -0.335962  -0.000000
    29  H    0.195071   0.000000
    30  H    0.188766  -0.000000
    31  H    0.157046   0.000000
    32  H    0.157030   0.000000
 Sum of Mulliken charges =  -0.00000   0.00000

 Dipole moment (field-independent basis, Debye):
    X=             -0.0555    Y=             -1.2123    Z=             -0.0211  Tot=              1.2137
 Quadrupole moment (field-independent basis, Debye-Ang):
   XX=            -60.8891   YY=           -137.6226   ZZ=           -117.4621
   XY=             -2.3504   XZ=             -0.7497   YZ=             -0.2969

  Exact polarizability: 343.710  -6.165 208.005  -3.194   1.901 103.693
 Approx polarizability: 447.936  -1.643 410.741  -3.676   4.308 165.612

                      1                      2                      3
                      A                      A                      A
 Frequencies --     27.7600                69.5450                76.9781
 Red. masses --      5.6080                 3.5338                 4.1182
 Frc consts  --      0.0025                 0.0101                 0.0144
 IR Inten    --      5.5519                 0.0000                 0.3990

                      4                      5                      6
                      A                      A                      A
 Frequencies --     88.9912               105.9771               123.7991
 Red. masses --      3.8338                 5.6098                 4.7264
 Frc consts  --      0.0179                 0.0371                 0.0427
 IR Inten    --      0.0001                 5.8365                 2.3037

                      7                      8                      9
                      A                      A                      A
 Frequencies --    153.4498               187.6517               192.4159
 Red. masses --      6.7654                 5.0726                 4.6966
 Frc consts  --      0.0939                 0.1052                 0.1025
 IR Inten    --      6.2126                 0.0000                 1.8458

                     10                     11                     12
                      A                      A                      A
 Frequencies --    218.1751               225.5736               256.4801
 Red. masses --      1.2459                 1.1501                 4.3728
 Frc consts  --      0.0349                 0.0345                 0.1695
 IR Inten    --      0.0082                 0.0000                 0.1172

                     13                     14                     15
                      A                      A                      A
 Frequencies --    284.1325               304.1016               309.5168
 Red. masses --      3.4377                 5.1591                 4.6168
 Frc consts  --      0.1635                 0.2811                 0.2606
 IR Inten    --      2.2218                 1.4132                 6.5783

                     16                     17                     18
                      A                      A                      A
 Frequencies --    324.9181               349.1725               409.0763
 Red. masses --      4.7675                10.4121                 9.0160
 Frc consts  --      0.2965                 0.7479                 0.8889
 IR Inten    --      0.0000                 3.0701                19.4632

                     19                     20                     21
                      A                      A                      A
 Frequencies --    426.4649               450.1364               460.0119
 Red. masses --      3.7157                 3.2357                 9.7412
 Frc consts  --      0.3982                 0.3863                 1.2145
 IR Inten    --      0.2966                 0.0000                 0.6965

                     22                     23                     24
                      A                      A                      A
 Frequencies --    498.3734               517.4747               526.2645
 Red. masses --      5.9158                 5.2287                 4.5987
 Frc consts  --      0.8657                 0.8249                 0.7504
 IR Inten    --      1.0540                 5.1610                 0.7097

                     25                     26                     27
                      A                      A                      A
 Frequencies --    585.2314               594.7393               626.0459
 Red. masses --      4.4627                 6.6294                 4.8276
 Frc consts  --      0.9005                 1.3816                 1.1148
 IR Inten    --      0.0000                46.3471                 6.0149

                     28                     29                     30
                      A                      A                      A
 Frequencies --    663.1546               674.7969               713.1798
 Red. masses --      7.8724                 3.1245                 6.6746
 Frc consts  --      2.0398                 0.8382                 2.0002
 IR Inten    --      0.1189                16.0664                 0.9240

                     31                     32                     33
                      A                      A                      A
 Frequencies --    716.7724               718.3396               761.1864
 Red. masses --      6.9094                 4.0699                 6.1574
 Frc consts  --      2.0915                 1.2374                 2.1020
 IR Inten    --     12.0619                 0.0003                39.4249

                     34                     35                     36
                      A                      A                      A
 Frequencies --    790.3593               793.7219               837.3526
 Red. masses --      5.1461                 6.2549                 1.4309
 Frc consts  --      1.8940                 2.3217                 0.5911
 IR Inten    --      0.4210                30.6779                 0.0002

                     37                     38                     39
                      A                      A                      A
 Frequencies --    850.5513               904.5578               917.5238
 Red. masses --      1.6743                 5.4308                 1.4041
 Frc consts  --      0.7136                 2.6181                 0.6964
 IR Inten    --     38.9324                11.3988                 0.0020

                     40                     41                     42
                      A                      A                      A
 Frequencies --    926.8363               947.7508               985.5226
 Red. masses --      1.4885                 7.4508                 1.3182
 Frc consts  --      0.7534                 3.9431                 0.7543
 IR Inten    --     24.0595                84.8902                 0.0007

                     43                     44                     45
                      A                      A                      A
 Frequencies --    990.6182              1004.4788              1053.8912
 Red. masses --      1.3569                 3.9690                 3.1725
 Frc consts  --      0.7845                 2.3594                 2.0761
 IR Inten    --      4.7075               121.8708                15.1693

                     46                     47                     48
                      A                      A                      A
 Frequencies --   1056.2827              1108.9709              1133.6281
 Red. masses --      2.6467                 4.0862                 1.7332
 Frc consts  --      1.7399                 2.9608                 1.3123
 IR Inten    --     59.2312                 3.6597               119.6950

                     49                     50                     51
                      A                      A                      A
 Frequencies --   1160.9355              1166.5297              1166.6199
 Red. masses --      1.5342                 1.2728                 1.2729
 Frc consts  --      1.2182                 1.0205                 1.0207
 IR Inten    --      4.4813                 0.2705                 1.1323

                     52                     53                     54
                      A                      A                      A
 Frequencies --   1195.8481              1196.9261              1207.4380
 Red. masses --      1.5477                 2.1469                 1.4532
 Frc consts  --      1.3040                 1.8122                 1.2483
 IR Inten    --     34.1733                 3.3899                 4.9062

                     55                     56                     57
                      A                      A                      A
 Frequencies --   1233.4235              1244.8839              1263.8865
 Red. masses --      1.6323                 2.8510                 1.9805
 Frc consts  --      1.4631                 2.6032                 1.8639
 IR Inten    --     37.1015                72.1387                29.7609

                     58                     59                     60
                      A                      A                      A
 Frequencies --   1303.4690              1306.1060              1317.2054
 Red. masses --      2.6985                 7.1185                 2.2233
 Frc consts  --      2.7013                 7.1547                 2.2728
 IR Inten    --     35.5167              1528.3231                11.6331

                     61                     62                     63
                      A                      A                      A
 Frequencies --   1359.0633              1364.6242              1454.9246
 Red. masses --      8.1881                 9.7193                 3.8321
 Frc consts  --      8.9107                10.6638                 4.7794
 IR Inten    --    242.5002                 2.4917                 1.2184

                     64                     65                     66
                      A                      A                      A
 Frequencies --   1462.7752              1474.9077              1475.2153
 Red. masses --      4.0178                 1.2632                 1.2348
 Frc consts  --      5.0651                 1.6190                 1.5833
 IR Inten    --    105.5290                 1.5448                 9.1675

                     67                     68                     69
                      A                      A                      A
 Frequencies --   1493.8728              1494.1360              1502.9424
 Red. masses --      1.0454                 1.0454                 1.0630
 Frc consts  --      1.3746                 1.3750                 1.4147
 IR Inten    --      7.1014                13.2244                49.7064

                     70                     71                     72
                      A                      A                      A
 Frequencies --   1503.1669              1515.9870              1523.3041
 Red. masses --      1.0584                 2.9729                 2.7957
 Frc consts  --      1.4090                 4.0255                 3.8222
 IR Inten    --     19.4300                43.9810                 7.5062

                     73                     74                     75
                      A                      A                      A
 Frequencies --   1597.2502              1605.8541              1629.1410
 Red. masses --      6.6028                 8.1837                 6.4385
 Frc consts  --      9.9248                12.4341                10.0682
 IR Inten    --     62.3784                 0.0112               289.1708

                     76                     77                     78
                      A                      A                      A
 Frequencies --   1633.9253              1707.8059              1730.9575
 Red. masses --      6.1676                12.2155                12.2259
 Frc consts  --      9.7013                20.9913                21.5827
 IR Inten    --    275.0071                79.4499               217.9572

                     79                     80                     81
                      A                      A                      A
 Frequencies --   3010.9842              3011.1769              3073.2773
 Red. masses --      1.0343                 1.0343                 1.1066
 Frc consts  --      5.5245                 5.5255                 6.1580
 IR Inten    --    108.4244                14.6812                23.6918

                     82                     83                     84
                      A                      A                      A
 Frequencies --   3073.3443              3140.9821              3141.0542
 Red. masses --      1.1066                 1.0997                 1.0997
 Frc consts  --      6.1582                 6.3923                 6.3926
 IR Inten    --     39.8240                21.6102                16.9260

                     85                     86                     87
                      A                      A                      A
 Frequencies --   3192.5751              3192.8302              3207.0396
 Red. masses --      1.0882                 1.0883                 1.0910
 Frc consts  --      6.5351                 6.5368                 6.6111
 IR Inten    --      0.6877                 0.0024                10.1241

                     88                     89                     90
                      A                      A                      A
 Frequencies --   3207.4863              3208.5810              3208.7770
 Red. masses --      1.0912                 1.0929                 1.0931
 Frc consts  --      6.6141                 6.6294                 6.6309
 IR Inten    --      2.1869                15.9757                 0.0251

 - Thermochemistry -
 -------------------
 Temperature   298.150 Kelvin.  Pressure   1.00000 Atm.
 Atom     1 has atomic number  6 and mass  12.00000

 Molecular mass:   268.07356 amu.
 Principal axes and moments of inertia in atomic units:
                           1         2         3
     Eigenvalues --  1900.09004********************
           X            0.99887   0.04569   0.01285
           Y           -0.04546   0.99881  -0.01747
           Z           -0.01363   0.01686   0.99976
 This molecule is an asymmetric top.
 Rotational symmetry number  1.
 Warning -- assumption of classical behavior for rotation
           may cause significant error
 Rotational temperatures (Kelvin)      0.04558     0.00814     0.00692
 Rotational constants (GHZ):           0.94982     0.16964     0.14420
 Zero-point vibrational energy     639422.9 (Joules/Mol)
                                  152.82575 (Kcal/Mol)
 Warning -- explicit consideration of  26 degrees of freedom as
           vibrations may cause significant error
 Vibrational temperatures:     39.94   100.06   110.75   128.04   152.48
          (Kelvin)            178.12   220.78   269.99   276.84   313.91
                              324.55   369.02   408.80   437.53   445.33
                              467.48   502.38   588.57   613.59   647.65
                              661.85   717.05   744.53   757.18   842.02
                              855.70   900.74   954.13   970.88  1026.11
                             1031.28  1033.53  1095.18  1137.15  1141.99
                             1204.76  1223.75  1301.46  1320.11  1333.51
                             1363.60  1417.95  1425.28  1445.22  1516.31
                             1519.76  1595.56  1631.04  1670.33  1678.38
                             1678.51  1720.56  1722.11  1737.23  1774.62
                             1791.11  1818.45  1875.40  1879.20  1895.16
                             1955.39  1963.39  2093.31  2104.61  2122.06
                             2122.51  2149.35  2149.73  2162.40  2162.72
                             2181.17  2191.69  2298.09  2310.47  2343.97
                             2350.85  2457.15  2490.46  4332.13  4332.41
                             4421.76  4421.86  4519.17  4519.28  4593.40
                             4593.77  4614.21  4614.86  4616.43  4616.71

 Zero-point correction=                           0.243543 (Hartree/Particle)
 Thermal correction to Energy=                    0.260203
 Thermal correction to Enthalpy=                  0.261147
 Thermal correction to Gibbs Free Energy=         0.198919
 Sum of electronic and zero-point Energies=           -917.826592
 Sum of electronic and thermal Energies=              -917.809933
 Sum of electronic and thermal Enthalpies=            -917.808989
 Sum of electronic and thermal Free Energies=         -917.871217

                     E (Thermal)             CV                S
                      KCal/Mol        Cal/Mol-Kelvin    Cal/Mol-Kelvin
 Total                  163.280             64.335            130.970
 Electronic               0.000              0.000              0.000
 Translational            0.889              2.981             42.657
 Rotational               0.889              2.981             33.892
 Vibrational            161.502             58.374             54.421
 Vibration     1          0.593              1.984              5.983
 Vibration     2          0.598              1.969              4.166
 Vibration     3          0.599              1.965              3.966
 Vibration     4          0.602              1.957              3.682
 Vibration     5          0.605              1.944              3.341
 Vibration     6          0.610              1.929              3.040
 Vibration     7          0.619              1.899              2.629
 Vibration     8          0.632              1.857              2.251
 Vibration     9          0.634              1.850              2.204
 Vibration    10          0.646              1.813              1.974
 Vibration    11          0.650              1.802              1.914
 Vibration    12          0.666              1.752              1.686
 Vibration    13          0.683              1.703              1.509
 Vibration    14          0.695              1.666              1.394
 Vibration    15          0.699              1.656              1.365
 Vibration    16          0.709              1.626              1.285
 Vibration    17          0.726              1.577              1.170
 Vibration    18          0.773              1.451              0.930
 Vibration    19          0.788              1.413              0.870
 Vibration    20          0.809              1.361              0.795
 Vibration    21          0.818              1.339              0.766
 Vibration    22          0.854              1.254              0.662
 Vibration    23          0.872              1.211              0.616
 Vibration    24          0.881              1.192              0.596
 Vibration    25          0.942              1.063              0.476
 Vibration    26          0.952              1.043              0.459

                           ! Non-Optimized Parameters !
 Normal termination of Gaussian 16 at Wed Dec 27 20:47:51 2023.
