 Q-Chem 5.4, Q-Chem, Inc., Pleasanton, CA (2021)
 Q-Chem 5.4.0 for Intel X86 EM64T Linux

User input:
--------------------------------------------------------------
$molecule
-1 1
O                  1.4983470000     -2.8670080000     -0.5590800000
C                  1.4725140000     -1.5447820000     -0.2861230000
C                  2.7329620000     -0.9076580000     -0.1318490000
O                  3.7978400000     -1.7116470000     -0.2826880000
C                  2.8059870000      0.4577190000      0.1402610000
C                  1.6290260000      1.1914760000      0.2613850000
C                  0.3848400000      0.5847150000      0.1216170000
C                 -0.8146170000      1.4355020000      0.2661490000
O                 -0.7495820000      2.6361400000      0.5035140000
C                 -2.1495590000      0.7790120000      0.1091800000
C                 -3.3094450000      1.5522400000      0.2336950000
C                 -4.5602640000      0.9656840000      0.0918280000
C                 -4.6633210000     -0.4032930000     -0.1768170000
C                 -3.5156850000     -1.1758850000     -0.3016090000
C                 -2.2515900000     -0.5921110000     -0.1603130000
C                 -1.0356100000     -1.4654930000     -0.3027790000
O                 -1.1829500000     -2.6579960000     -0.5305680000
C                  0.2844270000     -0.8146310000     -0.1557700000
S                  4.4275750000      1.2617980000      0.4019390000
O                  5.3760950000      0.2222700000     -0.1618830000
O                  4.3970590000      2.5070530000     -0.3798850000
O                  4.5555890000      1.4226170000      1.8609430000
H                  2.4388900000     -3.1065240000     -0.6069070000
H                  4.6192110000     -1.1014690000     -0.2512000000
H                  1.6737890000      2.2541740000      0.4620700000
H                 -3.1979010000      2.6092960000      0.4422470000
H                 -5.4565810000      1.5690790000      0.1892840000
H                 -5.6399630000     -0.8625560000     -0.2877380000
H                 -3.5670830000     -2.2377190000     -0.5089030000
$end

$rem
BASIS  =  6-311++G(d,p)
GUI  =  2
JOB_TYPE  =  SP
METHOD  =  B3LYP
SCF_CONVERGENCE  = 8
SOLVENT_METHOD = sm12
$end

$smx
solvent dimethylformamide
charges CM5
$end

--------------------------------------------------------------

             Standard Nuclear Orientation (Angstroms)
    I     Atom           X                Y                Z
 ----------------------------------------------------------------
    1      O       1.4983470000    -2.8670080000    -0.5590800000
    2      C       1.4725140000    -1.5447820000    -0.2861230000
    3      C       2.7329620000    -0.9076580000    -0.1318490000
    4      O       3.7978400000    -1.7116470000    -0.2826880000
    5      C       2.8059870000     0.4577190000     0.1402610000
    6      C       1.6290260000     1.1914760000     0.2613850000
    7      C       0.3848400000     0.5847150000     0.1216170000
    8      C      -0.8146170000     1.4355020000     0.2661490000
    9      O      -0.7495820000     2.6361400000     0.5035140000
   10      C      -2.1495590000     0.7790120000     0.1091800000
   11      C      -3.3094450000     1.5522400000     0.2336950000
   12      C      -4.5602640000     0.9656840000     0.0918280000
   13      C      -4.6633210000    -0.4032930000    -0.1768170000
   14      C      -3.5156850000    -1.1758850000    -0.3016090000
   15      C      -2.2515900000    -0.5921110000    -0.1603130000
   16      C      -1.0356100000    -1.4654930000    -0.3027790000
   17      O      -1.1829500000    -2.6579960000    -0.5305680000
   18      C       0.2844270000    -0.8146310000    -0.1557700000
   19      S       4.4275750000     1.2617980000     0.4019390000
   20      O       5.3760950000     0.2222700000    -0.1618830000
   21      O       4.3970590000     2.5070530000    -0.3798850000
   22      O       4.5555890000     1.4226170000     1.8609430000
   23      H       2.4388900000    -3.1065240000    -0.6069070000
   24      H       4.6192110000    -1.1014690000    -0.2512000000
   25      H       1.6737890000     2.2541740000     0.4620700000
   26      H      -3.1979010000     2.6092960000     0.4422470000
   27      H      -5.4565810000     1.5690790000     0.1892840000
   28      H      -5.6399630000    -0.8625560000    -0.2877380000
   29      H      -3.5670830000    -2.2377190000    -0.5089030000
 ----------------------------------------------------------------

   16   -1462.8501150446      3.55e-09  Convergence criterion met
 Total energy in the final basis set =    -1462.9472066934

                    Orbital Energies (a.u.)
 --------------------------------------------------------------

 Alpha MOs
 -- Occupied --
-89.0557 -19.1735 -19.1635 -19.1224 -19.1219 -19.1031 -19.0967 -19.0955
-10.2794 -10.2766 -10.2684 -10.2678 -10.2171 -10.2127 -10.2067 -10.2065
-10.2057 -10.2017 -10.1975 -10.1969 -10.1953 -10.1951  -8.1144  -6.0772
 -6.0766  -6.0764  -1.1207  -1.1040  -1.0693  -1.0564  -1.0547  -0.9841
 -0.9814  -0.8923  -0.8807  -0.8135  -0.7803  -0.7753  -0.7672  -0.6997
 -0.6754  -0.6592  -0.6235  -0.6158  -0.6006  -0.5865  -0.5625  -0.5307
 -0.5213  -0.5137  -0.4999  -0.4918  -0.4719  -0.4657  -0.4586  -0.4544
 -0.4520  -0.4513  -0.4485  -0.4433  -0.4388  -0.4192  -0.4144  -0.4011
 -0.3928  -0.3889  -0.3797  -0.3787  -0.3658  -0.3533  -0.3393  -0.3381
 -0.3116  -0.3090  -0.2994  -0.2827  -0.2792  -0.2761  -0.2662  -0.2657
 -0.2623  -0.2403

          Ground-State Mulliken Net Atomic Charges

     Atom                 Charge (a.u.)
  ----------------------------------------
      1 O                    -0.131193
      2 C                    -0.515899
      3 C                    -0.577372
      4 O                    -0.397651
      5 C                    -2.396357
      6 C                    -1.617065
      7 C                    -0.040250
      8 C                    -0.951972
      9 O                    -0.240038
     10 C                     0.218247
     11 C                     0.796201
     12 C                     1.464889
     13 C                     1.457749
     14 C                     0.903687
     15 C                     0.483120
     16 C                    -0.910582
     17 O                    -0.205828
     18 C                     0.255742
     19 S                     0.284670
     20 O                    -0.404556
     21 O                    -0.294532
     22 O                    -0.268407
     23 H                     0.334676
     24 H                     0.445027
     25 H                     0.142189
     26 H                     0.198695
     27 H                     0.380935
     28 H                     0.382542
     29 H                     0.203332
  ----------------------------------------
  Sum of atomic charges =    -1.000000

                    Cartesian Multipole Moments
 -----------------------------------------------------------------
    Charge (ESU x 10^10)
                -4.8032
    Dipole Moment (Debye)
         X     -18.8488      Y      -4.7937      Z      -1.8111
       Tot      19.5330
    Quadrupole Moments (Debye-Ang)
        XX    -205.9391     XY     -30.9703     YY    -166.6973
        XZ      -9.4029     YZ      -5.2331     ZZ    -144.7924

 Total job time:  810.26s(wall), 6270.17s(cpu)
        *  Thank you very much for using Q-Chem.  Have a nice day.  *
