 Gaussian 16, Revision A.03,
 Gaussian 16:  ES64L-G16RevA.03 25-Dec-2016

 ---------------------------------------------------------
 #P UB3LYP/genecp SCRF=(PCM,Solvent=n,n-DiMethylFormamide)
 ---------------------------------------------------------

 ------------------
 Quinone PCM in DMF
 ------------------
 Symbolic Z-matrix:
 Charge =  0 Multiplicity = 1

                         Standard orientation:
 ---------------------------------------------------------------------
 Center     Atomic      Atomic             Coordinates (Angstroms)
 Number     Number       Type             X           Y           Z
 ---------------------------------------------------------------------
      1          6           0       -0.531270   -0.578563   -0.161348
      2          6           0       -1.948304   -0.067713   -0.133833
      3          6           0       -2.168918    1.254066   -0.025942
      4          6           0       -1.078020    2.240618    0.102981
      5          6           0        0.317434    1.736205    0.108284
      6          6           0        0.574422    0.426753   -0.010033
      7          8           0       -0.295862   -1.759927   -0.313103
      8          8           0       -1.306206    3.435714    0.207018
      9          1           0        1.092465    2.485736    0.211083
     10         53           0        2.532480   -0.327225   -0.013691
     11          6           0       -3.035959   -1.117632   -0.222728
     12          6           0       -3.203565   -1.824271    1.141375
     13          6           0       -4.377091   -0.571440   -0.725801
     14          1           0       -3.167592    1.674737   -0.022330
     15          1           0       -2.678344   -1.871208   -0.931303
     16          1           0       -3.551473   -1.118766    1.901768
     17          1           0       -2.266823   -2.268921    1.480568
     18          1           0       -3.943717   -2.624228    1.056695
     19          1           0       -4.828545    0.125408   -0.013279
     20          1           0       -5.081385   -1.395809   -0.861316
     21          1           0       -4.271823   -0.058466   -1.685288
 ---------------------------------------------------------------------

 SCF Done:  E(UB3LYP) =  -796.744177983     A.U. after   16 cycles

 The electronic state is 1-A.
 Alpha  occ. eigenvalues --  -19.15409 -19.14634 -10.30215 -10.29209 -10.25673
 Alpha  occ. eigenvalues --  -10.22520 -10.22046 -10.20857 -10.19573 -10.16736
 Alpha  occ. eigenvalues --  -10.16613  -6.86128  -4.88604  -4.87426  -4.87325
 Alpha  occ. eigenvalues --   -1.93418  -1.93037  -1.92961  -1.91943  -1.91941
 Alpha  occ. eigenvalues --   -1.08830  -1.07628  -0.87800  -0.83415  -0.77861
 Alpha  occ. eigenvalues --   -0.72949  -0.70468  -0.69157  -0.65014  -0.60536
 Alpha  occ. eigenvalues --   -0.57839  -0.53736  -0.51662  -0.48417  -0.47088
 Alpha  occ. eigenvalues --   -0.46173  -0.45437  -0.44389  -0.43576  -0.42987
 Alpha  occ. eigenvalues --   -0.41158  -0.39420  -0.39057  -0.36722  -0.35709
 Alpha  occ. eigenvalues --   -0.34810  -0.33915  -0.30319  -0.29999  -0.28932
 Alpha  occ. eigenvalues --   -0.27572  -0.26839
 Alpha virt. eigenvalues --   -0.14211  -0.04992  -0.03850  -0.01187  -0.00603
 Alpha virt. eigenvalues --    0.00680   0.01257   0.01779   0.02926   0.03614
 Alpha virt. eigenvalues --    0.04341   0.04640   0.05417   0.05609   0.06782

  Beta  occ. eigenvalues --  -19.15409 -19.14634 -10.30215 -10.29209 -10.25673
  Beta  occ. eigenvalues --  -10.22520 -10.22046 -10.20857 -10.19573 -10.16736
  Beta  occ. eigenvalues --  -10.16613  -6.86128  -4.88604  -4.87426  -4.87325
  Beta  occ. eigenvalues --   -1.93418  -1.93037  -1.92961  -1.91943  -1.91941
  Beta  occ. eigenvalues --   -1.08830  -1.07628  -0.87800  -0.83415  -0.77861
  Beta  occ. eigenvalues --   -0.72949  -0.70468  -0.69157  -0.65014  -0.60536
  Beta  occ. eigenvalues --   -0.57839  -0.53736  -0.51662  -0.48417  -0.47088
  Beta  occ. eigenvalues --   -0.46173  -0.45437  -0.44389  -0.43576  -0.42987
  Beta  occ. eigenvalues --   -0.41158  -0.39420  -0.39057  -0.36722  -0.35709
  Beta  occ. eigenvalues --   -0.34810  -0.33915  -0.30319  -0.29999  -0.28932
  Beta  occ. eigenvalues --   -0.27572  -0.26839
  Beta virt. eigenvalues --   -0.14211  -0.04992  -0.03850  -0.01187  -0.00603
  Beta virt. eigenvalues --    0.00680   0.01257   0.01779   0.02926   0.03614
  Beta virt. eigenvalues --    0.04341   0.04640   0.05417   0.05609   0.06782

 Mulliken charges and spin densities:
               1          2
     1  C   -2.227360   0.000000
     2  C    1.555556  -0.000000
     3  C   -0.394268   0.000000
     4  C   -0.347222  -0.000000
     5  C    0.064665   0.000000
     6  C    1.263065  -0.000000
     7  O   -0.173350  -0.000000
     8  O   -0.280698  -0.000000
     9  H    0.226136   0.000000
    10  I   -0.037065   0.000000
    11  C    0.190216   0.000000
    12  C   -0.702179  -0.000000
    13  C   -0.536469  -0.000000
    14  H    0.237687  -0.000000
    15  H    0.213427  -0.000000
    16  H    0.156023   0.000000
    17  H    0.164267  -0.000000
    18  H    0.155424   0.000000
    19  H    0.147747   0.000000
    20  H    0.179984  -0.000000
    21  H    0.144414   0.000000
 Sum of Mulliken charges =  -0.00000  -0.00000

 Dipole moment (field-independent basis, Debye):
    X=             -1.5930    Y=             -1.1500    Z=              0.0296  Tot=              1.9649
 Quadrupole moment (field-independent basis, Debye-Ang):
   XX=            -79.6315   YY=           -110.0082   ZZ=            -91.7929
   XY=              7.3986   XZ=              0.9600   YZ=             -1.7071

 1\1\GINC-ACIDSCN026\SP\UB3LYP\GenECP\C9H9I1O2\SELHAJJ1\22-Jan-2024\0\\
 #P UB3LYP/genecp SCRF=(PCM,Solvent=n,n-DiMethylFormamide)\\Quinone PCM
  in DMF\\0,1\C,0,-1.310517,1.952329,0.558237\C,0,-2.6547,1.341039,0.25
 9563\C,0,-2.713375,0.099218,-0.252147\C,0,-1.509418,-0.693227,-0.57227
 6\C,0,-0.184134,-0.080165,-0.308585\C,0,-0.088503,1.15028,0.212534\O,0
 ,-1.22311,3.049128,1.071519\O,0,-1.590602,-1.816805,-1.043582\H,0,0.67
 7497,-0.685886,-0.561037\I,0,1.765106,2.050961,0.606734\C,0,-3.860708,
 2.206001,0.560582\C,0,-4.036737,3.273049,-0.543333\C,0,-5.153773,1.407

 Normal termination of Gaussian 16 at Mon Jan 22 18:31:36 2024.
