 Gaussian 16, Revision A.03,
 Gaussian 16:  ES64L-G16RevA.03 25-Dec-2016

 --------------------------------------
 #P UB3LYP/6-311++G(d,p) nosym opt freq
 --------------------------------------

 -------
 Reduced
 -------
 Symbolic Z-matrix:
 Charge = -2 Multiplicity = 1

 SCF Done:  E(UB3LYP) =  -764.277763542     A.U. after   50 cycles
 SCF Done:  E(UB3LYP) =  -764.303648645     A.U. after   31 cycles
 SCF Done:  E(UB3LYP) =  -764.306977468     A.U. after   30 cycles
 SCF Done:  E(UB3LYP) =  -764.308984625     A.U. after   39 cycles
 SCF Done:  E(UB3LYP) =  -764.309059569     A.U. after   23 cycles
 SCF Done:  E(UB3LYP) =  -764.309092372     A.U. after   26 cycles
 SCF Done:  E(UB3LYP) =  -764.309108325     A.U. after   29 cycles
 SCF Done:  E(UB3LYP) =  -764.309121575     A.U. after   24 cycles
 SCF Done:  E(UB3LYP) =  -764.309138749     A.U. after   31 cycles
 SCF Done:  E(UB3LYP) =  -764.309148165     A.U. after   25 cycles
 SCF Done:  E(UB3LYP) =  -764.309152027     A.U. after   25 cycles
 SCF Done:  E(UB3LYP) =  -764.309154705     A.U. after   24 cycles
 SCF Done:  E(UB3LYP) =  -764.309156339     A.U. after   24 cycles
 SCF Done:  E(UB3LYP) =  -764.309157838     A.U. after   29 cycles
 SCF Done:  E(UB3LYP) =  -764.309158921     A.U. after   24 cycles
 SCF Done:  E(UB3LYP) =  -764.309159491     A.U. after   25 cycles
 SCF Done:  E(UB3LYP) =  -764.309159575     A.U. after   23 cycles
 SCF Done:  E(UB3LYP) =  -764.309159574     A.U. after   18 cycles
 Optimization completed.
    -- Stationary point found.
 Normal termination of Gaussian 16 at Tue Dec 26 21:42:22 2023.

 ----------------------------------------------------------------------
 #P Geom=AllCheck Guess=TCheck SCRF=Check GenChk UB3LYP/6-311++G(d,p) F
 req
 ----------------------------------------------------------------------

 Structure from the checkpoint file:  "261-an.chk"
 -------
 Reduced
 -------
 Charge = -2 Multiplicity = 1

                          Input orientation:
 ---------------------------------------------------------------------
 Center     Atomic      Atomic             Coordinates (Angstroms)
 Number     Number       Type             X           Y           Z
 ---------------------------------------------------------------------
      1          6           0        2.876167    2.519875   -0.387154
      2          8           0        2.561469    1.158598   -0.251996
      3          6           0        1.236146    0.792703   -0.159633
      4          6           0        0.237103    1.745354   -0.200764
      5          6           0       -1.119567    1.365921   -0.106091
      6          6           0       -1.470401    0.033045   -0.018367
      7          8           0       -2.793236   -0.341627    0.074782
      8          6           0       -3.777644    0.659001    0.078205
      9          6           0       -0.476526   -1.004260   -0.012515
     10          6           0       -0.864580   -2.425783    0.015739
     11          8           0       -2.059577   -2.864974   -0.020231
     12          6           0        0.234824   -3.345709    0.095162
     13          6           0        1.556012   -2.968930    0.131788
     14          6           0        2.008350   -1.607298    0.080781
     15          8           0        3.254836   -1.349480    0.126007
     16          6           0        0.932981   -0.605391   -0.028094
     17          1           0        3.964438    2.571856   -0.478007
     18          1           0        2.565460    3.114650    0.485793
     19          1           0        2.427085    2.975071   -1.284445
     20          1           0        0.469908    2.798705   -0.286736
     21          1           0       -1.871715    2.143807   -0.123341
     22          1           0       -4.734220    0.142798    0.195652
     23          1           0       -3.659116    1.371834    0.909968
     24          1           0       -3.799395    1.234417   -0.860283
     25          1           0       -0.044058   -4.397948    0.128847
     26          1           0        2.345257   -3.716234    0.200607
 ---------------------------------------------------------------------

 SCF Done:  E(UB3LYP) =  -764.309159574     A.U. after   11 cycles

 Alpha  occ. eigenvalues --  -18.91694 -18.91694 -18.79288 -18.79287 -10.01075
 Alpha  occ. eigenvalues --  -10.01074  -9.99332  -9.99331  -9.95764  -9.95763
 Alpha  occ. eigenvalues --   -9.93252  -9.93204  -9.92835  -9.92801  -9.90651
 Alpha  occ. eigenvalues --   -9.90588  -0.83516  -0.83450  -0.71406  -0.71089
 Alpha  occ. eigenvalues --   -0.60691  -0.54614  -0.53074  -0.50810  -0.47903
 Alpha  occ. eigenvalues --   -0.45585  -0.41953  -0.36940  -0.36460  -0.32990
 Alpha  occ. eigenvalues --   -0.29528  -0.27811  -0.25882  -0.25261  -0.25052
 Alpha  occ. eigenvalues --   -0.24863  -0.21465  -0.20568  -0.18974  -0.18349
 Alpha  occ. eigenvalues --   -0.17861  -0.15998  -0.15665  -0.12838  -0.12304
 Alpha  occ. eigenvalues --   -0.11357  -0.11188  -0.10808  -0.10164  -0.09466
 Alpha  occ. eigenvalues --   -0.08268  -0.06105   0.00027   0.00293   0.02641
 Alpha  occ. eigenvalues --    0.03921   0.04047   0.12657
 Alpha virt. eigenvalues --    0.14246   0.14485   0.16744   0.17880   0.18148
 Alpha virt. eigenvalues --    0.18247   0.18867   0.20343   0.20476   0.22420
 Alpha virt. eigenvalues --    0.22722   0.22939   0.23114   0.23687   0.26311

  Beta  occ. eigenvalues --  -18.91694 -18.91694 -18.79288 -18.79287 -10.01075
  Beta  occ. eigenvalues --  -10.01074  -9.99332  -9.99331  -9.95764  -9.95763
  Beta  occ. eigenvalues --   -9.93252  -9.93204  -9.92835  -9.92801  -9.90651
  Beta  occ. eigenvalues --   -9.90588  -0.83516  -0.83450  -0.71406  -0.71089
  Beta  occ. eigenvalues --   -0.60691  -0.54614  -0.53074  -0.50810  -0.47903
  Beta  occ. eigenvalues --   -0.45585  -0.41953  -0.36940  -0.36460  -0.32990
  Beta  occ. eigenvalues --   -0.29528  -0.27811  -0.25882  -0.25261  -0.25052
  Beta  occ. eigenvalues --   -0.24863  -0.21465  -0.20568  -0.18974  -0.18349
  Beta  occ. eigenvalues --   -0.17861  -0.15998  -0.15665  -0.12838  -0.12304
  Beta  occ. eigenvalues --   -0.11357  -0.11188  -0.10808  -0.10164  -0.09466
  Beta  occ. eigenvalues --   -0.08268  -0.06105   0.00027   0.00293   0.02641
  Beta  occ. eigenvalues --    0.03921   0.04047   0.12657
  Beta virt. eigenvalues --    0.14246   0.14485   0.16744   0.17880   0.18148
  Beta virt. eigenvalues --    0.18247   0.18867   0.20343   0.20476   0.22420
  Beta virt. eigenvalues --    0.22722   0.22939   0.23114   0.23687   0.26311

 Mulliken charges and spin densities:
               1          2
     1  C    0.640054   0.000000
     2  O   -0.114955  -0.000000
     3  C    0.053395   0.000000
     4  C   -0.074890  -0.000000
     5  C   -0.077186  -0.000000
     6  C    0.048721   0.000000
     7  O   -0.114924   0.000000
     8  C    0.640065  -0.000000
     9  C    0.015161  -0.000000
    10  C   -0.271910  -0.000000
    11  O   -0.492039   0.000000
    12  C    0.059785   0.000000
    13  C    0.060435   0.000000
    14  C   -0.273202  -0.000000
    15  O   -0.492010  -0.000000
    16  C    0.016266  -0.000000
    17  H   -0.317181  -0.000000
    18  H   -0.036330  -0.000000
    19  H   -0.336661  -0.000000
    20  H   -0.211342  -0.000000
    21  H   -0.211039  -0.000000
    22  H   -0.318169   0.000000
    23  H   -0.335882   0.000000
    24  H   -0.036537   0.000000
    25  H    0.090205  -0.000000
    26  H    0.090171  -0.000000
 Sum of Mulliken charges =  -2.00000  -0.00000

 Dipole moment (field-independent basis, Debye):
    X=             -1.4892    Y=              5.2584    Z=              0.3345  Tot=              5.4754
 Quadrupole moment (field-independent basis, Debye-Ang):
   XX=           -199.9471   YY=           -170.1121   ZZ=           -116.1866
   XY=             -8.7583   XZ=              6.0972   YZ=              4.2716

  Exact polarizability:3995.469 775.8861388.281-415.555-153.233 562.770
 Approx polarizability:4882.103 -39.3214865.422-612.412-417.622 572.734

                      1                      2                      3
                      A                      A                      A
 Frequencies --     25.0131                47.6686                71.3795
 Red. masses --      7.4948                 4.2656                 4.4574
 Frc consts  --      0.0028                 0.0057                 0.0134
 IR Inten    --      0.5344                 8.8155                 4.8895

                      4                      5                      6
                      A                      A                      A
 Frequencies --     76.1876                97.3618               201.1206
 Red. masses --      3.4599                 4.1567                 3.2647
 Frc consts  --      0.0118                 0.0232                 0.0778
 IR Inten    --      3.0707                 1.5538                 0.1984

                      7                      8                      9
                      A                      A                      A
 Frequencies --    206.7358               231.9152               265.0411
 Red. masses --      5.3748                 6.3289                 1.1025
 Frc consts  --      0.1353                 0.2006                 0.0456
 IR Inten    --     89.2944                11.3521                 0.1495

                     10                     11                     12
                      A                      A                      A
 Frequencies --    290.5476               317.3189               337.4654
 Red. masses --      1.1117                 5.6628                 8.3340
 Frc consts  --      0.0553                 0.3359                 0.5592
 IR Inten    --    102.9322                 0.6168                23.8155

                     13                     14                     15
                      A                      A                      A
 Frequencies --    341.1440               353.8125               376.4425
 Red. masses --      6.3309                 3.8034                 8.8986
 Frc consts  --      0.4341                 0.2805                 0.7430
 IR Inten    --      0.2529                 2.7311                11.1338

                     16                     17                     18
                      A                      A                      A
 Frequencies --    392.1443               434.8299               475.2071
 Red. masses --      4.7852                11.0635                 4.4053
 Frc consts  --      0.4336                 1.2325                 0.5861
 IR Inten    --      0.8954               516.5835                 0.6476

                     19                     20                     21
                      A                      A                      A
 Frequencies --    494.7369               527.9832               547.9484
 Red. masses --      6.3760                 5.0530                 2.5064
 Frc consts  --      0.9195                 0.8299                 0.4434
 IR Inten    --     51.3430                 1.6749                23.9665

                     22                     23                     24
                      A                      A                      A
 Frequencies --    640.1683               666.0531               670.4537
 Red. masses --      5.8097                 4.1250                 2.1554
 Frc consts  --      1.4028                 1.0782                 0.5708
 IR Inten    --     22.5293                 4.9173                 5.7311

                     25                     26                     27
                      A                      A                      A
 Frequencies --    675.0372               731.4217               757.1719
 Red. masses --      4.2813                 6.1412                 5.3227
 Frc consts  --      1.1494                 1.9357                 1.7979
 IR Inten    --     53.1515                24.8772                11.8758

                     28                     29                     30
                      A                      A                      A
 Frequencies --    768.9411               784.8479               800.5855
 Red. masses --      1.8194                 4.1073                 1.7264
 Frc consts  --      0.6338                 1.4907                 0.6519
 IR Inten    --     11.7974                 0.4088                 1.3849

                     31                     32                     33
                      A                      A                      A
 Frequencies --    825.0072               874.3340               906.7982
 Red. masses --      2.3127                 7.5896                 1.3028
 Frc consts  --      0.9274                 3.4184                 0.6312
 IR Inten    --     33.8028                14.2134                 4.4055

                     34                     35                     36
                      A                      A                      A
 Frequencies --    921.4611              1048.0958              1084.3674
 Red. masses --      6.4168                 4.8867                 7.6364
 Frc consts  --      3.2101                 3.1628                 5.2904
 IR Inten    --    132.1426               152.2826               917.1633

                     37                     38                     39
                      A                      A                      A
 Frequencies --   1086.0884              1127.9616              1156.8178
 Red. masses --      2.2846                 3.1740                 1.2890
 Frc consts  --      1.5878                 2.3793                 1.0164
 IR Inten    --    615.2295               321.7794                 5.1378

                     40                     41                     42
                      A                      A                      A
 Frequencies --   1158.4880              1163.4919              1183.7042
 Red. masses --      1.2880                 1.5295                 1.6477
 Frc consts  --      1.0185                 1.2199                 1.3602
 IR Inten    --     19.0446               119.6087               146.8237

                     43                     44                     45
                      A                      A                      A
 Frequencies --   1189.5470              1200.6618              1242.8042
 Red. masses --      1.4094                 2.2209                 3.2334
 Frc consts  --      1.1750                 1.8863                 2.9425
 IR Inten    --    589.6477                81.5180              1017.3603

                     46                     47                     48
                      A                      A                      A
 Frequencies --   1244.8686              1284.6884              1299.5233
 Red. masses --      3.8453                 6.3147                 2.0293
 Frc consts  --      3.5110                 6.1404                 2.0191
 IR Inten    --     95.4244                91.2476                98.8475

                     49                     50                     51
                      A                      A                      A
 Frequencies --   1384.6583              1403.2395              1411.5845
 Red. masses --      4.7634                 6.8930                 2.3756
 Frc consts  --      5.3808                 7.9969                 2.7889
 IR Inten    --    328.8044                 8.0923               200.1657

                     52                     53                     54
                      A                      A                      A
 Frequencies --   1436.7627              1456.8383              1460.6277
 Red. masses --     11.1955                 1.1912                 1.1884
 Frc consts  --     13.6165                 1.4896                 1.4937
 IR Inten    --   1655.2921              3475.9519                17.5920

                     55                     56                     57
                      A                      A                      A
 Frequencies --   1474.9647              1478.3295              1494.4284
 Red. masses --      1.0523                 1.0512                 1.0932
 Frc consts  --      1.3489                 1.3536                 1.4385
 IR Inten    --      2.9543               407.1819               440.6100

                     58                     59                     60
                      A                      A                      A
 Frequencies --   1494.6112              1522.1367              1542.9716
 Red. masses --      1.0823                 4.5519                 4.7057
 Frc consts  --      1.4245                 6.2137                 6.6007
 IR Inten    --     58.6661               149.6963                57.5064

                     61                     62                     63
                      A                      A                      A
 Frequencies --   1579.7505              1583.2946              2931.1949
 Red. masses --      6.0620                 4.6021                 1.0388
 Frc consts  --      8.9134                 6.7971                 5.2584
 IR Inten    --   3096.7030               509.4249                26.5059

                     64                     65                     66
                      A                      A                      A
 Frequencies --   2932.3763              2973.1347              2973.6436
 Red. masses --      1.0387                 1.1008                 1.1011
 Frc consts  --      5.2626                 5.7330                 5.7364
 IR Inten    --     17.9354                20.1157                 0.4480

                     67                     68                     69
                      A                      A                      A
 Frequencies --   3066.2090              3066.5729              3094.0884
 Red. masses --      1.0940                 1.0941                 1.0834
 Frc consts  --      6.0599                 6.0618                 6.1108
 IR Inten    --      0.4205                93.7697                 8.6201

                     70                     71                     72
                      A                      A                      A
 Frequencies --   3120.9549              3168.1823              3189.1304
 Red. masses --      1.0933                 1.0854                 1.0915
 Frc consts  --      6.2740                 6.4189                 6.5408
 IR Inten    --    426.2171               564.7668                71.4132

 - Thermochemistry -
 -------------------
 Temperature   298.150 Kelvin.  Pressure   1.00000 Atm.
 Atom     1 has atomic number  6 and mass  12.00000

 Molecular mass:   218.05791 amu.
 Principal axes and moments of inertia in atomic units:
                           1         2         3
     Eigenvalues --  2498.391893608.547806071.82522
           X            0.96198  -0.27247   0.01879
           Y            0.27089   0.96064   0.06164
           Z           -0.03485  -0.05420   0.99792
 This molecule is an asymmetric top.
 Rotational symmetry number  1.
 Warning -- assumption of classical behavior for rotation
           may cause significant error
 Rotational temperatures (Kelvin)      0.03467     0.02400     0.01426
 Rotational constants (GHZ):           0.72236     0.50013     0.29723
 Zero-point vibrational energy     501504.9 (Joules/Mol)
                                  119.86256 (Kcal/Mol)
 Warning -- explicit consideration of  21 degrees of freedom as
           vibrations may cause significant error
 Vibrational temperatures:     35.99    68.58   102.70   109.62   140.08
          (Kelvin)            289.37   297.45   333.67   381.33   418.03
                              456.55   485.54   490.83   509.06   541.62
                              564.21   625.62   683.72   711.82   759.65
                              788.38   921.06   958.30   964.63   971.23
                             1052.35  1089.40  1106.33  1129.22  1151.86
                             1187.00  1257.97  1304.68  1325.78  1507.98
                             1560.16  1562.64  1622.89  1664.40  1666.81
                             1674.01  1703.09  1711.49  1727.48  1788.12
                             1791.09  1848.38  1869.72  1992.21  2018.95
                             2030.96  2067.18  2096.07  2101.52  2122.15
                             2126.99  2150.15  2150.41  2190.02  2219.99
                             2272.91  2278.01  4217.34  4219.04  4277.68
                             4278.41  4411.59  4412.11  4451.70  4490.36
                             4558.31  4588.45

 Zero-point correction=                           0.191013 (Hartree/Particle)
 Thermal correction to Energy=                    0.205235
 Thermal correction to Enthalpy=                  0.206179
 Thermal correction to Gibbs Free Energy=         0.148852
 Sum of electronic and zero-point Energies=           -764.118146
 Sum of electronic and thermal Energies=              -764.103924
 Sum of electronic and thermal Enthalpies=            -764.102980
 Sum of electronic and thermal Free Energies=         -764.160308

                     E (Thermal)             CV                S
                      KCal/Mol        Cal/Mol-Kelvin    Cal/Mol-Kelvin
 Total                  128.787             53.948            120.657
 Electronic               0.000              0.000              0.000
 Translational            0.889              2.981             42.042
 Rotational               0.889              2.981             32.371
 Vibrational            127.010             47.986             46.244
 Vibration     1          0.593              1.985              6.190
 Vibration     2          0.595              1.978              4.912
 Vibration     3          0.598              1.968              4.115
 Vibration     4          0.599              1.965              3.987
 Vibration     5          0.603              1.951              3.506
 Vibration     6          0.638              1.838              2.123
 Vibration     7          0.641              1.830              2.072
 Vibration     8          0.653              1.792              1.864
 Vibration     9          0.671              1.737              1.628
 Vibration    10          0.687              1.691              1.471
 Vibration    11          0.704              1.641              1.324
 Vibration    12          0.718              1.601              1.224
 Vibration    13          0.721              1.593              1.207
 Vibration    14          0.730              1.567              1.149
 Vibration    15          0.747              1.520              1.053
 Vibration    16          0.760              1.487              0.992
 Vibration    17          0.795              1.394              0.843
 Vibration    18          0.832              1.305              0.723
 Vibration    19          0.850              1.262              0.671
 Vibration    20          0.883              1.188              0.592
 Vibration    21          0.903              1.144              0.548

 Optimization completed.
    -- Stationary point found.
 Normal termination of Gaussian 16 at Tue Dec 26 22:04:41 2023.
