 Gaussian 16, Revision A.03,
 Gaussian 16:  ES64L-G16RevA.03 25-Dec-2016

 --------------------------------------
 #P UB3LYP/6-311++G(d,p) nosym opt freq
 --------------------------------------

 -------
 Radical
 -------
 Symbolic Z-matrix:
 Charge = -1 Multiplicity = 2

 SCF Done:  E(UB3LYP) =  -819.572250199     A.U. after   24 cycles
 SCF Done:  E(UB3LYP) =  -819.602648011     A.U. after   18 cycles
 SCF Done:  E(UB3LYP) =  -819.616500168     A.U. after   18 cycles
 SCF Done:  E(UB3LYP) =  -819.624034414     A.U. after   18 cycles
 SCF Done:  E(UB3LYP) =  -819.627452602     A.U. after   18 cycles
 SCF Done:  E(UB3LYP) =  -819.628503685     A.U. after   17 cycles
 SCF Done:  E(UB3LYP) =  -819.629157241     A.U. after   16 cycles
 SCF Done:  E(UB3LYP) =  -819.629314562     A.U. after   16 cycles
 SCF Done:  E(UB3LYP) =  -819.629446449     A.U. after   15 cycles
 SCF Done:  E(UB3LYP) =  -819.629481743     A.U. after   15 cycles
 SCF Done:  E(UB3LYP) =  -819.629500284     A.U. after   15 cycles
 SCF Done:  E(UB3LYP) =  -819.629504943     A.U. after   13 cycles
 SCF Done:  E(UB3LYP) =  -819.629506811     A.U. after   11 cycles
 SCF Done:  E(UB3LYP) =  -819.629507058     A.U. after   12 cycles
 Optimization completed.
    -- Stationary point found.
 Normal termination of Gaussian 16 at Thu Dec 21 07:24:52 2023.

 ----------------------------------------------------------------------
 #P Geom=AllCheck Guess=TCheck SCRF=Check GenChk UB3LYP/6-311++G(d,p) F
 req
 ----------------------------------------------------------------------

 Structure from the checkpoint file:  "181-rad.chk"
 -------
 Radical
 -------
 Charge = -1 Multiplicity = 2

                          Input orientation:
 ---------------------------------------------------------------------
 Center     Atomic      Atomic             Coordinates (Angstroms)
 Number     Number       Type             X           Y           Z
 ---------------------------------------------------------------------
      1          7           0       -2.587659   -2.268873    0.575359
      2          6           0       -2.343588   -0.944301    0.215173
      3          6           0       -3.418568   -0.091227   -0.006041
      4          6           0       -3.215226    1.260772   -0.299569
      5          6           0       -1.939928    1.798352   -0.362380
      6          8           0       -1.795899    3.141382   -0.639877
      7          6           0       -0.797825    0.977296   -0.154627
      8          6           0        0.555740    1.546369   -0.225498
      9          8           0        0.788002    2.759536   -0.415117
     10          6           0        1.674591    0.605700   -0.060981
     11          6           0        2.994925    1.097439   -0.134777
     12          6           0        4.080165    0.254355    0.003703
     13          6           0        3.873402   -1.124923    0.223781
     14          6           0        2.589327   -1.625201    0.299637
     15          6           0        1.466988   -0.776419    0.161232
     16          6           0        0.126316   -1.342835    0.254818
     17          8           0       -0.005066   -2.595632    0.438878
     18          6           0       -1.004504   -0.431460    0.117108
     19          1           0       -3.440600   -2.658877    0.203173
     20          1           0       -1.746871   -2.847494    0.510011
     21          1           0       -4.429639   -0.481081    0.071702
     22          1           0       -4.073429    1.908480   -0.469702
     23          1           0       -2.684349    3.497574   -0.746686
     24          1           0        3.119032    2.160362   -0.305801
     25          1           0        5.090028    0.649695   -0.056362
     26          1           0        4.724705   -1.790602    0.333943
     27          1           0        2.399930   -2.678388    0.468900
 ---------------------------------------------------------------------

 SCF Done:  E(UB3LYP) =  -819.629507058     A.U. after    2 cycles

 Alpha  occ. eigenvalues --  -19.02753 -18.94608 -18.93782 -14.18188 -10.10893
 Alpha  occ. eigenvalues --  -10.09676 -10.09505 -10.09005 -10.05611 -10.05534
 Alpha  occ. eigenvalues --  -10.05497 -10.05282 -10.05243 -10.04955 -10.04843
 Alpha  occ. eigenvalues --  -10.04774 -10.04636 -10.04518  -0.93877  -0.87236
 Alpha  occ. eigenvalues --   -0.86718  -0.78880  -0.73483  -0.71335  -0.66176
 Alpha  occ. eigenvalues --   -0.62720  -0.62033  -0.60389  -0.54267  -0.51956
 Alpha  occ. eigenvalues --   -0.50646  -0.46938  -0.44408  -0.42836  -0.42034
 Alpha  occ. eigenvalues --   -0.38961  -0.37370  -0.35199  -0.34538  -0.33582
 Alpha  occ. eigenvalues --   -0.32501  -0.31011  -0.30252  -0.30068  -0.28629
 Alpha  occ. eigenvalues --   -0.27504  -0.27344  -0.26601  -0.25854  -0.25202
 Alpha  occ. eigenvalues --   -0.24509  -0.23128  -0.22730  -0.21976  -0.21359
 Alpha  occ. eigenvalues --   -0.16828  -0.14057  -0.13197  -0.12733  -0.11465
 Alpha  occ. eigenvalues --   -0.09832  -0.08035  -0.00886
 Alpha virt. eigenvalues --    0.07510   0.07723   0.08444   0.08722   0.09578
 Alpha virt. eigenvalues --    0.10388   0.10817   0.12219   0.12736   0.13124
 Alpha virt. eigenvalues --    0.14390   0.15154   0.15667   0.16009   0.16353

  Beta  occ. eigenvalues --  -19.02738 -18.94056 -18.93213 -14.18156 -10.10907
  Beta  occ. eigenvalues --  -10.09483 -10.09428 -10.08994 -10.05584 -10.05471
  Beta  occ. eigenvalues --  -10.05382 -10.05247 -10.05151 -10.04845 -10.04836
  Beta  occ. eigenvalues --  -10.04802 -10.04575 -10.04415  -0.93843  -0.86298
  Beta  occ. eigenvalues --   -0.85750  -0.78756  -0.73280  -0.71158  -0.65765
  Beta  occ. eigenvalues --   -0.62547  -0.61832  -0.60170  -0.53605  -0.51798
  Beta  occ. eigenvalues --   -0.50377  -0.46866  -0.44224  -0.42638  -0.41922
  Beta  occ. eigenvalues --   -0.38876  -0.37263  -0.34952  -0.34363  -0.33464
  Beta  occ. eigenvalues --   -0.32396  -0.30851  -0.30037  -0.29608  -0.28495
  Beta  occ. eigenvalues --   -0.26989  -0.26636  -0.26419  -0.25531  -0.24468
  Beta  occ. eigenvalues --   -0.24370  -0.22592  -0.21643  -0.21220  -0.20789
  Beta  occ. eigenvalues --   -0.16292  -0.12621  -0.12180  -0.11819  -0.10970
  Beta  occ. eigenvalues --   -0.09303  -0.07167
  Beta virt. eigenvalues --    0.04732   0.07515   0.08435   0.08533   0.08757
  Beta virt. eigenvalues --    0.10381   0.10626   0.10868   0.12227   0.12938
  Beta virt. eigenvalues --    0.13150   0.14404   0.15184   0.15738   0.16170

 Mulliken charges and spin densities:
               1          2
     1  N   -0.382381   0.013483
     2  C    0.069040   0.031566
     3  C   -0.197942   0.093818
     4  C   -0.326822   0.088930
     5  C   -0.271368   0.007177
     6  O   -0.180349   0.003252
     7  C    0.505624   0.058688
     8  C   -0.476030   0.022233
     9  O   -0.339605   0.215361
    10  C    0.002887   0.053079
    11  C    0.138008   0.004457
    12  C   -0.458016   0.051907
    13  C   -0.486704   0.019923
    14  C    0.202197   0.041185
    15  C    0.153928   0.017981
    16  C   -0.500589   0.099680
    17  O   -0.377968   0.203481
    18  C    0.460368   0.001901
    19  H    0.203356  -0.001215
    20  H    0.298003  -0.003391
    21  H    0.109548  -0.006796
    22  H    0.077188  -0.007941
    23  H    0.229254  -0.000822
    24  H    0.150609  -0.000293
    25  H    0.121017  -0.004112
    26  H    0.119928  -0.001911
    27  H    0.156819  -0.001622
 Sum of Mulliken charges =  -1.00000   1.00000

 Dipole moment (field-independent basis, Debye):
    X=             -2.6507    Y=             -1.1582    Z=             -0.7770  Tot=              2.9952
 Quadrupole moment (field-independent basis, Debye-Ang):
   XX=           -112.5691   YY=           -134.1661   ZZ=           -113.9934
   XY=             -5.3376   XZ=              3.8905   YZ=              5.6679

  Exact polarizability: 346.701 -10.267 236.248   4.654 -25.508 104.834
 Approx polarizability: 528.721  -6.682 443.425   5.883 -52.425 169.036

                      1                      2                      3
                      A                      A                      A
 Frequencies --     36.8079                60.8293               116.2380
 Red. masses --      7.2052                 6.5877                 4.5372
 Frc consts  --      0.0058                 0.0144                 0.0361
 IR Inten    --      9.4518                 1.0888                 2.4478

                      4                      5                      6
                      A                      A                      A
 Frequencies --    129.6532               171.0614               213.2299
 Red. masses --      4.9587                 6.8864                 5.1499
 Frc consts  --      0.0491                 0.1187                 0.1380
 IR Inten    --      0.1064                 0.2303                 9.0540

                      7                      8                      9
                      A                      A                      A
 Frequencies --    216.4248               259.4672               311.0141
 Red. masses --      1.3812                 2.8573                 6.5277
 Frc consts  --      0.0381                 0.1133                 0.3720
 IR Inten    --     56.0848                11.2616                 1.3706

                     10                     11                     12
                      A                      A                      A
 Frequencies --    331.7003               352.8684               367.4835
 Red. masses --      4.3872                 3.5667                10.9817
 Frc consts  --      0.2844                 0.2617                 0.8738
 IR Inten    --     24.7485                31.6847                 1.6582

                     13                     14                     15
                      A                      A                      A
 Frequencies --    400.4935               410.6107               413.4770
 Red. masses --      2.1044                 6.0150                 5.0404
 Frc consts  --      0.1989                 0.5975                 0.5077
 IR Inten    --     68.4633                 1.4769                 9.2459

                     16                     17                     18
                      A                      A                      A
 Frequencies --    434.3167               440.8929               467.2338
 Red. masses --      4.1877                 3.3513                 6.8048
 Frc consts  --      0.4654                 0.3838                 0.8753
 IR Inten    --     25.2629                31.1763                 8.8157

                     19                     20                     21
                      A                      A                      A
 Frequencies --    492.4457               495.6614               515.1221
 Red. masses --      4.3345                 4.5542                 7.7972
 Frc consts  --      0.6193                 0.6592                 1.2190
 IR Inten    --      6.1552                 1.4492                 0.8306

                     22                     23                     24
                      A                      A                      A
 Frequencies --    583.8712               600.1302               637.7373
 Red. masses --      3.0351                 5.0794                 4.8675
 Frc consts  --      0.6096                 1.0778                 1.1664
 IR Inten    --     45.7039                24.4892                 0.8198

                     25                     26                     27
                      A                      A                      A
 Frequencies --    661.6590               711.4134               714.7781
 Red. masses --      6.5187                 6.1147                 1.9513
 Frc consts  --      1.6814                 1.8233                 0.5874
 IR Inten    --      4.4746                 2.0214                15.1048

                     28                     29                     30
                      A                      A                      A
 Frequencies --    731.1173               753.1236               765.4639
 Red. masses --      4.0590                 2.8419                 1.6019
 Frc consts  --      1.2783                 0.9497                 0.5530
 IR Inten    --     24.5923                97.6993                50.0417

                     31                     32                     33
                      A                      A                      A
 Frequencies --    779.2047               795.5036               806.7068
 Red. masses --      1.9801                 2.4246                 4.6009
 Frc consts  --      0.7083                 0.9040                 1.7641
 IR Inten    --     69.3035                33.8209                 2.5801

                     34                     35                     36
                      A                      A                      A
 Frequencies --    828.0613               867.8270               868.5866
 Red. masses --      1.3799                 6.7672                 1.5333
 Frc consts  --      0.5575                 3.0028                 0.6816
 IR Inten    --      2.5294                42.0080                 0.7662

                     37                     38                     39
                      A                      A                      A
 Frequencies --    905.8893               955.5161               981.3891
 Red. masses --      7.0629                 5.9414                 1.3028
 Frc consts  --      3.4149                 3.1961                 0.7393
 IR Inten    --     26.5723                32.7030                 1.1358

                     40                     41                     42
                      A                      A                      A
 Frequencies --    983.8794              1032.6320              1059.1473
 Red. masses --      1.3111                 2.5481                 2.2243
 Frc consts  --      0.7478                 1.6009                 1.4701
 IR Inten    --      1.3838                23.7293                71.3692

                     43                     44                     45
                      A                      A                      A
 Frequencies --   1109.9557              1141.8562              1155.6179
 Red. masses --      2.1132                 1.4765                 1.7701
 Frc consts  --      1.5339                 1.1342                 1.3928
 IR Inten    --     13.5282                38.8904                16.5342

                     46                     47                     48
                      A                      A                      A
 Frequencies --   1178.6036              1191.0638              1216.3812
 Red. masses --      1.4266                 1.7868                 1.6525
 Frc consts  --      1.1676                 1.4935                 1.4406
 IR Inten    --     30.0069                50.0396                31.8757

                     49                     50                     51
                      A                      A                      A
 Frequencies --   1223.8414              1250.9439              1258.8715
 Red. masses --      2.5250                 3.2408                 2.6437
 Frc consts  --      2.2282                 2.9880                 2.4685
 IR Inten    --     13.8314                 4.2498                47.0449

                     52                     53                     54
                      A                      A                      A
 Frequencies --   1295.9981              1334.1316              1364.0350
 Red. masses --      2.7715                 6.6584                 3.0277
 Frc consts  --      2.7427                 6.9826                 3.3191
 IR Inten    --     40.7103                 4.9963                10.3151

                     55                     56                     57
                      A                      A                      A
 Frequencies --   1369.4881              1421.4878              1438.6818
 Red. masses --      9.5123                 2.7104                 2.7655
 Frc consts  --     10.5112                 3.2268                 3.3725
 IR Inten    --      7.4849               446.6484                68.9560

                     58                     59                     60
                      A                      A                      A
 Frequencies --   1478.5282              1481.3539              1514.6423
 Red. masses --      3.2095                 2.5821                 3.9133
 Frc consts  --      4.1337                 3.3384                 5.2895
 IR Inten    --      1.2351                38.4441               141.6170

                     61                     62                     63
                      A                      A                      A
 Frequencies --   1546.7542              1569.6601              1601.3352
 Red. masses --      6.6306                 3.6465                 5.3694
 Frc consts  --      9.3465                 5.2935                 8.1122
 IR Inten    --    589.7508                94.7974                46.7179

                     64                     65                     66
                      A                      A                      A
 Frequencies --   1608.1351              1622.1913              1635.1314
 Red. masses --      1.5292                 5.9718                 7.5506
 Frc consts  --      2.3300                 9.2589                11.8942
 IR Inten    --    165.3067                27.2990                 3.4183

                     67                     68                     69
                      A                      A                      A
 Frequencies --   3111.6650              3132.4119              3143.5779
 Red. masses --      1.0861                 1.0847                 1.0919
 Frc consts  --      6.1962                 6.2710                 6.3575
 IR Inten    --     50.9576                19.3607                50.7170

                     70                     71                     72
                      A                      A                      A
 Frequencies --   3152.0002              3185.4165              3189.3471
 Red. masses --      1.0916                 1.0914                 1.0921
 Frc consts  --      6.3897                 6.5248                 6.5449
 IR Inten    --     57.3568                14.0779                24.7004

                     73                     74                     75
                      A                      A                      A
 Frequencies --   3346.1039              3620.0281              3808.0259
 Red. masses --      1.0631                 1.0851                 1.0653
 Frc consts  --      7.0130                 8.3778                 9.1021
 IR Inten    --    113.6689                12.9744                13.8692

 - Thermochemistry -
 -------------------
 Temperature   298.150 Kelvin.  Pressure   1.00000 Atm.
 Atom     1 has atomic number  7 and mass  14.00307

 Molecular mass:   239.05824 amu.
 Principal axes and moments of inertia in atomic units:
                           1         2         3
     Eigenvalues --  2571.597094712.256827278.27396
           X            0.98815   0.15332  -0.00693
           Y           -0.14945   0.97152   0.18387
           Z            0.03492  -0.18066   0.98293
 This molecule is an asymmetric top.
 Rotational symmetry number  1.
 Warning -- assumption of classical behavior for rotation
           may cause significant error
 Rotational temperatures (Kelvin)      0.03368     0.01838     0.01190
 Rotational constants (GHZ):           0.70180     0.38299     0.24796
 Zero-point vibrational energy     516535.2 (Joules/Mol)
                                  123.45487 (Kcal/Mol)
 Warning -- explicit consideration of  23 degrees of freedom as
           vibrations may cause significant error
 Vibrational temperatures:     52.96    87.52   167.24   186.54   246.12
          (Kelvin)            306.79   311.39   373.32   447.48   477.24
                              507.70   528.73   576.22   590.78   594.90
                              624.88   634.35   672.25   708.52   713.15
                              741.15   840.06   863.45   917.56   951.98
                             1023.57  1028.41  1051.91  1083.58  1101.33
                             1121.10  1144.55  1160.67  1191.40  1248.61
                             1249.70  1303.37  1374.77  1412.00  1415.58
                             1485.73  1523.88  1596.98  1642.88  1662.68
                             1695.75  1713.68  1750.10  1760.83  1799.83
                             1811.24  1864.65  1919.52  1962.54  1970.39
                             2045.20  2069.94  2127.27  2131.34  2179.23
                             2225.43  2258.39  2303.96  2313.75  2333.97
                             2352.59  4476.99  4506.84  4522.91  4535.03
                             4583.10  4588.76  4814.30  5208.41  5478.90

 Zero-point correction=                           0.196738 (Hartree/Particle)
 Thermal correction to Energy=                    0.210659
 Thermal correction to Enthalpy=                  0.211604
 Thermal correction to Gibbs Free Energy=         0.155543
 Sum of electronic and zero-point Energies=           -819.432769
 Sum of electronic and thermal Energies=              -819.418848
 Sum of electronic and thermal Enthalpies=            -819.417904
 Sum of electronic and thermal Free Energies=         -819.473964

                     E (Thermal)             CV                S
                      KCal/Mol        Cal/Mol-Kelvin    Cal/Mol-Kelvin
 Total                  132.191             56.612            117.989
 Electronic               0.000              0.000              1.377
 Translational            0.889              2.981             42.316
 Rotational               0.889              2.981             32.845
 Vibrational            130.413             50.650             41.451
 Vibration     1          0.594              1.982              5.424
 Vibration     2          0.597              1.973              4.430
 Vibration     3          0.608              1.936              3.162
 Vibration     4          0.612              1.924              2.951
 Vibration     5          0.626              1.878              2.424
 Vibration     6          0.644              1.821              2.016
 Vibration     7          0.645              1.816              1.989
 Vibration     8          0.668              1.747              1.665
 Vibration     9          0.700              1.653              1.357
 Vibration    10          0.714              1.612              1.252
 Vibration    11          0.729              1.569              1.153
 Vibration    12          0.740              1.539              1.090
 Vibration    13          0.766              1.469              0.961
 Vibration    14          0.775              1.447              0.924
 Vibration    15          0.777              1.441              0.914
 Vibration    16          0.795              1.395              0.845
 Vibration    17          0.801              1.381              0.824
 Vibration    18          0.825              1.323              0.745
 Vibration    19          0.848              1.267              0.677
 Vibration    20          0.851              1.260              0.669
 Vibration    21          0.870              1.216              0.621
 Vibration    22          0.941              1.066              0.478
 Vibration    23          0.958              1.032              0.449

                           ! Non-Optimized Parameters !
 Normal termination of Gaussian 16 at Thu Dec 21 08:34:56 2023.
