 Gaussian 16, Revision A.03,
 Gaussian 16:  ES64L-G16RevA.03 25-Dec-2016

 --------------------------------------
 #P UB3LYP/6-311++G(d,p) nosym opt freq
 --------------------------------------

 -------
 Radical
 -------
 Symbolic Z-matrix:
 Charge = -1 Multiplicity = 2

 SCF Done:  E(UB3LYP) =  -954.020981716     A.U. after   23 cycles
 SCF Done:  E(UB3LYP) =  -954.054819090     A.U. after   19 cycles
 SCF Done:  E(UB3LYP) =  -954.063333652     A.U. after   17 cycles
 SCF Done:  E(UB3LYP) =  -954.064789855     A.U. after   16 cycles
 SCF Done:  E(UB3LYP) =  -954.064874672     A.U. after   15 cycles
 SCF Done:  E(UB3LYP) =  -954.064979705     A.U. after   16 cycles
 SCF Done:  E(UB3LYP) =  -954.065023418     A.U. after   14 cycles
 SCF Done:  E(UB3LYP) =  -954.065064859     A.U. after   14 cycles
 SCF Done:  E(UB3LYP) =  -954.065117617     A.U. after   14 cycles
 SCF Done:  E(UB3LYP) =  -954.065200607     A.U. after   13 cycles
 SCF Done:  E(UB3LYP) =  -954.065354768     A.U. after   13 cycles
 SCF Done:  E(UB3LYP) =  -954.065354941     A.U. after   11 cycles
 SCF Done:  E(UB3LYP) =  -954.065355017     A.U. after   11 cycles
 SCF Done:  E(UB3LYP) =  -954.065355069     A.U. after    9 cycles
 SCF Done:  E(UB3LYP) =  -954.065355091     A.U. after    9 cycles
 SCF Done:  E(UB3LYP) =  -954.065355115     A.U. after    9 cycles
 SCF Done:  E(UB3LYP) =  -954.065355140     A.U. after   10 cycles
 SCF Done:  E(UB3LYP) =  -954.065355155     A.U. after   10 cycles
 SCF Done:  E(UB3LYP) =  -954.065355165     A.U. after   10 cycles
 Optimization completed.
    -- Stationary point found.
 Normal termination of Gaussian 16 at Thu Dec 21 22:11:36 2023.

 ----------------------------------------------------------------------
 #P Geom=AllCheck Guess=TCheck SCRF=Check GenChk UB3LYP/6-311++G(d,p) F
 req
 ----------------------------------------------------------------------

 Structure from the checkpoint file:  "203-rad.chk"
 -------
 Radical
 -------
 Charge = -1 Multiplicity = 2

                          Input orientation:
 ---------------------------------------------------------------------
 Center     Atomic      Atomic             Coordinates (Angstroms)
 Number     Number       Type             X           Y           Z
 ---------------------------------------------------------------------
      1          6           0        4.623062    1.292476   -0.537247
      2          6           0        3.313323    0.606566   -0.230678
      3          6           0        3.310014   -0.662914    0.382330
      4          6           0        2.123906   -1.324565    0.679495
      5          8           0        2.193668   -2.557438    1.276411
      6          6           0        0.858988   -0.746815    0.376426
      7          6           0       -0.412659   -1.437676    0.685681
      8          8           0       -0.438626   -2.554899    1.223823
      9          6           0       -1.652592   -0.719327    0.316010
     10          6           0       -2.943718   -1.268162    0.556993
     11          8           0       -3.070428   -2.496749    1.147850
     12          6           0       -4.103792   -0.584708    0.205447
     13          6           0       -4.019660    0.675085   -0.401165
     14          8           0       -5.214887    1.294056   -0.722290
     15          6           0       -2.796578    1.246922   -0.654446
     16          6           0       -1.609248    0.566455   -0.303870
     17          6           0       -0.349913    1.237654   -0.604407
     18          8           0       -0.331774    2.376509   -1.153870
     19          6           0        0.876867    0.540289   -0.244705
     20          6           0        2.101293    1.187024   -0.533889
     21          1           0        5.212094    1.458423    0.372989
     22          1           0        4.454278    2.263040   -1.009182
     23          1           0        5.242066    0.691657   -1.214651
     24          1           0        4.254667   -1.144833    0.632807
     25          1           0        3.128519   -2.759716    1.393071
     26          1           0       -4.013334   -2.681421    1.219298
     27          1           0       -5.080363   -1.019773    0.397331
     28          1           0       -5.003319    2.141292   -1.127794
     29          1           0       -2.694092    2.220682   -1.122562
     30          1           0        2.042238    2.160866   -1.005207
 ---------------------------------------------------------------------

 SCF Done:  E(UB3LYP) =  -954.065355165     A.U. after    2 cycles

 Alpha  occ. eigenvalues --  -19.05250 -19.03850 -19.03516 -18.93711 -18.93665
 Alpha  occ. eigenvalues --  -10.12649 -10.12240 -10.12067 -10.10181 -10.08517
 Alpha  occ. eigenvalues --  -10.07161 -10.06772 -10.05510 -10.05327 -10.05206
 Alpha  occ. eigenvalues --  -10.04986 -10.04965 -10.04801 -10.04185 -10.03789
 Alpha  occ. eigenvalues --   -0.95894  -0.95179  -0.94789  -0.87044  -0.86140
 Alpha  occ. eigenvalues --   -0.73871  -0.73108  -0.67455  -0.64213  -0.62553
 Alpha  occ. eigenvalues --   -0.62131  -0.58886  -0.54591  -0.52788  -0.50496
 Alpha  occ. eigenvalues --   -0.48950  -0.46438  -0.44441  -0.42743  -0.39037
 Alpha  occ. eigenvalues --   -0.38663  -0.38264  -0.35403  -0.34730  -0.33466
 Alpha  occ. eigenvalues --   -0.32509  -0.32033  -0.31540  -0.30303  -0.29623
 Alpha  occ. eigenvalues --   -0.29505  -0.29353  -0.28212  -0.27473  -0.26372
 Alpha  occ. eigenvalues --   -0.26313  -0.26213  -0.25270  -0.24107  -0.23630
 Alpha  occ. eigenvalues --   -0.22972  -0.22487  -0.20672  -0.18759  -0.13391
 Alpha  occ. eigenvalues --   -0.12414  -0.11096  -0.10776  -0.10747  -0.09274
 Alpha  occ. eigenvalues --   -0.00873
 Alpha virt. eigenvalues --    0.07105   0.07628   0.08269   0.08306   0.08500
 Alpha virt. eigenvalues --    0.09378   0.10979   0.11130   0.11886   0.12450
 Alpha virt. eigenvalues --    0.12986   0.13573   0.14009   0.15208   0.15260

  Beta  occ. eigenvalues --  -19.05244 -19.03861 -19.03527 -18.93187 -18.93036
  Beta  occ. eigenvalues --  -10.12696 -10.12231 -10.12122 -10.10144 -10.08313
  Beta  occ. eigenvalues --  -10.07164 -10.06754 -10.05422 -10.05242 -10.05092
  Beta  occ. eigenvalues --  -10.04906 -10.04852 -10.04725 -10.04128 -10.03752
  Beta  occ. eigenvalues --   -0.95878  -0.95199  -0.94811  -0.86246  -0.84960
  Beta  occ. eigenvalues --   -0.73639  -0.72979  -0.67151  -0.64024  -0.62373
  Beta  occ. eigenvalues --   -0.61901  -0.58728  -0.54062  -0.52574  -0.50289
  Beta  occ. eigenvalues --   -0.48843  -0.46324  -0.44263  -0.42626  -0.38969
  Beta  occ. eigenvalues --   -0.38541  -0.38139  -0.35194  -0.34574  -0.33378
  Beta  occ. eigenvalues --   -0.32406  -0.31878  -0.31283  -0.30260  -0.29428
  Beta  occ. eigenvalues --   -0.29387  -0.29174  -0.28190  -0.27123  -0.26233
  Beta  occ. eigenvalues --   -0.25934  -0.25176  -0.25104  -0.24005  -0.22817
  Beta  occ. eigenvalues --   -0.22210  -0.21799  -0.20289  -0.17677  -0.11830
  Beta  occ. eigenvalues --   -0.11246  -0.10358  -0.10157  -0.10133  -0.08812
  Beta virt. eigenvalues --    0.04988   0.07092   0.07619   0.08296   0.08484
  Beta virt. eigenvalues --    0.09025   0.10035   0.10969   0.11555   0.11878
  Beta virt. eigenvalues --    0.12449   0.13124   0.13566   0.14001   0.15263

 Mulliken charges and spin densities:
               1          2
     1  C   -0.319165   0.001745
     2  C    0.447884   0.009544
     3  C   -0.281857   0.109103
     4  C    0.074225  -0.020525
     5  O   -0.156955  -0.002269
     6  C    0.049142   0.056799
     7  C   -0.439297  -0.011483
     8  O   -0.324774   0.182940
     9  C   -0.192717   0.036800
    10  C    0.098943  -0.012502
    11  O   -0.155031  -0.002646
    12  C    0.018104   0.076423
    13  C   -0.755144   0.001579
    14  O   -0.272423   0.002020
    15  C   -0.012327   0.081284
    16  C    0.880689   0.052820
    17  C   -0.883595   0.108191
    18  O   -0.363562   0.255818
    19  C    0.369509   0.045966
    20  C   -0.348830   0.049484
    21  H    0.132987   0.002679
    22  H    0.153440   0.000027
    23  H    0.132998   0.002675
    24  H    0.063220  -0.008571
    25  H    0.231824  -0.000483
    26  H    0.237957  -0.000535
    27  H    0.112696  -0.006448
    28  H    0.259740  -0.000200
    29  H    0.127842  -0.005871
    30  H    0.114476  -0.004364
 Sum of Mulliken charges =  -1.00000   1.00000

 Dipole moment (field-independent basis, Debye):
    X=              2.7244    Y=              0.8574    Z=             -0.3589  Tot=              2.8786
 Quadrupole moment (field-independent basis, Debye-Ang):
   XX=           -127.2163   YY=           -142.2214   ZZ=           -126.9112
   XY=             -3.1583   XZ=              1.4439   YZ=              9.5212

  Exact polarizability: 389.702  -0.685 217.011   5.641 -53.168 132.680
 Approx polarizability: 552.049  -8.776 399.380  11.398-110.480 224.407

                      1                      2                      3
                      A                      A                      A
 Frequencies --     20.8955                46.5939                63.3223
 Red. masses --      7.7907                 6.1065                 6.4198
 Frc consts  --      0.0020                 0.0078                 0.0152
 IR Inten    --     11.2416                 0.0060                 0.0297

                      4                      5                      6
                      A                      A                      A
 Frequencies --     91.2357               148.6989               160.2329
 Red. masses --      1.0947                 6.8825                 5.4044
 Frc consts  --      0.0054                 0.0897                 0.0818
 IR Inten    --      0.0134                 0.0237                 4.8895

                      7                      8                      9
                      A                      A                      A
 Frequencies --    161.5775               199.1383               206.7477
 Red. masses --      4.3145                 3.9380                 3.8089
 Frc consts  --      0.0664                 0.0920                 0.0959
 IR Inten    --      0.1854                 3.2073                 8.4677

                     10                     11                     12
                      A                      A                      A
 Frequencies --    248.4596               266.6682               270.7838
 Red. masses --      4.7466                 2.2181                 6.1386
 Frc consts  --      0.1726                 0.0929                 0.2652
 IR Inten    --      0.9354                 1.3187                 5.6374

                     13                     14                     15
                      A                      A                      A
 Frequencies --    271.3147               306.8497               318.7430
 Red. masses --      1.3310                 1.5396                 1.2003
 Frc consts  --      0.0577                 0.0854                 0.0719
 IR Inten    --      6.2693                71.3967               155.6218

                     16                     17                     18
                      A                      A                      A
 Frequencies --    321.8824               354.7162               355.6253
 Red. masses --      5.9714                 7.5414                 3.8669
 Frc consts  --      0.3645                 0.5591                 0.2881
 IR Inten    --      1.0792                 1.3073                 7.2795

                     19                     20                     21
                      A                      A                      A
 Frequencies --    371.3570               390.2559               423.9671
 Red. masses --      6.0597                10.6441                 7.2993
 Frc consts  --      0.4924                 0.9551                 0.7730
 IR Inten    --     16.6213                 4.0571                 0.2953

                     22                     23                     24
                      A                      A                      A
 Frequencies --    441.3060               476.1426               508.1955
 Red. masses --      6.5492                10.7237                 4.7685
 Frc consts  --      0.7515                 1.4324                 0.7256
 IR Inten    --      0.9536                 0.0530                22.4663

                     25                     26                     27
                      A                      A                      A
 Frequencies --    543.2663               548.2837               559.8498
 Red. masses --      4.0256                 8.2324                 7.1708
 Frc consts  --      0.7000                 1.4581                 1.3242
 IR Inten    --      2.9984                 5.4547                 6.2950

                     28                     29                     30
                      A                      A                      A
 Frequencies --    587.2825               610.5923               611.8388
 Red. masses --      4.9329                 5.7771                 4.5675
 Frc consts  --      1.0024                 1.2690                 1.0074
 IR Inten    --      0.7564                 7.6852                 4.8915

                     31                     32                     33
                      A                      A                      A
 Frequencies --    618.0089               628.0148               711.6940
 Red. masses --      4.4799                 3.2637                 3.6230
 Frc consts  --      1.0081                 0.7584                 1.0812
 IR Inten    --     31.1962                11.0888                 0.3289

                     34                     35                     36
                      A                      A                      A
 Frequencies --    725.8591               738.8566               754.4594
 Red. masses --      5.4456                 3.2037                 2.0125
 Frc consts  --      1.6904                 1.0304                 0.6749
 IR Inten    --      3.5961                 0.1136                49.0699

                     37                     38                     39
                      A                      A                      A
 Frequencies --    761.4191               770.0439               812.6931
 Red. masses --      1.6510                 8.4477                10.0187
 Frc consts  --      0.5639                 2.9514                 3.8986
 IR Inten    --     24.2028                43.1274                 2.9698

                     40                     41                     42
                      A                      A                      A
 Frequencies --    852.3307               889.7087               903.4954
 Red. masses --      1.4610                 6.0305                 1.3691
 Frc consts  --      0.6253                 2.8126                 0.6585
 IR Inten    --     18.7016                 3.3933                11.4273

                     43                     44                     45
                      A                      A                      A
 Frequencies --    962.5050              1000.3287              1017.8262
 Red. masses --      7.0109                 2.2160                 3.2495
 Frc consts  --      3.8268                 1.3065                 1.9834
 IR Inten    --     22.9344                40.5555                90.8634

                     46                     47                     48
                      A                      A                      A
 Frequencies --   1030.2152              1053.0936              1092.2256
 Red. masses --      3.4560                 1.4798                 2.6839
 Frc consts  --      2.1611                 0.9669                 1.8864
 IR Inten    --     97.1465                 1.6558                 8.2724

                     49                     50                     51
                      A                      A                      A
 Frequencies --   1134.0066              1161.6472              1165.5321
 Red. masses --      3.9289                 2.2782                 1.9247
 Frc consts  --      2.9768                 1.8113                 1.5405
 IR Inten    --    193.8084                30.1174                91.1202

                     52                     53                     54
                      A                      A                      A
 Frequencies --   1181.0697              1191.7295              1211.4115
 Red. masses --      1.9574                 1.7004                 1.6414
 Frc consts  --      1.6087                 1.4229                 1.4192
 IR Inten    --     25.8259                70.6910                19.9912

                     55                     56                     57
                      A                      A                      A
 Frequencies --   1224.1127              1255.9205              1276.6644
 Red. masses --      1.5608                 2.0816                 2.2776
 Frc consts  --      1.3780                 1.9346                 2.1872
 IR Inten    --    139.3673                32.9158                80.8521

                     58                     59                     60
                      A                      A                      A
 Frequencies --   1325.3765              1356.3766              1362.6624
 Red. masses --      6.2456                 4.3609                 6.6581
 Frc consts  --      6.4640                 4.7270                 7.2841
 IR Inten    --     67.8337                22.8707                 3.6450

                     61                     62                     63
                      A                      A                      A
 Frequencies --   1373.5999              1401.5981              1420.1291
 Red. masses --      3.7220                 1.3076                 3.1858
 Frc consts  --      4.1376                 1.5135                 3.7855
 IR Inten    --     17.7593                13.9033                63.6989

                     64                     65                     66
                      A                      A                      A
 Frequencies --   1451.0473              1476.8554              1482.6413
 Red. masses --      3.4327                 3.1571                 1.0453
 Frc consts  --      4.2584                 4.0571                 1.3538
 IR Inten    --    173.4528               301.2669                 5.3983

                     67                     68                     69
                      A                      A                      A
 Frequencies --   1485.3565              1496.3589              1534.7193
 Red. masses --      2.1995                 1.6567                 4.8458
 Frc consts  --      2.8591                 2.1856                 6.7247
 IR Inten    --    170.3132                 3.8738               209.8272

                     70                     71                     72
                      A                      A                      A
 Frequencies --   1563.7352              1591.4212              1615.7763
 Red. masses --      6.1359                 6.4590                 7.0468
 Frc consts  --      8.8401                 9.6380                10.8394
 IR Inten    --    170.9452               139.4032               412.8203

                     73                     74                     75
                      A                      A                      A
 Frequencies --   1627.7974              1651.4871              2996.0565
 Red. masses --      5.9896                 7.7292                 1.0388
 Frc consts  --      9.3508                12.4204                 5.4941
 IR Inten    --    391.7917               115.8649               155.0014

                     76                     77                     78
                      A                      A                      A
 Frequencies --   3033.0319              3088.7138              3102.5374
 Red. masses --      1.0996                 1.0969                 1.0883
 Frc consts  --      5.9601                 6.1654                 6.1720
 IR Inten    --     39.4150                23.3229                48.6685

                     79                     80                     81
                      A                      A                      A
 Frequencies --   3147.4643              3162.5015              3182.6633
 Red. masses --      1.0898                 1.0897                 1.0895
 Frc consts  --      6.3610                 6.4210                 6.5024
 IR Inten    --     21.4166                23.2894                10.3509

                     82                     83                     84
                      A                      A                      A
 Frequencies --   3802.3721              3805.4588              3831.3775
 Red. masses --      1.0653                 1.0653                 1.0657
 Frc consts  --      9.0743                 9.0897                 9.2171
 IR Inten    --     11.8236                15.8339                44.1878

 - Thermochemistry -
 -------------------
 Temperature   298.150 Kelvin.  Pressure   1.00000 Atm.
 Atom     1 has atomic number  6 and mass  12.00000

 Molecular mass:   270.05282 amu.
 Principal axes and moments of inertia in atomic units:
                           1         2         3
     Eigenvalues --  2793.714947547.76787**********
           X            0.99960   0.02251  -0.01689
           Y           -0.01294   0.90049   0.43469
           Z            0.02500  -0.43430   0.90042
 This molecule is an asymmetric top.
 Rotational symmetry number  1.
 Warning -- assumption of classical behavior for rotation
           may cause significant error
 Rotational temperatures (Kelvin)      0.03100     0.01148     0.00838
 Rotational constants (GHZ):           0.64600     0.23911     0.17470
 Zero-point vibrational energy     564516.6 (Joules/Mol)
                                  134.92271 (Kcal/Mol)
 Warning -- explicit consideration of  31 degrees of freedom as
           vibrations may cause significant error
 Vibrational temperatures:     30.06    67.04    91.11   131.27   213.94
          (Kelvin)            230.54   232.47   286.52   297.46   357.48
                              383.68   389.60   390.36   441.49   458.60
                              463.12   510.36   511.67   534.30   561.49
                              609.99   634.94   685.06   731.18   781.64
                              788.86   805.50   844.97   878.51   880.30
                              889.18   903.57  1023.97  1044.35  1063.05
                             1085.50  1095.51  1107.92  1169.28  1226.31
                             1280.09  1299.93  1384.83  1439.25  1464.42
                             1482.25  1515.17  1571.47  1631.58  1671.35
                             1676.94  1699.30  1714.63  1742.95  1761.23
                             1806.99  1836.84  1906.92  1951.52  1960.57
                             1976.30  2016.59  2043.25  2087.73  2124.87
                             2133.19  2137.10  2152.93  2208.12  2249.87
                             2289.70  2324.74  2342.04  2376.12  4310.66
                             4363.86  4443.97  4463.86  4528.50  4550.13
                             4579.14  5470.77  5475.21  5512.50

 Zero-point correction=                           0.215013 (Hartree/Particle)
 Thermal correction to Energy=                    0.232226
 Thermal correction to Enthalpy=                  0.233170
 Thermal correction to Gibbs Free Energy=         0.169343
 Sum of electronic and zero-point Energies=           -953.850342
 Sum of electronic and thermal Energies=              -953.833129
 Sum of electronic and thermal Enthalpies=            -953.832185
 Sum of electronic and thermal Free Energies=         -953.896012

                     E (Thermal)             CV                S
                      KCal/Mol        Cal/Mol-Kelvin    Cal/Mol-Kelvin
 Total                  145.724             67.126            134.336
 Electronic               0.000              0.000              1.377
 Translational            0.889              2.981             42.679
 Rotational               0.889              2.981             33.743
 Vibrational            143.947             61.164             56.537
 Vibration     1          0.593              1.986              6.547
 Vibration     2          0.595              1.979              4.957
 Vibration     3          0.597              1.972              4.351
 Vibration     4          0.602              1.955              3.633
 Vibration     5          0.618              1.904              2.689
 Vibration     6          0.622              1.891              2.547
 Vibration     7          0.622              1.890              2.531
 Vibration     8          0.637              1.841              2.141
 Vibration     9          0.641              1.830              2.072
 Vibration    10          0.662              1.765              1.741
 Vibration    11          0.672              1.734              1.618
 Vibration    12          0.674              1.727              1.591
 Vibration    13          0.675              1.726              1.588
 Vibration    14          0.697              1.661              1.379
 Vibration    15          0.705              1.638              1.317
 Vibration    16          0.707              1.632              1.301
 Vibration    17          0.731              1.566              1.145
 Vibration    18          0.731              1.564              1.141
 Vibration    19          0.743              1.531              1.074
 Vibration    20          0.758              1.491              0.999
 Vibration    21          0.786              1.418              0.879
 Vibration    22          0.801              1.380              0.823
 Vibration    23          0.833              1.303              0.721
 Vibration    24          0.863              1.232              0.638
 Vibration    25          0.898              1.154              0.558
 Vibration    26          0.904              1.143              0.548
 Vibration    27          0.915              1.118              0.524
 Vibration    28          0.944              1.059              0.472
 Vibration    29          0.970              1.009              0.432
 Vibration    30          0.971              1.007              0.430
 Vibration    31          0.978              0.994              0.420

                           ! Non-Optimized Parameters !
 Normal termination of Gaussian 16 at Thu Dec 21 23:22:05 2023.
