 Q-Chem 5.4, Q-Chem, Inc., Pleasanton, CA (2021)
 Q-Chem 5.4.0 for Intel X86 EM64T Linux

User input:
--------------------------------------------------------------
$molecule
0 1
C                  4.3050360000      0.6997690000     -0.4331450000
C                  3.5157130000     -0.2974890000      0.3630540000
C                  2.7500610000      0.1124340000      1.3948130000
C                  2.6743510000      1.5593120000      1.7499550000
C                  3.4970130000      2.5554940000      0.9737480000
C                  4.2870670000      2.1318540000     -0.0490940000
O                  4.9507480000      0.3375650000     -1.4078010000
O                  1.9698090000      1.9420710000      2.6647610000
C                  6.3819990000      2.8807360000     -0.9458020000
C                  4.1015650000      4.9130210000      1.0198650000
H                  6.7112790000      3.7021750000     -1.5808130000
H                  6.6534600000      1.9282500000     -1.3979440000
H                  6.8412630000      2.9776010000      0.0445120000
H                  3.7502890000      5.7396330000      1.6352590000
H                  3.9641630000      5.1371240000     -0.0363440000
C                  1.9072610000     -0.8197540000      2.2396350000
C                  0.5079730000     -0.9720740000      1.6844210000
C                 -0.1613430000     -2.1013470000      1.4150430000
C                 -1.5726530000     -2.0280430000      0.8667410000
C                 -1.6960300000     -2.4517810000     -0.6189490000
C                 -3.1210560000     -2.4314670000     -1.0990030000
C                 -3.6819190000     -1.6509170000     -2.0336670000
C                 -5.1570140000     -1.7887540000     -2.3529030000
C                 -6.0188350000     -0.5791890000     -1.9115760000
C                 -7.4633050000     -0.7396030000     -2.2972080000
C                 -8.5373140000     -0.8326290000     -1.5017360000
C                 -9.9197080000     -0.9989950000     -2.0853260000
C                  0.3732220000     -3.4940660000      1.6425210000
C                 -2.9390640000     -0.6112260000     -2.8369280000
C                 -8.5024480000     -0.7795550000      0.0050870000
H                  1.8380920000     -0.3902620000      3.2436500000
H                  2.4082630000     -1.7835220000      2.3273940000
H                 -0.0043510000     -0.0281970000      1.5112000000
H                 -1.9540940000     -1.0084300000      0.9692220000
H                 -2.2293610000     -2.6701720000      1.4686270000
H                 -1.3023070000     -3.4689170000     -0.7357720000
H                 -1.0581130000     -1.8020080000     -1.2219380000
H                 -3.7724790000     -3.1484050000     -0.5985710000
H                 -5.5533020000     -2.6895050000     -1.8754860000
H                 -5.2821720000     -1.9275430000     -3.4353820000
H                 -5.6294140000      0.3300840000     -2.3855040000
H                 -5.9025340000     -0.4388970000     -0.8345570000
H                 -7.6374080000     -0.7974080000     -3.3718690000
H                 -9.8987470000     -1.0319430000     -3.1764970000
H                -10.5761230000     -0.1747620000     -1.7812930000
H                  1.3938520000     -3.5078100000      2.0243780000
H                  0.3541380000     -4.0843270000      0.7204890000
H                 -0.2574710000     -4.0254330000      2.3648200000
H                 -1.8736590000     -0.5775120000     -2.6116500000
H                 -3.3452080000      0.3904160000     -2.6607250000
H                 -3.0497310000     -0.8086220000     -3.9096630000
H                 -7.4964050000     -0.6794770000      0.4111880000
H                 -8.9494240000     -1.6858670000      0.4303250000
H                 -9.0997710000      0.0630000000      0.3734250000
H                -10.3899000000     -1.9216260000     -1.7243990000
O                  3.2976130000      3.7959810000      1.4269150000
O                  4.9533830000      3.0177420000     -0.8461220000
C                  3.6302840000     -1.7332870000     -0.0685550000
H                  5.1579640000      4.7249280000      1.2241010000
H                  2.6494410000     -2.2104260000     -0.1048990000
H                  4.2503430000     -2.3016830000      0.6339360000
H                  4.0984740000     -1.7955110000     -1.0494680000
$end
$rem
MAX_SCF_CYCLES=200
BASIS  =  6-311++G(d,p)
GUI  =  2
JOB_TYPE  =  SP
METHOD  =  B3LYP
THRESH = 14
SCF_CONVERGENCE  = 8
SOLVENT_METHOD = COSMO
$end
$solvent
dielectric 37.219
opticaldielectric 1.43
$end

--------------------------------------------------------------

             Standard Nuclear Orientation (Angstroms)
    I     Atom           X                Y                Z
 ----------------------------------------------------------------
    1      C       4.4958499014     0.2500811649     1.1624435911
    2      C       3.6131917289     1.2228051641     0.4370404367
    3      C       3.1674711954     0.9386498200    -0.8036752566
    4      C       3.5405641974    -0.3461403220    -1.4635462243
    5      C       4.4579129402    -1.3053619458    -0.7493937121
    6      C       4.9246251772    -1.0006525362     0.4912487799
    7      O       4.8499449345     0.4780203400     2.3116826797
    8      O       3.1261376038    -0.6218494532    -2.5734962110
    9      C       6.9637254416    -1.4806784668     1.6597070759
   10      C       5.6681572130    -3.3784004962    -1.1535761250
   11      H       7.3896212753    -2.3466035106     2.1648930582
   12      H       6.8921429049    -0.6433260180     2.3518558025
   13      H       7.5904318674    -1.2135576495     0.8012703610
   14      H       5.6575888858    -4.0723054455    -1.9924898476
   15      H       5.4216115569    -3.8942063896    -0.2273804461
   16      C       2.2594955104     1.8511543049    -1.6011250918
   17      C       0.7980882377     1.5440804086    -1.3572700519
   18      C      -0.1832814697     2.3897170862    -1.0143152004
   19      C      -1.5947846307     1.8696271829    -0.8273130756
   20      C      -2.0722851044     1.8543185804     0.6470713712
   21      C      -3.4995752693     1.3988372592     0.7772372411
   22      C      -3.9794886210     0.2988388511     1.3748232827
   23      C      -5.4697042398     0.0230259467     1.3740665800
   24      C      -5.8917959645    -1.1879106508     0.5045704162
   25      C      -7.3700154824    -1.4530879157     0.5786402937
   26      C      -8.2819208003    -1.3931471453    -0.4010334617
   27      C      -9.7357611175    -1.6907087622    -0.1234122782
   28      C      -0.0093299565     3.8755430319    -0.8162386423
   29      C      -3.1308029589    -0.7257838143     2.0874944559
   30      C      -7.9837671554    -1.0430835978    -1.8373857714
   31      H       2.4755428506     1.6935566652    -2.6621530743
   32      H       2.4927065031     2.8898568070    -1.3681805730
   33      H       0.5345947440     0.4993572608    -1.5073030819
   34      H      -1.6679278660     0.8540660573    -1.2259305979
   35      H      -2.2892071645     2.4867491610    -1.4128039941
   36      H      -1.9892101789     2.8664994056     1.0615826381
   37      H      -1.3938460981     1.2256146214     1.2277525497
   38      H      -4.2258227864     2.0610510307     0.3051973359
   39      H      -6.0066012956     0.9078630119     1.0203315745
   40      H      -5.8057709186    -0.1556618219     2.4045119040
   41      H      -5.3585642699    -2.0813542488     0.8516386372
   42      H      -5.5646455642    -1.0139934100    -0.5230010427
   43      H      -7.7296482607    -1.7165964464     1.5735156912
   44      H      -9.9063408733    -1.9392705220     0.9260155106
   45      H     -10.0884763971    -2.5301257422    -0.7346796672
   46      H       1.0194693994     4.2109133276    -0.9458068216
   47      H      -0.3383757244     4.1864000715     0.1807628822
   48      H      -0.6294702842     4.4255370166    -1.5337154608
   49      H      -2.0729156461    -0.4660332761     2.1069550947
   50      H      -3.2199133615    -1.7106454666     1.6169692132
   51      H      -3.4671192270    -0.8436508206     3.1243027711
   52      H      -6.9344261547    -0.8116321230    -2.0173019326
   53      H      -8.5789534682    -0.1776790870    -2.1517814269
   54      H      -8.2647932839    -1.8700753638    -2.5003152629
   55      H     -10.3680464748    -0.8317756385    -0.3784532441
   56      O       4.6748727336    -2.3975533562    -1.4869403603
   57      O       5.6606768466    -1.8957318219     1.2131138681
   58      C       3.2672113919     2.4857553409     1.1760825173
   59      H       6.6548436504    -2.9174976888    -1.0693820407
   60      H       2.2028129506     2.7106989561     1.0895271565
   61      H       3.8212336578     3.3387123212     0.7679593739
   62      H       3.5317371157     2.3911583532     2.2279102443
 ----------------------------------------------------------------

   15   -1236.1757609142      6.76e-09  Convergence criterion met
 Total energy in the final basis set =    -1236.1757609142
   10   -1236.1962776351      9.28e-09  Convergence criterion met
 Total energy in the final basis set =    -1236.1962776351

                    Orbital Energies (a.u.)
 --------------------------------------------------------------

 Alpha MOs
 -- Occupied --
-19.1802 -19.1593 -19.1414 -19.1352 -10.2883 -10.2835 -10.2676 -10.2514
-10.2239 -10.2171 -10.2126 -10.2086 -10.1808 -10.1787 -10.1748 -10.1730
-10.1707 -10.1671 -10.1667 -10.1661 -10.1649 -10.1644 -10.1616 -10.1585
-10.1583 -10.1581 -10.1579 -10.1577  -1.1050  -1.0819  -1.0689  -1.0559
 -0.8648  -0.8293  -0.8214  -0.8099  -0.8026  -0.7693  -0.7521  -0.7433
 -0.7322  -0.7177  -0.6896  -0.6893  -0.6847  -0.6758  -0.6668  -0.6518
 -0.6208  -0.5986  -0.5953  -0.5854  -0.5566  -0.5336  -0.5229  -0.5184
 -0.5151  -0.5117  -0.4959  -0.4796  -0.4763  -0.4746  -0.4680  -0.4643
 -0.4641  -0.4540  -0.4458  -0.4446  -0.4411  -0.4344  -0.4308  -0.4291
 -0.4249  -0.4198  -0.4130  -0.4102  -0.4088  -0.4059  -0.4038  -0.3953
 -0.3880  -0.3816  -0.3790  -0.3728  -0.3714  -0.3700  -0.3685  -0.3634
 -0.3627  -0.3587  -0.3566  -0.3557  -0.3497  -0.3353  -0.3302  -0.3268
 -0.3174  -0.3135  -0.2894  -0.2866  -0.2755  -0.2501  -0.2450  -0.2399
 -0.2274

          Ground-State Mulliken Net Atomic Charges

     Atom                 Charge (a.u.)
  ----------------------------------------
      1 C                    -0.722811
      2 C                     0.744477
      3 C                     1.177902
      4 C                    -0.853734
      5 C                    -0.068631
      6 C                     0.046169
      7 O                    -0.316808
      8 O                    -0.274946
      9 C                    -0.317996
     10 C                    -0.317686
     11 H                     0.180062
     12 H                     0.176727
     13 H                     0.157465
     14 H                     0.205956
     15 H                     0.205457
     16 C                     0.047339
     17 C                    -0.822584
     18 C                     0.760416
     19 C                    -0.547816
     20 C                    -0.133246
     21 C                    -0.355282
     22 C                     0.551097
     23 C                    -0.614205
     24 C                    -0.247561
     25 C                    -0.002543
     26 C                     0.278890
     27 C                    -0.637043
     28 C                    -0.743534
     29 C                    -0.786699
     30 C                    -0.705959
     31 H                     0.226701
     32 H                     0.214425
     33 H                     0.237399
     34 H                     0.170624
     35 H                     0.152718
     36 H                     0.140638
     37 H                     0.130194
     38 H                     0.210624
     39 H                     0.172202
     40 H                     0.144136
     41 H                     0.130034
     42 H                     0.148444
     43 H                     0.204652
     44 H                     0.157885
     45 H                     0.155031
     46 H                     0.123422
     47 H                     0.172416
     48 H                     0.179838
     49 H                     0.136439
     50 H                     0.178588
     51 H                     0.172404
     52 H                     0.147674
     53 H                     0.155502
     54 H                     0.152776
     55 H                     0.158208
     56 O                    -0.208893
     57 O                    -0.228713
     58 C                    -0.600796
     59 H                     0.193518
     60 H                     0.182907
     61 H                     0.231830
     62 H                     0.194299
  ----------------------------------------
  Sum of atomic charges =     0.000000

                    Cartesian Multipole Moments
 -----------------------------------------------------------------
    Charge (ESU x 10^10)
                -0.0000
    Dipole Moment (Debye)
         X       2.0161      Y       1.0761      Z       0.3535
       Tot       2.3125
    Quadrupole Moments (Debye-Ang)
        XX    -136.3606     XY      -7.7756     YY    -157.3585
        XZ       0.3011     YZ      -5.0939     ZZ    -190.5917

 Total job time:  797.47s(wall), 6097.49s(cpu)
        *  Thank you very much for using Q-Chem.  Have a nice day.  *
