 Q-Chem 5.4, Q-Chem, Inc., Pleasanton, CA (2021)
 Q-Chem 5.4.0 for Intel X86 EM64T Linux

User input:
--------------------------------------------------------------
$molecule
-2 1
C                 -1.6023750000      3.4042230000     -0.3784800000
C                 -2.6045690000      3.4804420000      0.5683820000
C                 -2.6284230000      2.5643940000      1.6497970000
C                 -0.5808840000      2.4228170000     -0.2996140000
C                 -0.6030430000      1.4904650000      0.8007000000
C                 -1.6397350000      1.5970340000      1.7467650000
C                  0.4536610000      2.3516610000     -1.2854810000
C                  1.4279350000      1.3217240000     -1.0989580000
C                  1.4467410000      0.3983790000     -0.0541460000
C                  0.4169040000      0.4452610000      0.9575950000
O                  0.5840770000      3.1301940000     -2.3180680000
O                  0.3797710000     -0.3679910000      1.9400640000
O                  2.3859940000      1.3233010000     -2.0887990000
C                  2.5226660000     -0.6616990000      0.0702010000
C                  2.5364890000     -1.6681630000     -1.1172290000
C                  3.9438450000     -0.0991640000      0.2746510000
C                  4.9474470000     -1.2118640000      0.6551810000
C                  4.6642920000     -2.5811890000     -0.0292660000
C                  3.9178230000     -2.3229580000     -1.3502630000
C                  5.9538350000     -3.4305380000     -0.1812480000
C                  5.7064860000     -4.8133870000     -0.8216630000
C                  6.6843680000     -3.6257730000      1.1656800000
C                  7.9710780000     -4.4547720000      1.0357090000
C                  7.7093870000     -5.8162430000      0.3851490000
C                  6.9890450000     -5.6490240000     -0.9556990000
H                 -1.5640600000      4.0946470000     -1.2151250000
H                 -3.3763470000      4.2432070000      0.4849300000
H                 -3.4160990000      2.6215960000      2.3974660000
H                 -1.6295810000      0.8814180000      2.5627630000
H                  2.0612450000      2.0840540000     -2.6339140000
H                  2.2601760000     -1.2110760000      0.9799730000
H                  2.2303070000     -1.1589070000     -2.0333840000
H                  1.7909660000     -2.4474530000     -0.9180520000
H                  3.9239880000      0.6602160000      1.0625800000
H                  4.2630560000      0.4118690000     -0.6381620000
H                  4.9424910000     -1.3470270000      1.7421880000
H                  5.9631610000     -0.8850330000      0.3909730000
H                  3.9829160000     -3.1498590000      0.6209560000
H                  3.7827480000     -3.2482450000     -1.9189950000
H                  4.5367980000     -1.6665270000     -1.9768090000
H                  6.6335060000     -2.8743250000     -0.8477400000
H                  5.2485110000     -4.6994180000     -1.8081740000
H                  4.9797610000     -5.3613310000     -0.2048910000
H                  5.9996910000     -4.1285790000      1.8637250000
H                  6.9203760000     -2.6559420000      1.6121640000
H                  8.4380210000     -4.5872910000      2.0205100000
H                  8.6978940000     -3.8998660000      0.4264010000
H                  7.0829170000     -6.4202770000      1.0564230000
H                  8.6454280000     -6.3751530000      0.2579230000
H                  6.7585210000     -6.6310680000     -1.3889830000
H                  7.6668830000     -5.1553700000     -1.6659480000
$end
$rem
MAX_SCF_CYCLES=200
BASIS  =  6-311++G(d,p)
GUI  =  2
JOB_TYPE  =  SP
METHOD  =  B3LYP
THRESH = 14
SCF_CONVERGENCE  = 6
SOLVENT_METHOD = COSMO
$end
$solvent
dielectric 37.219
opticaldielectric 1.43
$end

--------------------------------------------------------------

             Standard Nuclear Orientation (Angstroms)
    I     Atom           X                Y                Z
 ----------------------------------------------------------------
    1      C       5.8681482347    -0.4405565279     0.0307755589
    2      C       6.6757438017     0.6717559956    -0.1007540835
    3      C       6.0940734806     1.9559205859    -0.2482406813
    4      C       4.4533814442    -0.3347224923     0.0233236391
    5      C       3.8597725842     0.9713752388    -0.1256710252
    6      C       4.7133063984     2.0827250531    -0.2579882846
    7      C       3.6246439921    -1.4930350038     0.1603879899
    8      C       2.2138298570    -1.2607597901     0.1398311967
    9      C       1.5951210370    -0.0192627543    -0.0031243073
   10      C       2.4044323694     1.1690453226    -0.1421246716
   11      O       4.0357249245    -2.7179550340     0.3016015319
   12      O       1.9001520116     2.3337977567    -0.2727236728
   13      O       1.4905432301    -2.4250124390     0.2778057045
   14      C       0.0877948215     0.1380839480    -0.0103245590
   15      C      -0.6026224430    -0.5933508304    -1.1983809673
   16      C      -0.5974514224    -0.2764616771     1.3074708304
   17      C      -2.0834580605     0.1491508164     1.3350320747
   18      C      -2.7889071286     0.0761157388    -0.0508621836
   19      C      -2.0716842565    -0.9804621784    -0.9100284935
   20      C      -4.3180889014    -0.1465979794     0.0884759180
   21      C      -5.0588720693    -0.1859110761    -1.2655104317
   22      C      -4.9812807269     0.9166950132     0.9915788031
   23      C      -6.4946140251     0.7077135164     1.1525244140
   24      C      -7.2105612751     0.6562588271    -0.2002821971
   25      C      -6.5735572179    -0.3951166815    -1.1132791966
   26      H       6.2911719724    -1.4336454531     0.1445889985
   27      H       7.7585903521     0.5632511822    -0.0914795804
   28      H       6.7270386106     2.8341735848    -0.3518809131
   29      H       4.2371489168     3.0517889071    -0.3686743210
   30      H       2.2340794887    -3.0756588254     0.3497119991
   31      H      -0.0733658074     1.2139992156    -0.1321226248
   32      H      -0.0435648023    -1.4977863745    -1.4471378278
   33      H      -0.5624172469     0.0613975044    -2.0772763451
   34      H      -0.0704646444     0.1812586498     2.1504782041
   35      H      -0.5041746574    -1.3585740889     1.4363511472
   36      H      -2.1598397369     1.1709308905     1.7223422040
   37      H      -2.6269276774    -0.4899445477     2.0453117315
   38      H      -2.6524516997     1.0463108990    -0.5514106213
   39      H      -2.5913429795    -1.1413021434    -1.8597351287
   40      H      -2.1029620269    -1.9408933550    -0.3778769601
   41      H      -4.4617029113    -1.1267169921     0.5724995670
   42      H      -4.6499995534    -0.9771412194    -1.9001064550
   43      H      -4.8750711910     0.7603856625    -1.7942062538
   44      H      -4.7981240004     1.9086413883     0.5541324722
   45      H      -4.5084687901     0.9238764104     1.9774881330
   46      H      -6.9225357550     1.5010504155     1.7793653969
   47      H      -6.6737852080    -0.2342499548     1.6892188444
   48      H      -7.1384350129     1.6413904343    -0.6821992397
   49      H      -8.2823882307     0.4601075545    -0.0681790090
   50      H      -7.0584676173    -0.3879401641    -2.0982143007
   51      H      -6.7578040852    -1.3929702383    -0.6914336810
 ----------------------------------------------------------------

  132   -1079.9824987501      5.03e-07  Convergence criterion met
 Total energy in the final basis set =    -1079.9824987501
    8   -1080.2391282615      2.50e-07  Convergence criterion met
 Total energy in the final basis set =    -1080.2391282615

                    Orbital Energies (a.u.)
 --------------------------------------------------------------

 Alpha MOs
 -- Occupied --
-19.1097 -19.0309 -19.0217 -10.1769 -10.1757 -10.1630 -10.1571 -10.1544
-10.1527 -10.1525 -10.1520 -10.1496 -10.1494 -10.1482 -10.1457 -10.1447
-10.1445 -10.1445 -10.1435 -10.1410 -10.1400 -10.1390 -10.1370 -10.1329
-10.1238  -1.0252  -0.9453  -0.9359  -0.8298  -0.8248  -0.8068  -0.7695
 -0.7461  -0.7303  -0.7220  -0.7163  -0.7129  -0.6800  -0.6363  -0.6114
 -0.6061  -0.5849  -0.5835  -0.5773  -0.5564  -0.5420  -0.5353  -0.5144
 -0.4957  -0.4758  -0.4679  -0.4656  -0.4455  -0.4345  -0.4308  -0.4251
 -0.4218  -0.4192  -0.4062  -0.4038  -0.3990  -0.3948  -0.3798  -0.3760
 -0.3753  -0.3689  -0.3611  -0.3557  -0.3539  -0.3516  -0.3467  -0.3461
 -0.3334  -0.3311  -0.3295  -0.3232  -0.3195  -0.3162  -0.3065  -0.3041
 -0.2995  -0.2959  -0.2950  -0.2760  -0.2741  -0.2683  -0.2310  -0.2276
 -0.2201  -0.1994  -0.1917  -0.1102

          Ground-State Mulliken Net Atomic Charges

     Atom                 Charge (a.u.)
  ----------------------------------------
      1 C                    -0.073276
      2 C                    -0.442610
      3 C                    -0.557195
      4 C                     0.367622
      5 C                     0.280588
      6 C                    -0.065486
      7 C                    -0.632485
      8 C                    -0.305536
      9 C                     0.588119
     10 C                    -0.417475
     11 O                    -0.767138
     12 O                    -0.693877
     13 O                    -0.327660
     14 C                     0.864347
     15 C                    -0.895449
     16 C                    -1.164953
     17 C                    -0.329880
     18 C                     0.476434
     19 C                    -0.608047
     20 C                     0.142965
     21 C                    -0.313542
     22 C                    -0.249211
     23 C                    -0.386559
     24 C                    -0.414131
     25 C                    -0.497613
     26 H                     0.156374
     27 H                     0.173876
     28 H                     0.174723
     29 H                     0.157783
     30 H                     0.299943
     31 H                     0.237089
     32 H                     0.183566
     33 H                     0.169107
     34 H                     0.187326
     35 H                     0.171345
     36 H                     0.141994
     37 H                     0.162390
     38 H                     0.161931
     39 H                     0.132117
     40 H                     0.169449
     41 H                     0.160167
     42 H                     0.142440
     43 H                     0.167615
     44 H                     0.168535
     45 H                     0.163653
     46 H                     0.176281
     47 H                     0.144166
     48 H                     0.126964
     49 H                     0.178300
     50 H                     0.176791
     51 H                     0.138125
  ----------------------------------------
  Sum of atomic charges =    -2.000000

                    Cartesian Multipole Moments
 -----------------------------------------------------------------
    Charge (ESU x 10^10)
                -9.6064
    Dipole Moment (Debye)
         X     -29.3399      Y       1.2591      Z      -0.0406
       Tot      29.3669
    Quadrupole Moments (Debye-Ang)
        XX    -278.3632     XY      15.5508     YY    -209.1566
        XZ      -1.2623     YZ       4.7990     ZZ    -165.6680

 Total job time:  3191.80s(wall), 25069.58s(cpu)
        *  Thank you very much for using Q-Chem.  Have a nice day.  *
