 Q-Chem 5.4, Q-Chem, Inc., Pleasanton, CA (2021)
 Q-Chem 5.4.0 for Intel X86 EM64T Linux

User input:
--------------------------------------------------------------
$molecule
-1 2
C                 -2.1767190000     -2.1014920000      4.9811520000
C                 -1.2991420000     -3.1441910000      4.4844160000
C                 -1.2403990000     -3.3830210000      3.1268500000
C                 -2.0101080000     -2.6529800000      2.1370340000
C                 -2.8681570000     -1.6114520000      2.6407180000
C                 -2.9402850000     -1.3321990000      3.9851810000
O                 -2.3357830000     -1.8164960000      6.2143430000
O                 -1.9220190000     -2.9249490000      0.9044630000
N                 -3.6980260000     -0.3121040000      4.5474640000
C                 -4.8840240000      0.2420160000      3.9203050000
C                 -6.0530540000     -0.7592700000      3.8422310000
C                 -5.2919780000      1.5178380000      4.6641670000
H                 -3.4412280000     -1.0539230000      1.9067870000
H                 -3.7153390000     -0.4183820000      5.5596750000
H                 -4.6132470000      0.5244380000      2.8962250000
H                 -6.8987640000     -0.3394480000      3.2850220000
H                 -6.3989980000     -1.0187640000      4.8487410000
H                 -5.7341620000     -1.6771950000      3.3442920000
H                 -6.1713770000      1.9771960000      4.2021060000
H                 -4.4740890000      2.2425400000      4.6626250000
H                 -5.5417190000      1.2917330000      5.7072770000
C                 -0.4680500000     -3.9585280000      5.4946800000
C                 -1.4111680000     -4.7000930000      6.4731410000
C                  0.4203310000     -5.0142330000      4.8093650000
C                  0.4585340000     -3.0115020000      6.2951760000
H                 -0.6013200000     -4.1551830000      2.7162050000
H                 -2.0450630000     -3.9884680000      7.0017890000
H                 -0.8272170000     -5.2729250000      7.2052340000
H                 -2.0512510000     -5.4011960000      5.9272410000
H                  0.9900090000     -5.5584150000      5.5710010000
H                  1.1348340000     -4.5577970000      4.1182400000
H                 -0.1720780000     -5.7436600000      4.2495450000
H                 -0.1291290000     -2.2572260000      6.8181460000
H                  1.1584610000     -2.5051170000      5.6222480000
H                  1.0442050000     -3.5811830000      7.0282930000
$end
$rem
MAX_SCF_CYCLES=200
BASIS  =  6-311++G(d,p)
GUI  =  2
JOB_TYPE  =  SP
METHOD  =  B3LYP
SOLVENT_METHOD = COSMO
$end
$solvent
dielectric 37.219
opticaldielectric 1.43
$end

--------------------------------------------------------------

             Standard Nuclear Orientation (Angstroms)
    I     Atom           X                Y                Z
 ----------------------------------------------------------------
    1      C      -0.2238567861    -0.6125279135    -0.1368762867
    2      C      -1.4585668112     0.1423031304    -0.0377274172
    3      C      -1.4058938549     1.5209456324    -0.0445365651
    4      C      -0.1789763495     2.2889955595    -0.1441370908
    5      C       1.0395034494     1.5289193164    -0.2551205018
    6      C       1.0257831357     0.1540130376    -0.2696091947
    7      O      -0.1499624599    -1.8856921224    -0.1072681066
    8      O      -0.1928993372     3.5541712937    -0.1344113089
    9      N       2.1463917879    -0.6522738301    -0.4279289339
   10      C       3.4906856414    -0.2308643085    -0.0782766892
   11      C       3.6888073505    -0.0304228822     1.4369366182
   12      C       4.4933699848    -1.2428488066    -0.6421830645
   13      H       1.9616934360     2.0949799362    -0.3390530517
   14      H       1.8993822820    -1.6209518374    -0.2360563614
   15      H       3.6729670181     0.7307684588    -0.5720966330
   16      H       4.6843141698     0.3725576637     1.6572333225
   17      H       3.5794989598    -0.9845530103     1.9639699586
   18      H       2.9420426741     0.6629766678     1.8290606331
   19      H       5.5217371072    -0.9430802967    -0.4175664063
   20      H       4.3812771647    -1.3330924359    -1.7254323756
   21      H       4.3296250152    -2.2330507522    -0.2014334735
   22      C      -2.7896923721    -0.6245796670     0.0826367302
   23      C      -2.7805021168    -1.4938261758     1.3636918366
   24      C      -4.0056288961     0.3178581641     0.1644890464
   25      C      -2.9829987276    -1.5361348562    -1.1534497513
   26      H      -2.3044227811     2.1210166114     0.0319227544
   27      H      -1.9479138945    -2.1966112416     1.3393664810
   28      H      -3.7203821506    -2.0542696988     1.4510074196
   29      H      -2.6793849757    -0.8615647195     2.2521057312
   30      H      -4.9216853294    -0.2781970427     0.2439577246
   31      H      -4.0918259953     0.9486911009    -0.7249613404
   32      H      -3.9552501348     0.9726358018     1.0392111906
   33      H      -2.1545840200    -2.2388992806    -1.2407935697
   34      H      -3.0289109243    -0.9341531643    -2.0670501997
   35      H      -3.9222276448    -2.0981007037    -1.0694799645
 ----------------------------------------------------------------

   11    -712.2881609030      6.00e-06  Convergence criterion met
 Total energy in the final basis set =     -712.2881609030
    4    -712.3749416918      6.32e-06  Convergence criterion met
 Total energy in the final basis set =     -712.3749416918

                    Orbital Energies (a.u.)
 --------------------------------------------------------------

 Alpha MOs
 -- Occupied --
-19.0752 -19.0710 -14.3102 -10.2159 -10.2145 -10.2020 -10.2008 -10.1786
-10.1666 -10.1544 -10.1513 -10.1506 -10.1468 -10.1428 -10.1427 -10.1417
 -0.9999  -0.9921  -0.9222  -0.8268  -0.7952  -0.7632  -0.7149  -0.6826
 -0.6794  -0.6723  -0.6659  -0.6158  -0.5763  -0.5707  -0.5203  -0.4919
 -0.4852  -0.4596  -0.4501  -0.4410  -0.4374  -0.4292  -0.4210  -0.4142
 -0.4061  -0.4027  -0.3833  -0.3820  -0.3803  -0.3720  -0.3663  -0.3654
 -0.3594  -0.3535  -0.3449  -0.3350  -0.3269  -0.3227  -0.3157  -0.2994
 -0.2645  -0.2425  -0.2348  -0.2073  -0.1532

 Beta MOs
 -- Occupied --
-19.0685 -19.0654 -14.3093 -10.2133 -10.2131 -10.2020 -10.1997 -10.1786
-10.1661 -10.1544 -10.1512 -10.1483 -10.1468 -10.1427 -10.1427 -10.1418
 -0.9886  -0.9822  -0.9195  -0.8235  -0.7929  -0.7613  -0.7132  -0.6823
 -0.6768  -0.6722  -0.6579  -0.6136  -0.5745  -0.5673  -0.5185  -0.4894
 -0.4840  -0.4569  -0.4481  -0.4394  -0.4367  -0.4276  -0.4168  -0.4126
 -0.4004  -0.3941  -0.3825  -0.3817  -0.3716  -0.3679  -0.3652  -0.3578
 -0.3560  -0.3491  -0.3369  -0.3345  -0.3254  -0.3214  -0.3152  -0.2863
 -0.2407  -0.2370  -0.2294  -0.1997

          Ground-State Mulliken Net Atomic Charges

     Atom                 Charge (a.u.)    Spin (a.u.)
  --------------------------------------------------------
      1 C                    -1.493577       0.195545
      2 C                     1.090654       0.008801
      3 C                    -0.603902       0.162259
      4 C                    -0.354861       0.089264
      5 C                     0.667188       0.002658
      6 C                     0.008921       0.077412
      7 O                    -0.473985       0.248552
      8 O                    -0.579937       0.184088
      9 N                    -0.024244       0.044760
     10 C                    -0.050439      -0.004991
     11 C                    -0.545852       0.005322
     12 C                    -0.550062       0.002276
     13 H                     0.208737      -0.001108
     14 H                     0.310882      -0.002117
     15 H                     0.141710       0.000574
     16 H                     0.149543       0.000539
     17 H                     0.163731       0.000281
     18 H                     0.149405      -0.001298
     19 H                     0.162691      -0.000104
     20 H                     0.160243       0.000631
     21 H                     0.150006      -0.000096
     22 C                     0.591917      -0.014747
     23 C                    -0.692994       0.007457
     24 C                    -0.491377       0.001312
     25 C                    -0.690912       0.006473
     26 H                     0.191744      -0.012677
     27 H                     0.185042      -0.000905
     28 H                     0.149876       0.000213
     29 H                     0.140003       0.000864
     30 H                     0.176720       0.000151
     31 H                     0.139448      -0.000602
     32 H                     0.139055      -0.000586
     33 H                     0.182602      -0.001162
     34 H                     0.140313       0.000780
     35 H                     0.151711       0.000184
  --------------------------------------------------------
  Sum of atomic charges =    -1.000000

                    Cartesian Multipole Moments
 -----------------------------------------------------------------
    Charge (ESU x 10^10)
                -4.8032
    Dipole Moment (Debye)
         X       2.4280      Y      -6.5857      Z       1.3258
       Tot       7.1431
    Quadrupole Moments (Debye-Ang)
        XX     -94.9081     XY       0.3244     YY    -150.7734
        XZ       0.9673     YZ       0.3222     ZZ    -106.3521

 Total job time:  157.50s(wall), 912.31s(cpu)
        *  Thank you very much for using Q-Chem.  Have a nice day.  *
