 Q-Chem 5.4, Q-Chem, Inc., Pleasanton, CA (2021)
 Q-Chem 5.4.0 for Intel X86 EM64T Linux

User input:
--------------------------------------------------------------
$molecule
-2 1
F                 -2.6821130000      0.5685850000     -0.0156720000
C                 -1.3366710000      0.2344390000     -0.0072050000
C                 -0.4245870000      1.2889830000     -0.0170640000
F                 -0.9489580000      2.5719810000     -0.0344000000
C                  0.9951030000      1.1503340000     -0.0107260000
O                  1.8421330000      2.1295670000     -0.0199220000
C                  1.3366420000     -0.2344470000      0.0072170000
C                  0.4245790000     -1.2889550000      0.0170760000
F                  0.9489990000     -2.5719340000      0.0343630000
C                 -0.9950340000     -1.1502970000      0.0107830000
O                 -1.8421740000     -2.1296130000      0.0199140000
F                  2.6820820000     -0.5686440000      0.0156360000
$end
$rem
MAX_SCF_CYCLES=200
BASIS  =  6-311++G(d,p)
GUI  =  2
JOB_TYPE  =  SP
METHOD  =  B3LYP
SOLVENT_METHOD = COSMO
$end
$solvent
dielectric 37.219
opticaldielectric 1.43
$end

--------------------------------------------------------------

             Standard Nuclear Orientation (Angstroms)
    I     Atom           X                Y                Z
 ----------------------------------------------------------------
    1      F       2.4005165525     1.3246825217    -0.0000168200
    2      C       1.1643222650     0.6971770652     0.0000030387
    3      C       1.1645054767    -0.6971175368     0.0000055425
    4      F       2.4005614043    -1.3244253513    -0.0000114902
    5      C       0.0000720015    -1.5210581249     0.0000334113
    6      O       0.0001796970    -2.8158328707    -0.0000056186
    7      C      -1.1643045458    -0.6971549064     0.0000143316
    8      C      -1.1644800887     0.6970987316     0.0000121974
    9      F      -2.4005601333     1.3243597725    -0.0000196944
   10      C      -0.0000994275     1.5209824542     0.0000291839
   11      O      -0.0001775529     2.8158914764     0.0000025672
   12      F      -2.4005301836    -1.3246208255    -0.0000144200
 ----------------------------------------------------------------

   10    -778.6243315408      4.31e-06  Convergence criterion met
 Total energy in the final basis set =     -778.6243315408
    5    -778.9199256571      3.83e-06  Convergence criterion met
 Total energy in the final basis set =     -778.9199256571

                    Orbital Energies (a.u.)
 --------------------------------------------------------------

 Alpha MOs
 -- Occupied --
-24.6741 -24.6741 -24.6741 -24.6741 -19.0423 -19.0423 -10.2285 -10.2285
-10.2280 -10.2280 -10.2058 -10.2058  -1.2094  -1.2088  -1.1955  -1.1951
 -0.9558  -0.9528  -0.8213  -0.7238  -0.6937  -0.6073  -0.5981  -0.5318
 -0.5272  -0.5241  -0.4906  -0.4723  -0.4614  -0.4564  -0.4372  -0.4315
 -0.4197  -0.4071  -0.3904  -0.3812  -0.3699  -0.3579  -0.3554  -0.3325
 -0.2482  -0.2288  -0.2269  -0.2196  -0.1467

          Ground-State Mulliken Net Atomic Charges

     Atom                 Charge (a.u.)
  ----------------------------------------
      1 F                    -0.272887
      2 C                     0.076836
      3 C                     0.077296
      4 F                    -0.272739
      5 C                     0.159370
      6 O                    -0.768061
      7 C                     0.077499
      8 C                     0.076534
      9 F                    -0.272777
     10 C                     0.160071
     11 O                    -0.768217
     12 F                    -0.272926
  ----------------------------------------
  Sum of atomic charges =    -2.000000

                    Cartesian Multipole Moments
 -----------------------------------------------------------------
    Charge (ESU x 10^10)
                -9.6064
    Dipole Moment (Debye)
         X      -0.0003      Y      -0.0020      Z       0.0001
       Tot       0.0020
    Quadrupole Moments (Debye-Ang)
        XX     -93.0213     XY      -0.0017     YY    -136.7704
        XZ      -0.0001     YZ      -0.0019     ZZ     -68.6389

 Total job time:  15.19s(wall), 104.69s(cpu)
        *  Thank you very much for using Q-Chem.  Have a nice day.  *
