 Gaussian 16, Revision A.03,
 Gaussian 16:  ES64L-G16RevA.03 25-Dec-2016

 ----------------------------------------------------------------------
 #P UB3LYP/6-311++G(d,p) nosym opt freq SCRF=(PCM,Solvent=n,n-DiMethylF
 ormamide)
 ----------------------------------------------------------------------

 -------
 Radical
 -------
 Symbolic Z-matrix:
 Charge = -1 Multiplicity = 2

 SCF Done:  E(UB3LYP) =  -799.851697321     A.U. after   17 cycles
 SCF Done:  E(UB3LYP) =  -799.851978320     A.U. after   13 cycles
 SCF Done:  E(UB3LYP) =  -799.852109294     A.U. after   14 cycles
 SCF Done:  E(UB3LYP) =  -799.852165969     A.U. after   13 cycles
 SCF Done:  E(UB3LYP) =  -799.852198006     A.U. after   12 cycles
 SCF Done:  E(UB3LYP) =  -799.852206767     A.U. after   12 cycles
 SCF Done:  E(UB3LYP) =  -799.852209244     A.U. after   11 cycles
 SCF Done:  E(UB3LYP) =  -799.852209851     A.U. after   10 cycles
 Optimization completed.
    -- Stationary point found.
 Normal termination of Gaussian 16 at Sat Feb 10 17:11:56 2024.

 ----------------------------------------------------------------------
 #P Geom=AllCheck Guess=TCheck SCRF=Check GenChk UB3LYP/6-311++G(d,p) F
 req
 ----------------------------------------------------------------------

 Structure from the checkpoint file:  "166-rad.chk"
 -------
 Radical
 -------
 Charge = -1 Multiplicity = 2

                          Input orientation:
 ---------------------------------------------------------------------
 Center     Atomic      Atomic             Coordinates (Angstroms)
 Number     Number       Type             X           Y           Z
 ---------------------------------------------------------------------
      1          7           0       -2.051269    2.895319   -0.199941
      2          6           0       -2.053120    1.519601    0.008219
      3          6           0       -3.278998    0.854156    0.095717
      4          6           0       -3.349170   -0.529305    0.207809
      5          6           0       -2.197038   -1.319804    0.238318
      6          7           0       -2.334599   -2.704171    0.252943
      7          6           0       -0.913147   -0.685520    0.203289
      8          6           0        0.296417   -1.483377    0.324210
      9          8           0        0.282164   -2.753255    0.463717
     10          6           0        1.576836   -0.786803    0.294301
     11          6           0        2.778532   -1.527038    0.387963
     12          6           0        4.008688   -0.901167    0.366757
     13          6           0        4.080171    0.504402    0.252538
     14          6           0        2.919706    1.246487    0.162267
     15          6           0        1.648648    0.625760    0.179094
     16          6           0        0.445126    1.443091    0.084953
     17          8           0        0.560009    2.713597    0.016550
     18          6           0       -0.839728    0.762136    0.085506
     19          1           0       -1.148480    3.328975   -0.021012
     20          1           0       -2.868893    3.387601    0.130165
     21          1           0       -4.194983    1.435578    0.054706
     22          1           0       -4.319216   -1.014893    0.253575
     23          1           0       -3.195692   -3.052979    0.648611
     24          1           0       -1.478837   -3.192065    0.507197
     25          1           0        2.705046   -2.603638    0.476894
     26          1           0        4.919370   -1.486339    0.437688
     27          1           0        5.045846    0.998366    0.235766
     28          1           0        2.956611    2.325284    0.075527
 ---------------------------------------------------------------------

 SCF Done:  E(UB3LYP) =  -799.852209851     A.U. after    2 cycles

 Alpha  occ. eigenvalues --  -19.07069 -19.07068 -14.29959 -14.29956 -10.22195
 Alpha  occ. eigenvalues --  -10.22194 -10.20654 -10.20653 -10.17076 -10.17065
 Alpha  occ. eigenvalues --  -10.17040 -10.17018 -10.16933 -10.16889 -10.16759
 Alpha  occ. eigenvalues --  -10.16754 -10.16305 -10.16249  -0.99602  -0.99316
 Alpha  occ. eigenvalues --   -0.91069  -0.90072  -0.85504  -0.81905  -0.77888
 Alpha  occ. eigenvalues --   -0.74776  -0.73646  -0.71300  -0.66213  -0.63411
 Alpha  occ. eigenvalues --   -0.62343  -0.58050  -0.55761  -0.54460  -0.52967
 Alpha  occ. eigenvalues --   -0.50852  -0.48585  -0.47232  -0.47111  -0.45714
 Alpha  occ. eigenvalues --   -0.44495  -0.43495  -0.42153  -0.42076  -0.40797
 Alpha  occ. eigenvalues --   -0.40508  -0.39049  -0.38260  -0.37874  -0.37055
 Alpha  occ. eigenvalues --   -0.36991  -0.34533  -0.34099  -0.33559  -0.33363
 Alpha  occ. eigenvalues --   -0.27270  -0.25901  -0.25396  -0.24516  -0.24194
 Alpha  occ. eigenvalues --   -0.23490  -0.19142  -0.13202
 Alpha virt. eigenvalues --   -0.04470  -0.02026  -0.00264   0.00415   0.00817
 Alpha virt. eigenvalues --    0.01087   0.02039   0.02113   0.03551   0.04217
 Alpha virt. eigenvalues --    0.04381   0.04824   0.05199   0.05872   0.06170

  Beta  occ. eigenvalues --  -19.06605 -19.06604 -14.29886 -14.29883 -10.22017
  Beta  occ. eigenvalues --  -10.22016 -10.20601 -10.20599 -10.17086 -10.17050
  Beta  occ. eigenvalues --  -10.17020 -10.16973 -10.16858 -10.16817 -10.16756
  Beta  occ. eigenvalues --  -10.16749 -10.16184 -10.16128  -0.98807  -0.98495
  Beta  occ. eigenvalues --   -0.90871  -0.89898  -0.85300  -0.81724  -0.77501
  Beta  occ. eigenvalues --   -0.74576  -0.73485  -0.71006  -0.65561  -0.63231
  Beta  occ. eigenvalues --   -0.62092  -0.57953  -0.55571  -0.54225  -0.52874
  Beta  occ. eigenvalues --   -0.50765  -0.48453  -0.47121  -0.46810  -0.45613
  Beta  occ. eigenvalues --   -0.44351  -0.43368  -0.42041  -0.41256  -0.40652
  Beta  occ. eigenvalues --   -0.40016  -0.38841  -0.37837  -0.36929  -0.36732
  Beta  occ. eigenvalues --   -0.36292  -0.34390  -0.33279  -0.32984  -0.32559
  Beta  occ. eigenvalues --   -0.26335  -0.24767  -0.24358  -0.24114  -0.23776
  Beta  occ. eigenvalues --   -0.23072  -0.17949
  Beta virt. eigenvalues --   -0.07966  -0.03500  -0.01010  -0.00246   0.00423
  Beta virt. eigenvalues --    0.00837   0.01575   0.02064   0.02116   0.03594
  Beta virt. eigenvalues --    0.04235   0.04401   0.04911   0.05913   0.06075

 Mulliken charges and spin densities:
               1          2
     1  N   -0.416405   0.031135
     2  C   -0.146432   0.053700
     3  C   -0.297686   0.097953
     4  C   -0.299358   0.098138
     5  C   -0.145475   0.053537
     6  N   -0.416996   0.031158
     7  C    0.506985  -0.019679
     8  C   -0.336829   0.094073
     9  O   -0.479804   0.168353
    10  C   -0.021669   0.028179
    11  C    0.100987   0.026364
    12  C   -0.481667   0.035227
    13  C   -0.481782   0.035085
    14  C    0.099897   0.026481
    15  C   -0.022977   0.028181
    16  C   -0.334464   0.094196
    17  O   -0.480041   0.168414
    18  C    0.505705  -0.019604
    19  H    0.305652  -0.002979
    20  H    0.257918  -0.001295
    21  H    0.168611  -0.007245
    22  H    0.168583  -0.007258
    23  H    0.258152  -0.001295
    24  H    0.305835  -0.002979
    25  H    0.163590  -0.000959
    26  H    0.178094  -0.002959
    27  H    0.178067  -0.002951
    28  H    0.163507  -0.000969
 Sum of Mulliken charges =  -1.00000   1.00000

 Dipole moment (field-independent basis, Debye):
    X=             -2.8277    Y=              0.2986    Z=              0.9388  Tot=              2.9944
 Quadrupole moment (field-independent basis, Debye-Ang):
   XX=           -100.2139   YY=           -132.6915   ZZ=           -114.4934
   XY=             -2.0584   XZ=             -5.6912   YZ=              1.8059

  Exact polarizability: 530.674  -5.706 399.261   9.997 -21.202 146.315
 Approx polarizability: 546.718  -3.172 467.725   8.931 -25.121 166.508

                      1                      2                      3
                      A                      A                      A
 Frequencies --     47.8536                75.0805               125.3092
 Red. masses --      6.8274                 5.3745                 4.5807
 Frc consts  --      0.0092                 0.0179                 0.0424
 IR Inten    --     14.7638                 0.0221                 4.2690

                      4                      5                      6
                      A                      A                      A
 Frequencies --    126.9932               173.3081               219.2546
 Red. masses --      4.9347                 7.2029                 4.8440
 Frc consts  --      0.0469                 0.1275                 0.1372
 IR Inten    --      1.3742                 0.9922                16.2254

                      7                      8                      9
                      A                      A                      A
 Frequencies --    249.2026               323.4170               330.6118
 Red. masses --      4.7160                 4.5965                 2.8254
 Frc consts  --      0.1726                 0.2833                 0.1820
 IR Inten    --     10.7311                 4.6586                86.9019

                     10                     11                     12
                      A                      A                      A
 Frequencies --    350.7239               382.2370               400.8644
 Red. masses --      4.7873                 6.8179                 2.3696
 Frc consts  --      0.3470                 0.5869                 0.2244
 IR Inten    --      9.1268                43.5403               141.1164

                     13                     14                     15
                      A                      A                      A
 Frequencies --    415.7934               416.4372               418.4386
 Red. masses --      2.4096                 1.7683                 4.2504
 Frc consts  --      0.2454                 0.1807                 0.4385
 IR Inten    --    131.4017               267.6291                43.3845

                     16                     17                     18
                      A                      A                      A
 Frequencies --    435.7003               442.8265               471.2946
 Red. masses --      4.7910                 4.0180                 3.3052
 Frc consts  --      0.5359                 0.4642                 0.4325
 IR Inten    --     28.4440               143.9617                29.7945

                     19                     20                     21
                      A                      A                      A
 Frequencies --    479.1262               501.7141               515.8195
 Red. masses --      3.5340                 4.5430                 7.0346
 Frc consts  --      0.4780                 0.6738                 1.1028
 IR Inten    --      0.7315                 6.8968                 3.3154

                     22                     23                     24
                      A                      A                      A
 Frequencies --    590.1478               594.7135               644.9056
 Red. masses --      2.6472                 4.9077                 4.7742
 Frc consts  --      0.5432                 1.0227                 1.1699
 IR Inten    --    128.4990                89.9208                 0.7118

                     25                     26                     27
                      A                      A                      A
 Frequencies --    659.3222               662.7228               673.8901
 Red. masses --      5.3436                 1.3619                 1.3950
 Frc consts  --      1.3686                 0.3524                 0.3732
 IR Inten    --     13.5511               312.5975               194.5050

                     28                     29                     30
                      A                      A                      A
 Frequencies --    708.7819               728.8881               740.5179
 Red. masses --      6.2660                 2.0136                 5.7384
 Frc consts  --      1.8547                 0.6303                 1.8540
 IR Inten    --     10.4872               134.6084                 8.1222

                     31                     32                     33
                      A                      A                      A
 Frequencies --    773.2022               791.9509               798.2657
 Red. masses --      4.6723                 1.9261                 5.7432
 Frc consts  --      1.6458                 0.7118                 2.1562
 IR Inten    --      0.0491                56.1427                 0.4681

                     34                     35                     36
                      A                      A                      A
 Frequencies --    814.4496               866.7812               881.7552
 Red. masses --      1.8084                 6.8892                 1.4788
 Frc consts  --      0.7068                 3.0496                 0.6774
 IR Inten    --     61.6687                57.4564                 0.0064

                     37                     38                     39
                      A                      A                      A
 Frequencies --    906.7935               911.3345               964.1515
 Red. masses --      3.6044                 1.6094                 5.5621
 Frc consts  --      1.7462                 0.7875                 3.0464
 IR Inten    --     35.2011                 6.3574                81.4724

                     40                     41                     42
                      A                      A                      A
 Frequencies --    987.2366               998.4503              1029.6905
 Red. masses --      1.3663                 1.2822                 2.6072
 Frc consts  --      0.7846                 0.7531                 1.6287
 IR Inten    --      2.5408                 0.0207                61.6205

                     43                     44                     45
                      A                      A                      A
 Frequencies --   1051.4438              1109.9558              1136.6921
 Red. masses --      1.8784                 2.2374                 1.3940
 Frc consts  --      1.2235                 1.6241                 1.0612
 IR Inten    --      3.8329               118.0930               176.5996

                     46                     47                     48
                      A                      A                      A
 Frequencies --   1146.5971              1153.8212              1187.8306
 Red. masses --      1.4666                 1.9030                 1.2608
 Frc consts  --      1.1360                 1.4927                 1.0481
 IR Inten    --     12.6866                47.1685               142.6874

                     49                     50                     51
                      A                      A                      A
 Frequencies --   1202.5851              1233.5756              1248.8202
 Red. masses --      1.8991                 3.4551                 2.3703
 Frc consts  --      1.6182                 3.0977                 2.1779
 IR Inten    --      1.0296                 8.0735               304.7736

                     52                     53                     54
                      A                      A                      A
 Frequencies --   1264.8130              1301.0239              1349.8519
 Red. masses --      5.1975                 2.4533                 7.3512
 Frc consts  --      4.8989                 2.4466                 7.8919
 IR Inten    --     59.0037                 4.1202                15.4882

                     55                     56                     57
                      A                      A                      A
 Frequencies --   1362.2052              1378.6450              1402.2313
 Red. masses --     10.0860                 2.9385                 2.7473
 Frc consts  --     11.0270                 3.2906                 3.1827
 IR Inten    --     16.8095                 2.6940              1600.3285

                     58                     59                     60
                      A                      A                      A
 Frequencies --   1411.3549              1462.2697              1477.8546
 Red. masses --      4.5703                 3.1254                 3.4842
 Frc consts  --      5.3638                 3.9374                 4.4835
 IR Inten    --    210.8911                21.7847               370.0724

                     61                     62                     63
                      A                      A                      A
 Frequencies --   1497.8445              1499.1329              1564.1077
 Red. masses --      2.7700                 3.8548                 2.7685
 Frc consts  --      3.6616                 5.1042                 3.9905
 IR Inten    --     81.3489              1225.5185               108.9360

                     64                     65                     66
                      A                      A                      A
 Frequencies --   1581.6275              1589.0830              1593.6004
 Red. masses --      1.5578                 2.6684                 1.6637
 Frc consts  --      2.2959                 3.9700                 2.4894
 IR Inten    --    209.3452                33.8788               408.3892

                     67                     68                     69
                      A                      A                      A
 Frequencies --   1623.3511              1626.1405              3146.1711
 Red. masses --      5.6396                 7.3466                 1.0860
 Frc consts  --      8.7564                11.4459                 6.3335
 IR Inten    --      0.6297                95.0593                52.3037

                     70                     71                     72
                      A                      A                      A
 Frequencies --   3157.3480              3163.2311              3172.1814
 Red. masses --      1.0861                 1.0941                 1.0912
 Frc consts  --      6.3794                 6.4502                 6.4696
 IR Inten    --     16.5681                55.3262                31.8313

                     73                     74                     75
                      A                      A                      A
 Frequencies --   3193.5196              3196.1973              3427.0958
 Red. masses --      1.0914                 1.0934                 1.0580
 Frc consts  --      6.5578                 6.5808                 7.3215
 IR Inten    --     12.7928                44.8481               167.3840

                     76                     77                     78
                      A                      A                      A
 Frequencies --   3427.6363              3626.0914              3627.2179
 Red. masses --      1.0578                 1.0906                 1.0906
 Frc consts  --      7.3221                 8.4491                 8.4537
 IR Inten    --     52.8704                66.9728                80.7816

 - Thermochemistry -
 -------------------
 Temperature   298.150 Kelvin.  Pressure   1.00000 Atm.
 Atom     1 has atomic number  7 and mass  14.00307

 Molecular mass:   238.07423 amu.
 Principal axes and moments of inertia in atomic units:
                           1         2         3
     Eigenvalues --  2571.959394688.201237255.74235
           X            0.99840   0.05058  -0.02525
           Y           -0.04835   0.99543   0.08231
           Z            0.02930  -0.08095   0.99629
 This molecule is an asymmetric top.
 Rotational symmetry number  1.
 Warning -- assumption of classical behavior for rotation
           may cause significant error
 Rotational temperatures (Kelvin)      0.03368     0.01847     0.01194
 Rotational constants (GHZ):           0.70170     0.38495     0.24873
 Zero-point vibrational energy     551616.7 (Joules/Mol)
                                  131.83955 (Kcal/Mol)
 Warning -- explicit consideration of  23 degrees of freedom as
           vibrations may cause significant error
 Vibrational temperatures:     68.85   108.02   180.29   182.71   249.35
          (Kelvin)            315.46   358.55   465.32   475.68   504.61
                              549.95   576.75   598.23   599.16   602.04
                              626.88   637.13   678.09   689.36   721.85
                              742.15   849.09   855.66   927.88   948.62
                              953.51   969.58  1019.78  1048.71  1065.44
                             1112.47  1139.44  1148.53  1171.81  1247.10
                             1268.65  1304.67  1311.21  1387.20  1420.41
                             1436.55  1481.49  1512.79  1596.98  1635.45
                             1649.70  1660.09  1709.02  1730.25  1774.84
                             1796.77  1819.78  1871.88  1942.14  1959.91
                             1983.56  2017.50  2030.62  2103.88  2126.30
                             2155.06  2156.92  2250.40  2275.61  2286.34
                             2292.84  2335.64  2339.65  4526.64  4542.72
                             4551.18  4564.06  4594.76  4598.62  4930.83
                             4931.60  5217.14  5218.76

 Zero-point correction=                           0.210100 (Hartree/Particle)
 Thermal correction to Energy=                    0.223803
 Thermal correction to Enthalpy=                  0.224747
 Thermal correction to Gibbs Free Energy=         0.169617
 Sum of electronic and zero-point Energies=           -799.642110
 Sum of electronic and thermal Energies=              -799.628407
 Sum of electronic and thermal Enthalpies=            -799.627463
 Sum of electronic and thermal Free Energies=         -799.682593

                     E (Thermal)             CV                S
                      KCal/Mol        Cal/Mol-Kelvin    Cal/Mol-Kelvin
 Total                  140.438             57.053            116.030
 Electronic               0.000              0.000              1.377
 Translational            0.889              2.981             42.304
 Rotational               0.889              2.981             32.836
 Vibrational            138.661             51.091             39.513
 Vibration     1          0.595              1.978              4.904
 Vibration     2          0.599              1.966              4.016
 Vibration     3          0.610              1.928              3.017
 Vibration     4          0.611              1.926              2.991
 Vibration     5          0.627              1.875              2.399
 Vibration     6          0.647              1.812              1.965
 Vibration     7          0.662              1.764              1.736
 Vibration     8          0.708              1.629              1.293
 Vibration     9          0.713              1.614              1.257
 Vibration    10          0.728              1.574              1.163
 Vibration    11          0.752              1.508              1.030
 Vibration    12          0.767              1.468              0.959
 Vibration    13          0.779              1.436              0.906
 Vibration    14          0.780              1.435              0.904
 Vibration    15          0.781              1.430              0.897
 Vibration    16          0.796              1.392              0.840
 Vibration    17          0.802              1.377              0.818
 Vibration    18          0.828              1.314              0.734
 Vibration    19          0.836              1.296              0.712
 Vibration    20          0.857              1.246              0.654
 Vibration    21          0.871              1.215              0.620
 Vibration    22          0.947              1.053              0.467
 Vibration    23          0.952              1.043              0.459

                           ! Non-Optimized Parameters !
 Normal termination of Gaussian 16 at Sat Feb 10 17:47:54 2024.
