 Gaussian 16, Revision A.03,
 Gaussian 16:  ES64L-G16RevA.03 25-Dec-2016

 --------------------------------------
 #P UB3LYP/6-311++G(d,p) nosym opt freq
 --------------------------------------

 -------
 Reduced
 -------
 Symbolic Z-matrix:
 Charge = -2 Multiplicity = 1

 SCF Done:  E(UB3LYP) =  -1161.33260085     A.U. after   27 cycles
 Optimization completed.
    -- Stationary point found.
 Normal termination of Gaussian 16 at Wed Jan 10 04:56:18 2024.

 ----------------------------------------------------------------------
 #P Geom=AllCheck Guess=TCheck SCRF=Check GenChk UB3LYP/6-311++G(d,p) F
 req
 ----------------------------------------------------------------------

 Structure from the checkpoint file:  "066-an.chk"
 -------
 Reduced
 -------
 Charge = -2 Multiplicity = 1

                          Input orientation:
 ---------------------------------------------------------------------
 Center     Atomic      Atomic             Coordinates (Angstroms)
 Number     Number       Type             X           Y           Z
 ---------------------------------------------------------------------
      1          6           0        1.352336   -0.500407    1.858734
      2          6           0        0.936430   -1.542946    0.955740
      3          6           0       -0.221304   -1.495939    0.205360
      4          6           0       -1.160487   -0.395117    0.227929
      5          6           0       -0.772211    0.650206    1.107245
      6          6           0        0.426405    0.606331    1.866073
      7          8           0        2.414540   -0.596270    2.575212
      8          8           0       -2.230533   -0.389989   -0.498502
      9         16           0        0.771896    1.982026    2.923725
     10          6           0        0.762076    1.336274    4.622550
     11          6           0       -0.361485    1.563653    5.423533
     12          6           0        1.857204    0.613985    5.117780
     13          6           0        1.811458    0.131246    6.424833
     14          6           0       -0.390651    1.081267    6.729890
     15          6           0        0.699108    0.363827    7.239480
     16          8           0        2.116766    2.566906    2.713746
     17          8           0       -0.370893    2.935754    2.881620
     18          1           0        1.594846   -2.409591    0.903292
     19          1           0       -0.472671   -2.328403   -0.453220
     20          1           0       -1.406240    1.525752    1.179234
     21          1           0       -1.189934    2.123919    5.006850
     22          1           0        2.680614    0.403978    4.446651
     23          1           0        2.652937   -0.438907    6.809687
     24          1           0       -1.262430    1.264807    7.352524
     25          1           0        0.676146   -0.015823    8.257653
 ---------------------------------------------------------------------

 SCF Done:  E(UB3LYP) =  -1161.33260085     A.U. after    2 cycles

 Alpha  occ. eigenvalues --  -88.79211 -18.85756 -18.85641 -18.78723 -18.76314
 Alpha  occ. eigenvalues --   -9.98296  -9.98165  -9.97943  -9.97824  -9.97463
 Alpha  occ. eigenvalues --   -9.96287  -9.95127  -9.92990  -9.92219  -9.89886
 Alpha  occ. eigenvalues --   -9.89701  -9.88532  -7.85525  -5.81833  -5.81734
 Alpha  occ. eigenvalues --   -5.81573  -0.84481  -0.73919  -0.70413  -0.67567
 Alpha  occ. eigenvalues --   -0.65618  -0.55947  -0.54866  -0.54720  -0.49367
 Alpha  occ. eigenvalues --   -0.43896  -0.41090  -0.40578  -0.37911  -0.33231
 Alpha  occ. eigenvalues --   -0.31729  -0.29724  -0.25524  -0.25217  -0.23857
 Alpha  occ. eigenvalues --   -0.22496  -0.22067  -0.20514  -0.19171  -0.18407
 Alpha  occ. eigenvalues --   -0.17004  -0.16687  -0.15796  -0.14441  -0.11939
 Alpha  occ. eigenvalues --   -0.11460  -0.10026  -0.08329  -0.08286  -0.07000
 Alpha  occ. eigenvalues --   -0.06682  -0.06112  -0.05238  -0.04676  -0.03938
 Alpha  occ. eigenvalues --    0.01054   0.01563   0.03796   0.05906   0.12061
 Alpha virt. eigenvalues --    0.13850   0.15863   0.17356   0.17583   0.18683
 Alpha virt. eigenvalues --    0.18765   0.20440   0.20861   0.21619   0.22574
 Alpha virt. eigenvalues --    0.23563   0.24102   0.24884   0.25218   0.25542

  Beta  occ. eigenvalues --  -88.79211 -18.85756 -18.85641 -18.78723 -18.76314
  Beta  occ. eigenvalues --   -9.98296  -9.98165  -9.97943  -9.97824  -9.97463
  Beta  occ. eigenvalues --   -9.96287  -9.95127  -9.92990  -9.92219  -9.89886
  Beta  occ. eigenvalues --   -9.89701  -9.88532  -7.85525  -5.81833  -5.81734
  Beta  occ. eigenvalues --   -5.81573  -0.84481  -0.73919  -0.70413  -0.67567
  Beta  occ. eigenvalues --   -0.65618  -0.55947  -0.54866  -0.54720  -0.49367
  Beta  occ. eigenvalues --   -0.43896  -0.41090  -0.40578  -0.37911  -0.33231
  Beta  occ. eigenvalues --   -0.31729  -0.29724  -0.25524  -0.25217  -0.23857
  Beta  occ. eigenvalues --   -0.22496  -0.22067  -0.20514  -0.19171  -0.18407
  Beta  occ. eigenvalues --   -0.17004  -0.16687  -0.15796  -0.14441  -0.11939
  Beta  occ. eigenvalues --   -0.11460  -0.10026  -0.08329  -0.08286  -0.07000
  Beta  occ. eigenvalues --   -0.06682  -0.06112  -0.05238  -0.04676  -0.03938
  Beta  occ. eigenvalues --    0.01054   0.01563   0.03796   0.05906   0.12061
  Beta virt. eigenvalues --    0.13850   0.15863   0.17356   0.17583   0.18683
  Beta virt. eigenvalues --    0.18765   0.20440   0.20861   0.21619   0.22574
  Beta virt. eigenvalues --    0.23563   0.24102   0.24884   0.25218   0.25542

 Mulliken charges and spin densities:
               1          2
     1  C   -0.929055  -0.000000
     2  C    0.336598  -0.000000
     3  C    0.204063   0.000000
     4  C   -0.971585   0.000000
     5  C   -0.133048  -0.000000
     6  C    0.653089   0.000000
     7  O   -0.452632   0.000000
     8  O   -0.568015  -0.000000
     9  S    0.083541  -0.000000
    10  C    0.305714  -0.000000
    11  C    0.124799   0.000000
    12  C   -0.308766   0.000000
    13  C   -0.417163   0.000000
    14  C   -0.451803   0.000000
    15  C   -0.284564   0.000000
    16  O   -0.149725  -0.000000
    17  O   -0.268890   0.000000
    18  H    0.093155   0.000000
    19  H    0.080961   0.000000
    20  H    0.195916  -0.000000
    21  H    0.221635   0.000000
    22  H    0.298394   0.000000
    23  H    0.128940  -0.000000
    24  H    0.116676   0.000000
    25  H    0.091766  -0.000000
 Sum of Mulliken charges =  -2.00000  -0.00000

 Dipole moment (field-independent basis, Debye):
    X=             -1.7003    Y=             -4.8754    Z=            -17.1186  Tot=             17.8803
 Quadrupole moment (field-independent basis, Debye-Ang):
   XX=           -155.8296   YY=           -145.5735   ZZ=           -190.0821
   XY=             -7.5407   XZ=            -30.0859   YZ=            -23.4913

  Exact polarizability: 201.867 -11.677 198.454  51.815  68.361 402.430
 Approx polarizability: 363.042 -38.374 339.254  82.073 127.095 671.267

                      1                      2                      3
                      A                      A                      A
 Frequencies --     34.3903                43.0436                85.3056
 Red. masses --      5.9143                 5.7782                 4.8351
 Frc consts  --      0.0041                 0.0063                 0.0207
 IR Inten    --      2.8849                 0.8146                 1.0523

                      4                      5                      6
                      A                      A                      A
 Frequencies --    122.4003               159.7899               168.4736
 Red. masses --      5.9708                11.5106                 8.3913
 Frc consts  --      0.0527                 0.1732                 0.1403
 IR Inten    --      2.8719                 4.4559                 2.0218

                      7                      8                      9
                      A                      A                      A
 Frequencies --    178.2492               227.1180               271.7418
 Red. masses --      7.0655                 5.5209                10.6864
 Frc consts  --      0.1323                 0.1678                 0.4649
 IR Inten    --      2.0262                 5.1361                 0.2142

                     10                     11                     12
                      A                      A                      A
 Frequencies --    282.3714               297.4786               328.0063
 Red. masses --     11.6828                 8.8811                 7.0296
 Frc consts  --      0.5488                 0.4631                 0.4456
 IR Inten    --      2.7100                 1.1747                 1.1731

                     13                     14                     15
                      A                      A                      A
 Frequencies --    392.1761               405.0968               418.4214
 Red. masses --      9.2190                 8.0332                 2.9961
 Frc consts  --      0.8354                 0.7767                 0.3091
 IR Inten    --      1.0197                 0.7771                 0.0632

                     16                     17                     18
                      A                      A                      A
 Frequencies --    435.8937               450.0828               469.5487
 Red. masses --      4.2238                 5.5391                 7.9411
 Frc consts  --      0.4728                 0.6611                 1.0316
 IR Inten    --      3.6367                19.6995                39.4082

                     19                     20                     21
                      A                      A                      A
 Frequencies --    520.4719               549.7167               579.1919
 Red. masses --      5.3164                 5.1205                 5.0873
 Frc consts  --      0.8485                 0.9117                 1.0055
 IR Inten    --     48.9998                36.3573                36.0846

                     22                     23                     24
                      A                      A                      A
 Frequencies --    584.3059               627.2909               679.8313
 Red. masses --      3.4543                 6.3926                 2.7195
 Frc consts  --      0.6949                 1.4821                 0.7405
 IR Inten    --      2.1411                 0.2756                10.7055

                     25                     26                     27
                      A                      A                      A
 Frequencies --    683.6459               701.8907               715.3015
 Red. masses --      2.4841                 5.3737                 3.5941
 Frc consts  --      0.6840                 1.5598                 1.0835
 IR Inten    --     41.4940                 3.6666                 4.0599

                     28                     29                     30
                      A                      A                      A
 Frequencies --    735.0411               804.6511               813.0854
 Red. masses --      2.1779                 1.6908                 2.6665
 Frc consts  --      0.6933                 0.6450                 1.0387
 IR Inten    --      7.1714                10.4224                50.2876

                     31                     32                     33
                      A                      A                      A
 Frequencies --    816.8455               830.2470               869.4817
 Red. masses --      1.7669                 1.9678                 1.7341
 Frc consts  --      0.6946                 0.7992                 0.7724
 IR Inten    --     17.9849                41.6462                13.6805

                     34                     35                     36
                      A                      A                      A
 Frequencies --    877.0994               912.5210               946.3758
 Red. masses --      3.7354                 1.2771                 1.3154
 Frc consts  --      1.6931                 0.6266                 0.6941
 IR Inten    --     12.5993                 0.8139                 3.9116

                     37                     38                     39
                      A                      A                      A
 Frequencies --    962.1778               982.8814              1003.5670
 Red. masses --      1.3237                 2.7964                 5.9149
 Frc consts  --      0.7220                 1.5917                 3.5098
 IR Inten    --      0.2530                25.4539               138.7499

                     40                     41                     42
                      A                      A                      A
 Frequencies --   1031.1145              1042.8234              1081.9908
 Red. masses --      5.1131                 3.0349                 3.4984
 Frc consts  --      3.2029                 1.9445                 2.4130
 IR Inten    --    148.0382               118.3715               231.7891

                     43                     44                     45
                      A                      A                      A
 Frequencies --   1086.7508              1102.6073              1162.8646
 Red. masses --      1.6400                 1.5049                 1.1148
 Frc consts  --      1.1412                 1.0779                 0.8882
 IR Inten    --     20.7313                22.9829                 5.7703

                     46                     47                     48
                      A                      A                      A
 Frequencies --   1180.8381              1187.0344              1193.2588
 Red. masses --      2.6994                 2.0658                 2.3000
 Frc consts  --      2.2177                 1.7150                 1.9295
 IR Inten    --    101.1645                88.9852                46.7088

                     49                     50                     51
                      A                      A                      A
 Frequencies --   1225.4035              1308.0358              1325.4212
 Red. masses --      1.9419                 2.3929                 2.0515
 Frc consts  --      1.7181                 2.4122                 2.1234
 IR Inten    --     43.6070               218.8726                42.8146

                     52                     53                     54
                      A                      A                      A
 Frequencies --   1345.0828              1348.4591              1414.4600
 Red. masses --      3.4319                 3.2381                 6.3352
 Frc consts  --      3.6583                 3.4691                 7.4678
 IR Inten    --     38.6231                85.1104                53.1208

                     55                     56                     57
                      A                      A                      A
 Frequencies --   1443.5498              1458.8372              1479.2614
 Red. masses --      5.2841                 2.2130                 3.9810
 Frc consts  --      6.4877                 2.7749                 5.1325
 IR Inten    --    135.5261                 9.0883               628.0891

                     58                     59                     60
                      A                      A                      A
 Frequencies --   1494.6000              1579.2375              1586.9291
 Red. masses --      1.9919                 5.2572                 5.0870
 Frc consts  --      2.6216                 7.7250                 7.5479
 IR Inten    --     16.5947               265.9411               574.6120

                     61                     62                     63
                      A                      A                      A
 Frequencies --   1615.3272              3079.4752              3110.0201
 Red. masses --      6.0983                 1.0836                 1.0924
 Frc consts  --      9.3751                 6.0546                 6.2252
 IR Inten    --     12.2743                62.7099               162.0935

                     64                     65                     66
                      A                      A                      A
 Frequencies --   3117.0129              3133.1612              3149.1509
 Red. masses --      1.0829                 1.0888                 1.0951
 Frc consts  --      6.1987                 6.2974                 6.3985
 IR Inten    --      1.5168                64.3544                94.1904

                     67                     68                     69
                      A                      A                      A
 Frequencies --   3180.3482              3189.1055              3194.8464
 Red. masses --      1.0873                 1.0914                 1.0928
 Frc consts  --      6.4798                 6.5398                 6.5718
 IR Inten    --     18.9392                 8.4665                 3.8464

 - Thermochemistry -
 -------------------
 Temperature   298.150 Kelvin.  Pressure   1.00000 Atm.
 Atom     1 has atomic number  6 and mass  12.00000

 Molecular mass:   248.01433 amu.
 Principal axes and moments of inertia in atomic units:
                           1         2         3
     Eigenvalues --  2412.102176085.397626454.26502
           X            0.24618  -0.56508   0.78745
           Y            0.25373   0.82169   0.51033
           Z            0.93542  -0.07416  -0.34566
 This molecule is an asymmetric top.
 Rotational symmetry number  1.
 Warning -- assumption of classical behavior for rotation
           may cause significant error
 Rotational temperatures (Kelvin)      0.03591     0.01423     0.01342
 Rotational constants (GHZ):           0.74820     0.29657     0.27962
 Zero-point vibrational energy     447476.4 (Joules/Mol)
                                  106.94943 (Kcal/Mol)
 Warning -- explicit consideration of  22 degrees of freedom as
           vibrations may cause significant error
 Vibrational temperatures:     49.48    61.93   122.74   176.11   229.90
          (Kelvin)            242.40   256.46   326.77   390.98   406.27
                              428.01   471.93   564.25   582.84   602.02
                              627.15   647.57   675.58   748.84   790.92
                              833.33   840.69   902.53   978.13   983.61
                             1009.86  1029.16  1057.56  1157.71  1169.85
                             1175.26  1194.54  1250.99  1261.95  1312.91
                             1361.62  1384.36  1414.15  1443.91  1483.54
                             1500.39  1556.74  1563.59  1586.41  1673.10
                             1698.96  1707.88  1716.83  1763.08  1881.97
                             1906.99  1935.27  1940.13  2035.09  2076.95
                             2098.94  2128.33  2150.40  2272.17  2283.24
                             2324.10  4430.68  4474.63  4484.69  4507.92
                             4530.93  4575.81  4588.41  4596.67

 Zero-point correction=                           0.170435 (Hartree/Particle)
 Thermal correction to Energy=                    0.184585
 Thermal correction to Enthalpy=                  0.185530
 Thermal correction to Gibbs Free Energy=         0.128729
 Sum of electronic and zero-point Energies=          -1161.162166
 Sum of electronic and thermal Energies=             -1161.148015
 Sum of electronic and thermal Enthalpies=           -1161.147071
 Sum of electronic and thermal Free Energies=        -1161.203872

                     E (Thermal)             CV                S
                      KCal/Mol        Cal/Mol-Kelvin    Cal/Mol-Kelvin
 Total                  115.829             55.431            119.547
 Electronic               0.000              0.000              0.000
 Translational            0.889              2.981             42.426
 Rotational               0.889              2.981             32.916
 Vibrational            114.052             49.469             44.206
 Vibration     1          0.594              1.983              5.559
 Vibration     2          0.595              1.980              5.114
 Vibration     3          0.601              1.959              3.765
 Vibration     4          0.610              1.930              3.062
 Vibration     5          0.622              1.892              2.552
 Vibration     6          0.625              1.881              2.452
 Vibration     7          0.629              1.869              2.347
 Vibration     8          0.651              1.800              1.902
 Vibration     9          0.675              1.725              1.585
 Vibration    10          0.681              1.706              1.519
 Vibration    11          0.691              1.678              1.431
 Vibration    12          0.711              1.620              1.270
 Vibration    13          0.760              1.487              0.992
 Vibration    14          0.770              1.459              0.944
 Vibration    15          0.781              1.430              0.897
 Vibration    16          0.796              1.392              0.840
 Vibration    17          0.809              1.361              0.796
 Vibration    18          0.827              1.318              0.739
 Vibration    19          0.875              1.205              0.609
 Vibration    20          0.905              1.140              0.545
 Vibration    21          0.936              1.076              0.487
 Vibration    22          0.941              1.065              0.477

 Optimization completed.
    -- Stationary point found.
 Normal termination of Gaussian 16 at Wed Jan 10 06:17:50 2024.
