 Q-Chem 5.4, Q-Chem, Inc., Pleasanton, CA (2021)
 Q-Chem 5.4.0 for Intel X86 EM64T Linux

User input:
--------------------------------------------------------------
$molecule
-2 1
C                  1.3523360000     -0.5004070000      1.8587340000
C                  0.9364300000     -1.5429460000      0.9557400000
C                 -0.2213040000     -1.4959390000      0.2053600000
C                 -1.1604870000     -0.3951170000      0.2279290000
C                 -0.7722110000      0.6502060000      1.1072450000
C                  0.4264050000      0.6063310000      1.8660730000
O                  2.4145400000     -0.5962700000      2.5752120000
O                 -2.2305330000     -0.3899890000     -0.4985020000
S                  0.7718960000      1.9820260000      2.9237250000
C                  0.7620760000      1.3362740000      4.6225500000
C                 -0.3614850000      1.5636530000      5.4235330000
C                  1.8572040000      0.6139850000      5.1177800000
C                  1.8114580000      0.1312460000      6.4248330000
C                 -0.3906510000      1.0812670000      6.7298900000
C                  0.6991080000      0.3638270000      7.2394800000
O                  2.1167660000      2.5669060000      2.7137460000
O                 -0.3708930000      2.9357540000      2.8816200000
H                  1.5948460000     -2.4095910000      0.9032920000
H                 -0.4726710000     -2.3284030000     -0.4532200000
H                 -1.4062400000      1.5257520000      1.1792340000
H                 -1.1899340000      2.1239190000      5.0068500000
H                  2.6806140000      0.4039780000      4.4466510000
H                  2.6529370000     -0.4389070000      6.8096870000
H                 -1.2624300000      1.2648070000      7.3525240000
H                  0.6761460000     -0.0158230000      8.2576530000
$end

$rem
BASIS  =  6-311++G(d,p)
GUI  =  2
JOB_TYPE  =  SP
METHOD  =  B3LYP
SCF_CONVERGENCE  = 8
SOLVENT_METHOD = sm12
$end

$smx
solvent dimethylformamide
charges CM5
$end

--------------------------------------------------------------

             Standard Nuclear Orientation (Angstroms)
    I     Atom           X                Y                Z
 ----------------------------------------------------------------
    1      C       1.3523360000    -0.5004070000     1.8587340000
    2      C       0.9364300000    -1.5429460000     0.9557400000
    3      C      -0.2213040000    -1.4959390000     0.2053600000
    4      C      -1.1604870000    -0.3951170000     0.2279290000
    5      C      -0.7722110000     0.6502060000     1.1072450000
    6      C       0.4264050000     0.6063310000     1.8660730000
    7      O       2.4145400000    -0.5962700000     2.5752120000
    8      O      -2.2305330000    -0.3899890000    -0.4985020000
    9      S       0.7718960000     1.9820260000     2.9237250000
   10      C       0.7620760000     1.3362740000     4.6225500000
   11      C      -0.3614850000     1.5636530000     5.4235330000
   12      C       1.8572040000     0.6139850000     5.1177800000
   13      C       1.8114580000     0.1312460000     6.4248330000
   14      C      -0.3906510000     1.0812670000     6.7298900000
   15      C       0.6991080000     0.3638270000     7.2394800000
   16      O       2.1167660000     2.5669060000     2.7137460000
   17      O      -0.3708930000     2.9357540000     2.8816200000
   18      H       1.5948460000    -2.4095910000     0.9032920000
   19      H      -0.4726710000    -2.3284030000    -0.4532200000
   20      H      -1.4062400000     1.5257520000     1.1792340000
   21      H      -1.1899340000     2.1239190000     5.0068500000
   22      H       2.6806140000     0.4039780000     4.4466510000
   23      H       2.6529370000    -0.4389070000     6.8096870000
   24      H      -1.2624300000     1.2648070000     7.3525240000
   25      H       0.6761460000    -0.0158230000     8.2576530000
 ----------------------------------------------------------------

   18   -1161.3201960538      4.10e-09  Convergence criterion met
 Total energy in the final basis set =    -1161.6050805282

                    Orbital Energies (a.u.)
 --------------------------------------------------------------

 Alpha MOs
 -- Occupied --
-89.0337 -19.0981 -19.0975 -19.0351 -19.0227 -10.2080 -10.2037 -10.1933
-10.1930 -10.1914 -10.1893 -10.1893 -10.1858 -10.1731 -10.1575 -10.1554
-10.1473  -8.0970  -6.0601  -6.0590  -6.0576  -1.0856  -0.9797  -0.9545
 -0.9357  -0.8726  -0.8087  -0.7762  -0.7622  -0.7440  -0.6859  -0.6556
 -0.6211  -0.6111  -0.5765  -0.5588  -0.5270  -0.4818  -0.4750  -0.4666
 -0.4587  -0.4521  -0.4485  -0.4354  -0.4302  -0.4166  -0.3880  -0.3839
 -0.3733  -0.3713  -0.3579  -0.3549  -0.3411  -0.3283  -0.3207  -0.3052
 -0.2900  -0.2862  -0.2723  -0.2694  -0.2465  -0.2404  -0.2107  -0.2000
 -0.1368

          Ground-State Mulliken Net Atomic Charges

     Atom                 Charge (a.u.)
  ----------------------------------------
      1 C                    -0.421774
      2 C                     0.020333
      3 C                    -0.240141
      4 C                    -1.477599
      5 C                    -1.551505
      6 C                     0.788459
      7 O                    -0.265772
      8 O                    -0.455790
      9 S                     0.039187
     10 C                    -2.395447
     11 C                     0.097586
     12 C                    -1.876768
     13 C                     0.808554
     14 C                     1.314523
     15 C                     1.967695
     16 O                    -0.078789
     17 O                    -0.176062
     18 H                     0.161167
     19 H                     0.113913
     20 H                     0.023375
     21 H                     0.244527
     22 H                     0.105903
     23 H                     0.360684
     24 H                     0.408852
     25 H                     0.484889
  ----------------------------------------
  Sum of atomic charges =    -2.000000

                    Cartesian Multipole Moments
 -----------------------------------------------------------------
    Charge (ESU x 10^10)
                -9.6064
    Dipole Moment (Debye)
         X      -1.2464      Y      -4.1114      Z     -11.8685
       Tot      12.6221
    Quadrupole Moments (Debye-Ang)
        XX    -156.2474     XY      -7.7843     YY    -146.3924
        XZ     -28.2871     YZ     -21.1793     ZZ    -146.9491

 Total job time:  600.24s(wall), 4541.40s(cpu)
        *  Thank you very much for using Q-Chem.  Have a nice day.  *
