 Q-Chem 5.4, Q-Chem, Inc., Pleasanton, CA (2021)
 Q-Chem 5.4.0 for Intel X86 EM64T Linux

User input:
--------------------------------------------------------------
$molecule
-3 2
O                 -6.0357430000      0.3386830000     -1.2298600000
S                 -5.4113760000      0.5802900000      0.1079000000
O                 -5.2906750000      2.0227580000      0.4554000000
O                 -6.0450560000     -0.2421660000      1.1847950000
C                 -3.7060410000     -0.0599270000     -0.0398440000
C                 -3.5401440000     -1.4238740000     -0.3747090000
C                 -2.2746820000     -1.9534850000     -0.4965930000
C                 -1.1159490000     -1.1645860000     -0.2943940000
C                  0.2020350000     -1.7790060000     -0.4368880000
O                  0.3410250000     -3.0024320000     -0.7372520000
C                  1.3508780000     -0.9042170000     -0.2137190000
C                  2.6592170000     -1.4327810000     -0.3352380000
C                  3.7758720000     -0.6518220000     -0.1354530000
C                  3.6317090000      0.7143870000      0.2001480000
C                  2.3692360000      1.2593490000      0.3260220000
C                  1.2045740000      0.4732700000      0.1246440000
C                 -0.1239700000      1.0912270000      0.2679670000
O                 -0.2614900000      2.3019940000      0.5653210000
C                 -1.2823030000      0.2107970000      0.0432730000
C                 -2.5957810000      0.7353800000      0.1636520000
S                  5.1529600000      1.6955180000      0.4515450000
O                  5.8931940000      1.6065250000     -0.8453380000
O                  4.7119990000      3.0763910000      0.7902970000
O                  5.8791990000      1.0105950000      1.5656200000
H                 -4.4191670000     -2.0389030000     -0.5326190000
H                 -2.1246560000     -2.9968170000     -0.7526900000
H                  2.7468360000     -2.4827280000     -0.5932520000
H                  4.7721300000     -1.0690980000     -0.2315680000
H                  2.2500810000      2.3042540000      0.5826520000
H                 -2.7139090000      1.7804250000      0.4201830000
$end
$rem
MAX_SCF_CYCLES=200
BASIS  =  6-311++G(d,p)
GUI  =  2
JOB_TYPE  =  SP
METHOD  =  B3LYP
SOLVENT_METHOD = PCM
$end
$pcm
theory = CPCM
$end
$solvent
dielectric 37.219
opticaldielectric 1.43
$end

--------------------------------------------------------------

             Standard Nuclear Orientation (Angstroms)
    I     Atom           X                Y                Z
 ----------------------------------------------------------------
    1      O      -6.0357430000     0.3386830000    -1.2298600000
    2      S      -5.4113760000     0.5802900000     0.1079000000
    3      O      -5.2906750000     2.0227580000     0.4554000000
    4      O      -6.0450560000    -0.2421660000     1.1847950000
    5      C      -3.7060410000    -0.0599270000    -0.0398440000
    6      C      -3.5401440000    -1.4238740000    -0.3747090000
    7      C      -2.2746820000    -1.9534850000    -0.4965930000
    8      C      -1.1159490000    -1.1645860000    -0.2943940000
    9      C       0.2020350000    -1.7790060000    -0.4368880000
   10      O       0.3410250000    -3.0024320000    -0.7372520000
   11      C       1.3508780000    -0.9042170000    -0.2137190000
   12      C       2.6592170000    -1.4327810000    -0.3352380000
   13      C       3.7758720000    -0.6518220000    -0.1354530000
   14      C       3.6317090000     0.7143870000     0.2001480000
   15      C       2.3692360000     1.2593490000     0.3260220000
   16      C       1.2045740000     0.4732700000     0.1246440000
   17      C      -0.1239700000     1.0912270000     0.2679670000
   18      O      -0.2614900000     2.3019940000     0.5653210000
   19      C      -1.2823030000     0.2107970000     0.0432730000
   20      C      -2.5957810000     0.7353800000     0.1636520000
   21      S       5.1529600000     1.6955180000     0.4515450000
   22      O       5.8931940000     1.6065250000    -0.8453380000
   23      O       4.7119990000     3.0763910000     0.7902970000
   24      O       5.8791990000     1.0105950000     1.5656200000
   25      H      -4.4191670000    -2.0389030000    -0.5326190000
   26      H      -2.1246560000    -2.9968170000    -0.7526900000
   27      H       2.7468360000    -2.4827280000    -0.5932520000
   28      H       4.7721300000    -1.0690980000    -0.2315680000
   29      H       2.2500810000     2.3042540000     0.5826520000
   30      H      -2.7139090000     1.7804250000     0.4201830000
 ----------------------------------------------------------------

    8   -1936.0390883436      8.39e-06  Convergence criterion met
 Total energy in the final basis set =    -1936.0390883436

                    Orbital Energies (a.u.)
 --------------------------------------------------------------

 Alpha MOs
 -- Occupied --
-89.0433 -89.0432 -19.0899 -19.0898 -19.0875 -19.0875 -19.0875 -19.0875
-19.0809 -19.0779 -10.2321 -10.2270 -10.1956 -10.1956 -10.1800 -10.1800
-10.1789 -10.1789 -10.1780 -10.1780 -10.1778 -10.1778 -10.1732 -10.1732
 -8.1021  -8.1021  -6.0649  -6.0648  -6.0647  -6.0647  -6.0637  -6.0637
 -1.1040  -1.1040  -1.0077  -0.9992  -0.9703  -0.9702  -0.9654  -0.9654
 -0.8669  -0.8578  -0.7942  -0.7575  -0.7571  -0.7484  -0.6789  -0.6566
 -0.6417  -0.6027  -0.5940  -0.5746  -0.5596  -0.5248  -0.5231  -0.4910
 -0.4823  -0.4775  -0.4610  -0.4507  -0.4505  -0.4490  -0.4460  -0.4302
 -0.4287  -0.4244  -0.4239  -0.4195  -0.4144  -0.3964  -0.3825  -0.3776
 -0.3750  -0.3516  -0.3506  -0.3409  -0.3323  -0.3317  -0.3317  -0.3317
 -0.3017  -0.2992  -0.2940  -0.2939  -0.2901  -0.2884  -0.2651  -0.2615
 -0.2577  -0.2538  -0.2537  -0.2498  -0.2463  -0.2410  -0.1466

 Beta MOs
 -- Occupied --
-89.0433 -89.0432 -19.0899 -19.0898 -19.0875 -19.0875 -19.0875 -19.0875
-19.0759 -19.0725 -10.2304 -10.2250 -10.1950 -10.1950 -10.1793 -10.1793
-10.1789 -10.1789 -10.1775 -10.1775 -10.1770 -10.1770 -10.1732 -10.1732
 -8.1021  -8.1021  -6.0649  -6.0648  -6.0647  -6.0647  -6.0637  -6.0637
 -1.1040  -1.1039  -0.9988  -0.9893  -0.9702  -0.9702  -0.9654  -0.9653
 -0.8643  -0.8566  -0.7902  -0.7561  -0.7545  -0.7468  -0.6729  -0.6537
 -0.6400  -0.6014  -0.5927  -0.5738  -0.5570  -0.5239  -0.5214  -0.4897
 -0.4813  -0.4754  -0.4601  -0.4504  -0.4503  -0.4486  -0.4453  -0.4299
 -0.4279  -0.4221  -0.4184  -0.4118  -0.4098  -0.3937  -0.3763  -0.3718
 -0.3594  -0.3500  -0.3426  -0.3393  -0.3322  -0.3316  -0.3315  -0.3310
 -0.3006  -0.2939  -0.2939  -0.2928  -0.2896  -0.2879  -0.2579  -0.2537
 -0.2537  -0.2505  -0.2460  -0.2450  -0.2415  -0.2362

          Ground-State Mulliken Net Atomic Charges

     Atom                 Charge (a.u.)    Spin (a.u.)
  --------------------------------------------------------
      1 O                    -0.378616      -0.000464
      2 S                     0.861547       0.001714
      3 O                    -0.415840       0.000296
      4 O                    -0.376848      -0.000429
      5 C                    -1.134765       0.031022
      6 C                    -0.552822       0.039354
      7 C                    -0.252379       0.033489
      8 C                     0.640740       0.035364
      9 C                    -0.307412       0.108511
     10 O                    -0.467440       0.212002
     11 C                     0.641298       0.035265
     12 C                    -0.250837       0.033538
     13 C                    -0.549210       0.039314
     14 C                    -1.140978       0.031080
     15 C                     0.089807       0.007717
     16 C                     0.477879       0.057389
     17 C                    -0.953846       0.089278
     18 O                    -0.445405       0.190386
     19 C                     0.477851       0.057295
     20 C                     0.092734       0.007721
     21 S                     0.862197       0.001730
     22 O                    -0.378430      -0.000442
     23 O                    -0.415615       0.000297
     24 O                    -0.378203      -0.000458
     25 H                     0.235658      -0.003225
     26 H                     0.175338      -0.001488
     27 H                     0.175374      -0.001487
     28 H                     0.236008      -0.003222
     29 H                     0.216280      -0.000772
     30 H                     0.215899      -0.000772
  --------------------------------------------------------
  Sum of atomic charges =    -3.000037

                    Cartesian Multipole Moments
 -----------------------------------------------------------------
    Charge (ESU x 10^10)
               -14.4098
    Dipole Moment (Debye)
         X       1.5103      Y     -13.3172      Z      -3.2753
       Tot      13.7969
    Quadrupole Moments (Debye-Ang)
        XX    -515.7081     XY     -30.6242     YY    -225.4431
        XZ      -9.7334     YZ     -11.7801     ZZ    -181.4410

 Total job time:  82.34s(wall), 590.83s(cpu)
        *  Thank you very much for using Q-Chem.  Have a nice day.  *
