 Gaussian 16, Revision A.03,
 Gaussian 16:  ES64L-G16RevA.03 25-Dec-2016

 ----------------------------------------------------------------------
 #P UB3LYP/6-311++G(d,p) nosym opt freq SCRF=(PCM,Solvent=n,n-DiMethylF
 ormamide)
 ----------------------------------------------------------------------

 -------
 Reduced
 -------
 Symbolic Z-matrix:
 Charge = -2 Multiplicity = 1

 SCF Done:  E(UB3LYP) =  -754.619432801     A.U. after   17 cycles
 SCF Done:  E(UB3LYP) =  -754.620511300     A.U. after   14 cycles
 SCF Done:  E(UB3LYP) =  -754.620686692     A.U. after   13 cycles
 SCF Done:  E(UB3LYP) =  -754.620701365     A.U. after   12 cycles
 SCF Done:  E(UB3LYP) =  -754.620703696     A.U. after   10 cycles
 SCF Done:  E(UB3LYP) =  -754.620704587     A.U. after   10 cycles
 Optimization completed.
    -- Stationary point found.
 Normal termination of Gaussian 16 at Sun Feb 11 16:23:30 2024.

 ----------------------------------------------------------------------
 #P Geom=AllCheck Guess=TCheck SCRF=Check GenChk UB3LYP/6-311++G(d,p) F
 req
 ----------------------------------------------------------------------

 Structure from the checkpoint file:  "348-an.chk"
 -------
 Reduced
 -------
 Charge = -2 Multiplicity = 1

                          Input orientation:
 ---------------------------------------------------------------------
 Center     Atomic      Atomic             Coordinates (Angstroms)
 Number     Number       Type             X           Y           Z
 ---------------------------------------------------------------------
      1          8           0        3.902468    2.762460    0.995405
      2          6           0        3.015492    1.894375    1.045744
      3          7           0        2.944532    0.931680    2.000714
      4          6           0        1.951533   -0.106853    2.120481
      5          8           0        2.108060   -0.895705    3.102171
      6          6           0        0.946391   -0.110466    1.141819
      7          7           0       -0.083858   -1.076749    1.148913
      8          6           0       -0.996576   -0.982447    0.160956
      9          6           0       -2.090305   -1.894817    0.072567
     10          6           0       -3.050915   -1.818995   -0.944138
     11          6           0       -2.979064   -0.836207   -1.927198
     12          6           0       -1.905651    0.086359   -1.868206
     13          6           0       -0.940579    0.036515   -0.871679
     14          7           0        0.100848    0.988369   -0.863564
     15          6           0        0.969182    0.873236    0.115717
     16          7           0        2.001958    1.822966    0.124015
     17          1           0        3.667897    0.930610    2.705429
     18          1           0       -2.162884   -2.669986    0.831234
     19          1           0       -3.862030   -2.543171   -0.958334
     20          1           0       -3.719319   -0.772240   -2.717324
     21          1           0       -1.818061    0.869110   -2.618206
     22          1           0        1.998280    2.514955   -0.612682
 ---------------------------------------------------------------------

 SCF Done:  E(UB3LYP) =  -754.620704587     A.U. after    1 cycles

 Alpha  occ. eigenvalues --  -19.08191 -19.04821 -14.33973 -14.33136 -14.25975
 Alpha  occ. eigenvalues --  -14.23161 -10.29448 -10.22618 -10.22607 -10.16882
 Alpha  occ. eigenvalues --  -10.16587 -10.15292 -10.14178 -10.13404 -10.12920
 Alpha  occ. eigenvalues --  -10.12376  -1.04763  -0.98426  -0.95364  -0.90574
 Alpha  occ. eigenvalues --   -0.88064  -0.83466  -0.80087  -0.72897  -0.70609
 Alpha  occ. eigenvalues --   -0.65973  -0.64006  -0.61330  -0.56679  -0.55756
 Alpha  occ. eigenvalues --   -0.52574  -0.52225  -0.47990  -0.46298  -0.45317
 Alpha  occ. eigenvalues --   -0.44213  -0.42919  -0.41385  -0.40044  -0.38843
 Alpha  occ. eigenvalues --   -0.38579  -0.38288  -0.36288  -0.33371  -0.33097
 Alpha  occ. eigenvalues --   -0.32452  -0.28387  -0.27943  -0.26987  -0.26485
 Alpha  occ. eigenvalues --   -0.25833  -0.23066  -0.21167  -0.20880  -0.19852
 Alpha  occ. eigenvalues --   -0.09674
 Alpha virt. eigenvalues --    0.00185   0.00215   0.00844   0.01668   0.02471
 Alpha virt. eigenvalues --    0.02725   0.03082   0.03623   0.04527   0.04960
 Alpha virt. eigenvalues --    0.05283   0.05377   0.05843   0.06742   0.06991

  Beta  occ. eigenvalues --  -19.08191 -19.04821 -14.33973 -14.33136 -14.25975
  Beta  occ. eigenvalues --  -14.23161 -10.29448 -10.22618 -10.22607 -10.16882
  Beta  occ. eigenvalues --  -10.16587 -10.15292 -10.14178 -10.13404 -10.12920
  Beta  occ. eigenvalues --  -10.12376  -1.04763  -0.98426  -0.95364  -0.90574
  Beta  occ. eigenvalues --   -0.88064  -0.83466  -0.80087  -0.72897  -0.70609
  Beta  occ. eigenvalues --   -0.65973  -0.64006  -0.61330  -0.56679  -0.55756
  Beta  occ. eigenvalues --   -0.52574  -0.52225  -0.47990  -0.46298  -0.45317
  Beta  occ. eigenvalues --   -0.44213  -0.42919  -0.41385  -0.40044  -0.38843
  Beta  occ. eigenvalues --   -0.38579  -0.38288  -0.36288  -0.33371  -0.33097
  Beta  occ. eigenvalues --   -0.32452  -0.28387  -0.27943  -0.26987  -0.26485
  Beta  occ. eigenvalues --   -0.25833  -0.23066  -0.21167  -0.20880  -0.19852
  Beta  occ. eigenvalues --   -0.09674
  Beta virt. eigenvalues --    0.00185   0.00215   0.00844   0.01668   0.02471
  Beta virt. eigenvalues --    0.02725   0.03082   0.03623   0.04527   0.04960
  Beta virt. eigenvalues --    0.05283   0.05377   0.05843   0.06742   0.06991

 Mulliken charges and spin densities:
               1          2
     1  O   -0.505499   0.000000
     2  C    0.403452  -0.000000
     3  N   -0.463472  -0.000000
     4  C    0.149589   0.000000
     5  O   -0.616599   0.000000
     6  C   -0.038720  -0.000000
     7  N   -0.426330   0.000000
     8  C   -0.014039  -0.000000
     9  C   -0.315876   0.000000
    10  C   -0.355307  -0.000000
    11  C   -0.352102   0.000000
    12  C   -0.269181   0.000000
    13  C    0.144141  -0.000000
    14  N   -0.350351  -0.000000
    15  C    0.214117   0.000000
    16  N   -0.463018  -0.000000
    17  H    0.383660   0.000000
    18  H    0.130648   0.000000
    19  H    0.142190  -0.000000
    20  H    0.140339   0.000000
    21  H    0.130623   0.000000
    22  H    0.331735  -0.000000
 Sum of Mulliken charges =  -2.00000  -0.00000

 Dipole moment (field-independent basis, Debye):
    X=             -4.8296    Y=              2.7720    Z=             -8.5585  Tot=             10.2106
 Quadrupole moment (field-independent basis, Debye-Ang):
   XX=           -146.3947   YY=           -127.1838   ZZ=           -136.8871
   XY=            -17.6660   XZ=            -24.5587   YZ=              8.8380

  Exact polarizability: 379.696  81.380 231.559 153.602 -23.760 309.779
 Approx polarizability: 403.300  73.442 253.365 172.517 -41.299 359.729

                      1                      2                      3
                      A                      A                      A
 Frequencies --     61.0425                65.8758               128.8414
 Red. masses --      7.5960                 5.5956                10.7835
 Frc consts  --      0.0167                 0.0143                 0.1055
 IR Inten    --      1.3555                 0.2047                 4.9980

                      4                      5                      6
                      A                      A                      A
 Frequencies --    154.4173               166.8761               196.2176
 Red. masses --      9.0879                 8.9112                 7.3448
 Frc consts  --      0.1277                 0.1462                 0.1666
 IR Inten    --      0.0541                 0.5986                15.1404

                      7                      8                      9
                      A                      A                      A
 Frequencies --    279.2958               314.5684               328.1410
 Red. masses --      5.8184                 7.2080                11.0601
 Frc consts  --      0.2674                 0.4202                 0.7017
 IR Inten    --      0.0366                13.2763                13.3719

                     10                     11                     12
                      A                      A                      A
 Frequencies --    373.1677               410.4809               447.6087
 Red. masses --      7.1959                 9.6053                 2.8443
 Frc consts  --      0.5904                 0.9536                 0.3358
 IR Inten    --      4.7612                36.8258                 2.5993

                     13                     14                     15
                      A                      A                      A
 Frequencies --    470.6486               524.3808               531.0984
 Red. masses --      1.1776                 8.9339                 9.8286
 Frc consts  --      0.1537                 1.4474                 1.6334
 IR Inten    --      7.4527                37.0529                43.7103

                     16                     17                     18
                      A                      A                      A
 Frequencies --    539.9462               559.3157               574.5184
 Red. masses --      2.4481                 2.0072                 6.8981
 Frc consts  --      0.4205                 0.3700                 1.3415
 IR Inten    --    130.1303               176.7864                26.6355

                     19                     20                     21
                      A                      A                      A
 Frequencies --    601.0257               606.6279               638.8340
 Red. masses --      3.0602                 7.7629                10.8747
 Frc consts  --      0.6513                 1.6831                 2.6148
 IR Inten    --      4.5465                 0.0054                 0.0180

                     22                     23                     24
                      A                      A                      A
 Frequencies --    658.9424               677.4594               705.6326
 Red. masses --      9.7979                 1.2699                 5.9385
 Frc consts  --      2.5066                 0.3434                 1.7422
 IR Inten    --    122.3267               147.8272                27.6677

                     25                     26                     27
                      A                      A                      A
 Frequencies --    718.2632               729.1813               762.0726
 Red. masses --      3.4594                10.9854                 1.6363
 Frc consts  --      1.0515                 3.4414                 0.5599
 IR Inten    --     16.1360                18.7147                27.8015

                     28                     29                     30
                      A                      A                      A
 Frequencies --    764.6649               836.2633               857.8712
 Red. masses --      6.4638                 6.4969                 1.3327
 Frc consts  --      2.2268                 2.6770                 0.5778
 IR Inten    --     74.0373                44.5203                25.1658

                     31                     32                     33
                      A                      A                      A
 Frequencies --    899.7230               902.2407              1030.2623
 Red. masses --      5.6502                 1.2141                 2.6026
 Frc consts  --      2.6948                 0.5823                 1.6276
 IR Inten    --     49.5657                 0.4549               185.1420

                     34                     35                     36
                      A                      A                      A
 Frequencies --   1046.4282              1078.6930              1104.3497
 Red. masses --      2.5112                 3.3204                 1.9074
 Frc consts  --      1.6201                 2.2763                 1.3706
 IR Inten    --     52.7089                42.4882               112.0846

                     37                     38                     39
                      A                      A                      A
 Frequencies --   1147.9959              1175.1879              1189.0020
 Red. masses --      1.1230                 4.3356                 4.2309
 Frc consts  --      0.8720                 3.5279                 3.5241
 IR Inten    --      0.5136               156.6698               278.1410

                     40                     41                     42
                      A                      A                      A
 Frequencies --   1243.3156              1296.5739              1306.3292
 Red. masses --      3.3003                 2.5883                 4.0562
 Frc consts  --      3.0059                 2.5636                 4.0782
 IR Inten    --     69.0495               513.9690               700.8077

                     43                     44                     45
                      A                      A                      A
 Frequencies --   1336.1703              1346.1222              1365.0106
 Red. masses --      5.6572                 3.9598                 2.4947
 Frc consts  --      5.9508                 4.2276                 2.7387
 IR Inten    --     78.7872              1420.7288               156.1578

                     46                     47                     48
                      A                      A                      A
 Frequencies --   1399.2922              1426.0928              1460.6059
 Red. masses --      2.9342                 2.9658                 3.2705
 Frc consts  --      3.3849                 3.5538                 4.1108
 IR Inten    --    323.7879                18.4986               170.5562

                     49                     50                     51
                      A                      A                      A
 Frequencies --   1488.3271              1507.3329              1555.5594
 Red. masses --      3.9257                 5.0342                 4.9937
 Frc consts  --      5.1234                 6.7391                 7.1194
 IR Inten    --    342.2555              1254.9582               727.0555

                     52                     53                     54
                      A                      A                      A
 Frequencies --   1594.1021              1611.1730              1666.7645
 Red. masses --      6.4293                 6.4970                 6.2991
 Frc consts  --      9.6260                 9.9369                10.3104
 IR Inten    --   2119.8847               336.9486              1990.0000

                     55                     56                     57
                      A                      A                      A
 Frequencies --   3119.9220              3125.4209              3139.6342
 Red. masses --      1.0835                 1.0876                 1.0907
 Frc consts  --      6.2140                 6.2592                 6.3347
 IR Inten    --     41.7349                48.0415               100.6785

                     58                     59                     60
                      A                      A                      A
 Frequencies --   3165.6040              3607.2591              3623.1779
 Red. masses --      1.0947                 1.0775                 1.0778
 Frc consts  --      6.4634                 8.2609                 8.3365
 IR Inten    --     73.8769                66.5656               100.6089

 - Thermochemistry -
 -------------------
 Temperature   298.150 Kelvin.  Pressure   1.00000 Atm.
 Atom     1 has atomic number  8 and mass  15.99491

 Molecular mass:   214.04908 amu.
 Principal axes and moments of inertia in atomic units:
                           1         2         3
     Eigenvalues --  1330.316285264.095606594.37683
           X            0.82970  -0.02930  -0.55744
           Y            0.38121  -0.69976   0.60417
           Z            0.40778   0.71378   0.56942
 This molecule is an asymmetric top.
 Rotational symmetry number  1.
 Warning -- assumption of classical behavior for rotation
           may cause significant error
 Rotational temperatures (Kelvin)      0.06511     0.01645     0.01313
 Rotational constants (GHZ):           1.35663     0.34284     0.27368
 Zero-point vibrational energy     392620.1 (Joules/Mol)
                                   93.83845 (Kcal/Mol)
 Warning -- explicit consideration of  20 degrees of freedom as
           vibrations may cause significant error
 Vibrational temperatures:     87.83    94.78   185.37   222.17   240.10
          (Kelvin)            282.31   401.84   452.59   472.12   536.91
                              590.59   644.01   677.16   754.47   764.13
                              776.86   804.73   826.60   864.74   872.80
                              919.14   948.07   974.71  1015.25  1033.42
                             1049.13  1096.45  1100.18  1203.20  1234.29
                             1294.50  1298.12  1482.32  1505.58  1552.00
                             1588.91  1651.71  1690.83  1710.71  1788.85
                             1865.48  1879.52  1922.45  1936.77  1963.95
                             2013.27  2051.83  2101.49  2141.37  2168.72
                             2238.10  2293.56  2318.12  2398.10  4488.87
                             4496.78  4517.23  4554.60  5190.04  5212.94

 Zero-point correction=                           0.149541 (Hartree/Particle)
 Thermal correction to Energy=                    0.161554
 Thermal correction to Enthalpy=                  0.162498
 Thermal correction to Gibbs Free Energy=         0.111107
 Sum of electronic and zero-point Energies=           -754.471163
 Sum of electronic and thermal Energies=              -754.459150
 Sum of electronic and thermal Enthalpies=            -754.458206
 Sum of electronic and thermal Free Energies=         -754.509598

                     E (Thermal)             CV                S
                      KCal/Mol        Cal/Mol-Kelvin    Cal/Mol-Kelvin
 Total                  101.377             48.000            108.163
 Electronic               0.000              0.000              0.000
 Translational            0.889              2.981             41.987
 Rotational               0.889              2.981             32.202
 Vibrational             99.599             42.039             33.975
 Vibration     1          0.597              1.973              4.423
 Vibration     2          0.597              1.971              4.273
 Vibration     3          0.611              1.924              2.963
 Vibration     4          0.620              1.898              2.617
 Vibration     5          0.624              1.883              2.470
 Vibration     6          0.636              1.845              2.168
 Vibration     7          0.680              1.712              1.538
 Vibration     8          0.702              1.646              1.338
 Vibration     9          0.711              1.619              1.269
 Vibration    10          0.745              1.527              1.067
 Vibration    11          0.775              1.447              0.925
 Vibration    12          0.807              1.366              0.803
 Vibration    13          0.828              1.315              0.736
 Vibration    14          0.879              1.196              0.600
 Vibration    15          0.886              1.181              0.585
 Vibration    16          0.895              1.162              0.565
 Vibration    17          0.915              1.119              0.525
 Vibration    18          0.931              1.086              0.496
 Vibration    19          0.959              1.030              0.448
 Vibration    20          0.965              1.018              0.438

                           ! Non-Optimized Parameters !
 Normal termination of Gaussian 16 at Sun Feb 11 17:07:48 2024.
