 Gaussian 16, Revision A.03,
 Gaussian 16:  ES64L-G16RevA.03 25-Dec-2016

 ----------------------------------------------------------------------
 #P UB3LYP/6-311++G(d,p) nosym opt freq SCRF=(PCM,Solvent=n,n-DiMethylF
 ormamide)
 ----------------------------------------------------------------------

 -------
 Radical
 -------
 Symbolic Z-matrix:
 Charge = -1 Multiplicity = 2

 SCF Done:  E(UB3LYP) =  -914.849282131     A.U. after   19 cycles
 SCF Done:  E(UB3LYP) =  -914.849671469     A.U. after   15 cycles
 SCF Done:  E(UB3LYP) =  -914.849613503     A.U. after   15 cycles
 SCF Done:  E(UB3LYP) =  -914.849776825     A.U. after   14 cycles
 SCF Done:  E(UB3LYP) =  -914.849777461     A.U. after   12 cycles
 SCF Done:  E(UB3LYP) =  -914.849777291     A.U. after   11 cycles
 SCF Done:  E(UB3LYP) =  -914.849778652     A.U. after   12 cycles
 Optimization completed.
    -- Stationary point found.
 Normal termination of Gaussian 16 at Sat Feb 10 22:45:43 2024.

 ----------------------------------------------------------------------
 #P Geom=AllCheck Guess=TCheck SCRF=Check GenChk UB3LYP/6-311++G(d,p) F
 req
 ----------------------------------------------------------------------

 Structure from the checkpoint file:  "202-rad.chk"
 -------
 Radical
 -------
 Charge = -1 Multiplicity = 2

                          Input orientation:
 ---------------------------------------------------------------------
 Center     Atomic      Atomic             Coordinates (Angstroms)
 Number     Number       Type             X           Y           Z
 ---------------------------------------------------------------------
      1          8           0        4.974052    0.592348   -0.651221
      2          6           0        3.693781    0.132988   -0.476006
      3          6           0        3.527561   -1.267045   -0.416798
      4          6           0        2.264934   -1.792428   -0.242410
      5          6           0        1.127076   -0.966286   -0.120406
      6          6           0       -0.193009   -1.583646    0.063014
      7          8           0       -0.293912   -2.834552    0.104560
      8          6           0       -1.339983   -0.676873    0.188429
      9          6           0       -2.668109   -1.149679    0.374514
     10          8           0       -2.919139   -2.498274    0.445400
     11          6           0       -3.729727   -0.260223    0.487899
     12          6           0       -3.532412    1.122089    0.424026
     13          6           0       -2.257746    1.632586    0.244800
     14          8           0       -2.091753    2.977668    0.186802
     15          6           0       -1.138540    0.751498    0.123968
     16          6           0        0.173354    1.328656   -0.060607
     17          8           0        0.342967    2.608170   -0.117575
     18          6           0        1.306369    0.438617   -0.180811
     19          6           0        2.603784    0.972168   -0.360286
     20          1           0        4.974696    1.556909   -0.678261
     21          1           0        4.397022   -1.907445   -0.509532
     22          1           0        2.122717   -2.864874   -0.195185
     23          1           0       -3.868370   -2.617702    0.572739
     24          1           0       -4.733112   -0.651051    0.629743
     25          1           0       -4.369339    1.804670    0.513705
     26          1           0       -1.094653    3.102704    0.054371
     27          1           0        2.721491    2.049010   -0.404874
 ---------------------------------------------------------------------

 SCF Done:  E(UB3LYP) =  -914.849778652     A.U. after    1 cycles

 Alpha  occ. eigenvalues --  -19.15976 -19.14965 -19.12420 -19.08751 -19.07419
 Alpha  occ. eigenvalues --  -10.24034 -10.23545 -10.23213 -10.22953 -10.22911
 Alpha  occ. eigenvalues --  -10.18086 -10.18005 -10.17989 -10.17652 -10.17461
 Alpha  occ. eigenvalues --  -10.17373 -10.17192 -10.17141 -10.16906  -1.06880
 Alpha  occ. eigenvalues --   -1.06122  -1.04835  -1.00200  -0.99841  -0.86353
 Alpha  occ. eigenvalues --   -0.84757  -0.78924  -0.75701  -0.74419  -0.73662
 Alpha  occ. eigenvalues --   -0.67390  -0.65380  -0.63601  -0.60700  -0.57525
 Alpha  occ. eigenvalues --   -0.56011  -0.55615  -0.52868  -0.50672  -0.48620
 Alpha  occ. eigenvalues --   -0.47677  -0.46295  -0.45612  -0.43863  -0.43365
 Alpha  occ. eigenvalues --   -0.42669  -0.42083  -0.41829  -0.40978  -0.40261
 Alpha  occ. eigenvalues --   -0.40164  -0.38958  -0.38853  -0.37420  -0.36935
 Alpha  occ. eigenvalues --   -0.35986  -0.35785  -0.34438  -0.32908  -0.30906
 Alpha  occ. eigenvalues --   -0.27010  -0.25918  -0.25584  -0.23548  -0.23537
 Alpha  occ. eigenvalues --   -0.21650  -0.14296
 Alpha virt. eigenvalues --   -0.04926  -0.02197  -0.00414   0.00031   0.00640
 Alpha virt. eigenvalues --    0.01049   0.01444   0.02134   0.03827   0.04276
 Alpha virt. eigenvalues --    0.04343   0.04502   0.05391   0.05884   0.06064

  Beta  occ. eigenvalues --  -19.15972 -19.14944 -19.12362 -19.08236 -19.06948
  Beta  occ. eigenvalues --  -10.24031 -10.23545 -10.23115 -10.22889 -10.22612
  Beta  occ. eigenvalues --  -10.18029 -10.17984 -10.17968 -10.17679 -10.17402
  Beta  occ. eigenvalues --  -10.17241 -10.17113 -10.17074 -10.16832  -1.06868
  Beta  occ. eigenvalues --   -1.06073  -1.04619  -0.99394  -0.98977  -0.86114
  Beta  occ. eigenvalues --   -0.84601  -0.78532  -0.75471  -0.74264  -0.73405
  Beta  occ. eigenvalues --   -0.66690  -0.65245  -0.63359  -0.60588  -0.57302
  Beta  occ. eigenvalues --   -0.55899  -0.55505  -0.52738  -0.50520  -0.48312
  Beta  occ. eigenvalues --   -0.47606  -0.46171  -0.45461  -0.43305  -0.43086
  Beta  occ. eigenvalues --   -0.42557  -0.41793  -0.41640  -0.40630  -0.40070
  Beta  occ. eigenvalues --   -0.39436  -0.38791  -0.38041  -0.37335  -0.35883
  Beta  occ. eigenvalues --   -0.35652  -0.35103  -0.34279  -0.32218  -0.30168
  Beta  occ. eigenvalues --   -0.25526  -0.25171  -0.25110  -0.23105  -0.22929
  Beta  occ. eigenvalues --   -0.20637
  Beta virt. eigenvalues --   -0.08718  -0.03925  -0.01199  -0.00402   0.00037
  Beta virt. eigenvalues --    0.01059   0.01111   0.01456   0.02146   0.03841
  Beta virt. eigenvalues --    0.04297   0.04359   0.04704   0.05795   0.06074

 Mulliken charges and spin densities:
               1          2
     1  O   -0.286063   0.001785
     2  C   -0.674669   0.001082
     3  C   -0.199458   0.050343
     4  C    0.110892   0.002292
     5  C   -0.240548   0.036155
     6  C   -0.353783   0.045994
     7  O   -0.446066   0.175975
     8  C    0.343202   0.051700
     9  C   -0.322950   0.016122
    10  O   -0.249862   0.005674
    11  C   -0.231000   0.093608
    12  C   -0.121340   0.048518
    13  C   -0.324222   0.065058
    14  O   -0.417454   0.018087
    15  C    0.822917  -0.031739
    16  C   -0.313977   0.177978
    17  O   -0.501901   0.186785
    18  C    0.404134  -0.001369
    19  C    0.142842   0.081966
    20  H    0.305068  -0.000127
    21  H    0.209038  -0.003878
    22  H    0.168171   0.000180
    23  H    0.290843  -0.000640
    24  H    0.168155  -0.008357
    25  H    0.193890  -0.004566
    26  H    0.367339  -0.004250
    27  H    0.156798  -0.004376
 Sum of Mulliken charges =  -1.00000   1.00000

 Dipole moment (field-independent basis, Debye):
    X=              0.0786    Y=              0.6049    Z=              0.0050  Tot=              0.6100
 Quadrupole moment (field-independent basis, Debye-Ang):
   XX=           -107.0525   YY=           -148.2742   ZZ=           -115.3691
   XY=             13.5589   XZ=             -1.5127   YZ=             -0.9300

  Exact polarizability: 488.711  -5.716 356.403 -45.764  -5.241 136.990
 Approx polarizability: 509.424   2.994 433.098 -46.081  -7.885 157.222

                      1                      2                      3
                      A                      A                      A
 Frequencies --     52.2814                76.7366               109.3989
 Red. masses --      7.6703                 6.3721                 7.1564
 Frc consts  --      0.0124                 0.0221                 0.0505
 IR Inten    --     11.7961                 1.4174                 3.6737

                      4                      5                      6
                      A                      A                      A
 Frequencies --    133.3476               166.1231               177.7632
 Red. masses --      7.0296                 7.3770                 6.9027
 Frc consts  --      0.0736                 0.1199                 0.1285
 IR Inten    --      0.1349                 2.2977                 4.8248

                      7                      8                      9
                      A                      A                      A
 Frequencies --    219.5305               281.4767               307.4363
 Red. masses --      6.4924                 7.4690                 4.1861
 Frc consts  --      0.1844                 0.3487                 0.2331
 IR Inten    --      0.9228                10.4315                23.9260

                     10                     11                     12
                      A                      A                      A
 Frequencies --    328.9355               347.7319               363.3094
 Red. masses --      7.8618                 1.6190                 1.1811
 Frc consts  --      0.5012                 0.1153                 0.0918
 IR Inten    --      1.9446                50.0907               166.1504

                     13                     14                     15
                      A                      A                      A
 Frequencies --    365.9752               382.2475               405.9612
 Red. masses --      8.0245                 2.5626                 6.3367
 Frc consts  --      0.6332                 0.2206                 0.6153
 IR Inten    --     13.1509                62.1406                19.9385

                     16                     17                     18
                      A                      A                      A
 Frequencies --    424.5303               431.8741               440.0187
 Red. masses --      4.9044                 7.1964                 7.4484
 Frc consts  --      0.5208                 0.7908                 0.8497
 IR Inten    --      3.7904                48.1624                52.0753

                     19                     20                     21
                      A                      A                      A
 Frequencies --    447.5282               465.2018               489.6163
 Red. masses --      4.0757                10.9301                 7.3447
 Frc consts  --      0.4809                 1.3937                 1.0374
 IR Inten    --      4.1652                12.2420                16.6853

                     22                     23                     24
                      A                      A                      A
 Frequencies --    529.1600               542.1682               590.0179
 Red. masses --      7.3099                 4.5208                 5.0744
 Frc consts  --      1.2060                 0.7829                 1.0408
 IR Inten    --     11.8709                 8.8434                33.6075

                     25                     26                     27
                      A                      A                      A
 Frequencies --    593.4554               652.7916               670.5337
 Red. masses --      3.8133                 3.9872                 6.4879
 Frc consts  --      0.7913                 1.0011                 1.7187
 IR Inten    --     27.1561                 5.1677                10.6876

                     28                     29                     30
                      A                      A                      A
 Frequencies --    691.0625               717.2378               734.7822
 Red. masses --      7.2706                 5.7882                 7.1889
 Frc consts  --      2.0458                 1.7544                 2.2868
 IR Inten    --     11.1973                 0.0873                54.1000

                     31                     32                     33
                      A                      A                      A
 Frequencies --    735.6909               779.8961               808.0766
 Red. masses --      5.5874                 4.3863                 1.7253
 Frc consts  --      1.7818                 1.5719                 0.6638
 IR Inten    --      1.9848                 1.0716               119.4787

                     34                     35                     36
                      A                      A                      A
 Frequencies --    827.7720               834.0383               875.3623
 Red. masses --      8.2432                 1.7061                 1.4834
 Frc consts  --      3.3279                 0.6993                 0.6697
 IR Inten    --    199.1409                15.1140                46.6013

                     37                     38                     39
                      A                      A                      A
 Frequencies --    878.1742               896.5414               926.1097
 Red. masses --      7.0131                 1.3249                 1.0551
 Frc consts  --      3.1866                 0.6275                 0.5332
 IR Inten    --     56.0440                 3.9296               117.6463

                     40                     41                     42
                      A                      A                      A
 Frequencies --    936.8681               988.8295               991.9068
 Red. masses --      7.1038                 1.3032                 3.9757
 Frc consts  --      3.6736                 0.7508                 2.3046
 IR Inten    --    204.1495                 1.5924                30.8286

                     43                     44                     45
                      A                      A                      A
 Frequencies --   1069.5478              1108.6553              1151.3985
 Red. masses --      2.4145                 2.0121                 1.5922
 Frc consts  --      1.6273                 1.4571                 1.2436
 IR Inten    --     78.4298                39.4816                81.2721

                     46                     47                     48
                      A                      A                      A
 Frequencies --   1172.9508              1184.3261              1213.6842
 Red. masses --      1.8335                 1.5705                 2.0233
 Frc consts  --      1.4863                 1.2979                 1.7560
 IR Inten    --    214.3488               126.1320               426.5563

                     49                     50                     51
                      A                      A                      A
 Frequencies --   1219.4583              1244.2724              1249.0128
 Red. masses --      2.1551                 2.4738                 3.3955
 Frc consts  --      1.8882                 2.2565                 3.1210
 IR Inten    --     42.3465                19.4072                21.7993

                     52                     53                     54
                      A                      A                      A
 Frequencies --   1277.2521              1279.2776              1327.3672
 Red. masses --      3.1755                 3.5268                 3.1683
 Frc consts  --      3.0522                 3.4006                 3.2889
 IR Inten    --    224.7629                70.2087               245.9451

                     55                     56                     57
                      A                      A                      A
 Frequencies --   1349.4679              1376.6981              1379.9772
 Red. masses --      4.4480                 7.9556                 3.2638
 Frc consts  --      4.7724                 8.8839                 3.6619
 IR Inten    --     13.9225               244.5361               806.2338

                     58                     59                     60
                      A                      A                      A
 Frequencies --   1402.7110              1468.2354              1488.1605
 Red. masses --      3.9535                 3.9517                 3.1734
 Frc consts  --      4.5832                 5.0190                 4.1408
 IR Inten    --    581.5665                44.6227               230.7657

                     61                     62                     63
                      A                      A                      A
 Frequencies --   1501.4819              1525.5709              1558.4056
 Red. masses --      2.5557                 7.8844                 2.7957
 Frc consts  --      3.3947                10.8114                 4.0005
 IR Inten    --    274.5181              1321.5902                59.3865

                     64                     65                     66
                      A                      A                      A
 Frequencies --   1583.4301              1611.8752              1630.5986
 Red. masses --      4.9146                 6.1710                 4.3623
 Frc consts  --      7.2599                 9.4465                 6.8337
 IR Inten    --    310.4001               219.7422               181.7885

                     67                     68                     69
                      A                      A                      A
 Frequencies --   1650.9893              2817.4391              3149.6891
 Red. masses --      3.5314                 1.0759                 1.0892
 Frc consts  --      5.6714                 5.0321                 6.3663
 IR Inten    --    115.1856               876.0344                35.1573

                     70                     71                     72
                      A                      A                      A
 Frequencies --   3178.1588              3179.9970              3185.3853
 Red. masses --      1.0901                 1.0884                 1.0926
 Frc consts  --      6.4871                 6.4849                 6.5320
 IR Inten    --     22.3485                 4.4657                21.9251

                     73                     74                     75
                      A                      A                      A
 Frequencies --   3198.7885              3794.3451              3810.2765
 Red. masses --      1.0931                 1.0660                 1.0661
 Frc consts  --      6.5897                 9.0423                 9.1197
 IR Inten    --     21.6597               114.7853               135.6819

 - Thermochemistry -
 -------------------
 Temperature   298.150 Kelvin.  Pressure   1.00000 Atm.
 Atom     1 has atomic number  8 and mass  15.99491

 Molecular mass:   256.03717 amu.
 Principal axes and moments of inertia in atomic units:
                           1         2         3
     Eigenvalues --  2621.311206216.955718838.24912
           X            0.99183   0.01006   0.12716
           Y           -0.01354   0.99955   0.02659
           Z           -0.12684  -0.02809   0.99153
 This molecule is an asymmetric top.
 Rotational symmetry number  1.
 Warning -- assumption of classical behavior for rotation
           may cause significant error
 Rotational temperatures (Kelvin)      0.03304     0.01393     0.00980
 Rotational constants (GHZ):           0.68849     0.29029     0.20420
 Zero-point vibrational energy     496189.4 (Joules/Mol)
                                  118.59210 (Kcal/Mol)
 Warning -- explicit consideration of  25 degrees of freedom as
           vibrations may cause significant error
 Vibrational temperatures:     75.22   110.41   157.40   191.86   239.01
          (Kelvin)            255.76   315.86   404.98   442.33   473.26
                              500.31   522.72   526.56   549.97   584.09
                              610.80   621.37   633.09   643.89   669.32
                              704.45   761.34   780.06   848.90   853.85
                              939.22   964.75   994.28  1031.95  1057.19
                             1058.50  1122.10  1162.64  1190.98  1200.00
                             1259.45  1263.50  1289.92  1332.47  1347.94
                             1422.71  1427.13  1538.84  1595.11  1656.61
                             1687.61  1703.98  1746.22  1754.53  1790.23
                             1797.05  1837.68  1840.60  1909.79  1941.58
                             1980.76  1985.48  2018.19  2112.46  2141.13
                             2160.30  2194.96  2242.20  2278.20  2319.13
                             2346.07  2375.41  4053.67  4531.70  4572.66
                             4575.31  4583.06  4602.34  5459.22  5482.14

 Zero-point correction=                           0.188989 (Hartree/Particle)
 Thermal correction to Energy=                    0.203399
 Thermal correction to Enthalpy=                  0.204343
 Thermal correction to Gibbs Free Energy=         0.147571
 Sum of electronic and zero-point Energies=           -914.660790
 Sum of electronic and thermal Energies=              -914.646379
 Sum of electronic and thermal Enthalpies=            -914.645435
 Sum of electronic and thermal Free Energies=         -914.702208

                     E (Thermal)             CV                S
                      KCal/Mol        Cal/Mol-Kelvin    Cal/Mol-Kelvin
 Total                  127.635             58.797            119.488
 Electronic               0.000              0.000              1.377
 Translational            0.889              2.981             42.520
 Rotational               0.889              2.981             33.332
 Vibrational            125.857             52.836             42.258
 Vibration     1          0.596              1.977              4.729
 Vibration     2          0.599              1.965              3.973
 Vibration     3          0.606              1.942              3.280
 Vibration     4          0.613              1.920              2.897
 Vibration     5          0.624              1.884              2.479
 Vibration     6          0.628              1.870              2.352
 Vibration     7          0.647              1.811              1.963
 Vibration     8          0.681              1.708              1.525
 Vibration     9          0.697              1.660              1.376
 Vibration    10          0.712              1.618              1.265
 Vibration    11          0.725              1.580              1.176
 Vibration    12          0.737              1.548              1.108
 Vibration    13          0.739              1.542              1.097
 Vibration    14          0.752              1.508              1.030
 Vibration    15          0.771              1.457              0.941
 Vibration    16          0.787              1.417              0.877
 Vibration    17          0.793              1.401              0.853
 Vibration    18          0.800              1.383              0.827
 Vibration    19          0.807              1.366              0.803
 Vibration    20          0.823              1.327              0.751
 Vibration    21          0.845              1.273              0.685
 Vibration    22          0.884              1.185              0.589
 Vibration    23          0.897              1.157              0.561
 Vibration    24          0.947              1.053              0.467
 Vibration    25          0.951              1.046              0.461

 Optimization completed.
    -- Stationary point found.
 Normal termination of Gaussian 16 at Sat Feb 10 23:55:05 2024.
