 Q-Chem 5.4, Q-Chem, Inc., Pleasanton, CA (2021)
 Q-Chem 5.4.0 for Intel X86 EM64T Linux

User input:
--------------------------------------------------------------
$molecule
-1 2
C                 -0.3225490000      3.7978000000     -0.1835920000
C                 -1.5265490000      3.2080280000     -0.5210210000
C                 -1.5567810000      1.8715090000     -0.9682200000
C                  0.8879710000      3.0776750000     -0.2800400000
C                  0.8595280000      1.7270270000     -0.7321680000
C                 -0.3777430000      1.1508550000     -1.0690650000
C                  2.1481370000      3.6959520000      0.0734830000
C                  3.3324460000      2.8790640000     -0.0588730000
C                  3.3400660000      1.5678950000     -0.4857540000
C                  2.0963630000      0.9261410000     -0.8539860000
O                  2.2879590000      4.8935630000      0.4880940000
O                  2.0585020000     -0.2650070000     -1.2597010000
H                 -0.2736540000      4.8239880000      0.1629470000
H                 -2.4502780000      3.7741040000     -0.4419770000
H                 -2.5029640000      1.4089600000     -1.2330530000
H                 -0.3711800000      0.1219310000     -1.4107340000
O                  4.4816460000      3.5285480000      0.2886140000
C                  4.6207190000      0.7818840000     -0.5986800000
C                  5.2339710000      0.8185090000     -2.0119150000
C                  6.5163480000     -0.0118430000     -2.1331680000
C                  7.1373490000      0.0142990000     -3.5346230000
C                  8.4192470000     -0.8173580000     -3.6603110000
H                  4.1421940000      4.4137910000      0.5482230000
H                  4.4049670000     -0.2606860000     -0.3434930000
H                  5.3520370000      1.1675220000      0.1190970000
H                  5.4447950000      1.8599070000     -2.2834400000
H                  4.4878030000      0.4475600000     -2.7226110000
H                  6.2987720000     -1.0516330000     -1.8546400000
H                  7.2548600000      0.3510520000     -1.4049560000
H                  7.3527340000      1.0540660000     -3.8144540000
H                  6.3988340000     -0.3480640000     -4.2615830000
H                  8.2037250000     -1.8569510000     -3.3799430000
H                  9.1580580000     -0.4548670000     -2.9331010000
C                  9.0382960000     -0.7919870000     -5.0626750000
H                  9.2543320000      0.2474000000     -5.3431670000
H                  8.2992910000     -1.1537520000     -5.7896440000
C                 10.3189640000     -1.6247810000     -5.1890300000
H                 10.1036240000     -2.6646780000     -4.9093420000
H                 11.0590600000     -1.2636640000     -4.4624420000
C                 10.9379350000     -1.5996570000     -6.5912940000
C                 12.2167170000     -2.4350950000     -6.7072160000
H                 11.1542480000     -0.5611840000     -6.8709880000
H                 10.1993390000     -1.9609640000     -7.3174590000
H                 12.9870840000     -2.0758390000     -6.0170030000
H                 12.6326780000     -2.3960730000     -7.7185760000
H                 12.0249390000     -3.4860380000     -6.4671600000
$end

$rem
BASIS  =  6-311++G(d,p)
GUI  =  2
JOB_TYPE  =  SP
METHOD  =  B3LYP
SCF_CONVERGENCE  = 8
SOLVENT_METHOD = sm12
$end

$smx
solvent dimethylformamide
charges CM5
$end

--------------------------------------------------------------

             Standard Nuclear Orientation (Angstroms)
    I     Atom           X                Y                Z
 ----------------------------------------------------------------
    1      C      -0.3225490000     3.7978000000    -0.1835920000
    2      C      -1.5265490000     3.2080280000    -0.5210210000
    3      C      -1.5567810000     1.8715090000    -0.9682200000
    4      C       0.8879710000     3.0776750000    -0.2800400000
    5      C       0.8595280000     1.7270270000    -0.7321680000
    6      C      -0.3777430000     1.1508550000    -1.0690650000
    7      C       2.1481370000     3.6959520000     0.0734830000
    8      C       3.3324460000     2.8790640000    -0.0588730000
    9      C       3.3400660000     1.5678950000    -0.4857540000
   10      C       2.0963630000     0.9261410000    -0.8539860000
   11      O       2.2879590000     4.8935630000     0.4880940000
   12      O       2.0585020000    -0.2650070000    -1.2597010000
   13      H      -0.2736540000     4.8239880000     0.1629470000
   14      H      -2.4502780000     3.7741040000    -0.4419770000
   15      H      -2.5029640000     1.4089600000    -1.2330530000
   16      H      -0.3711800000     0.1219310000    -1.4107340000
   17      O       4.4816460000     3.5285480000     0.2886140000
   18      C       4.6207190000     0.7818840000    -0.5986800000
   19      C       5.2339710000     0.8185090000    -2.0119150000
   20      C       6.5163480000    -0.0118430000    -2.1331680000
   21      C       7.1373490000     0.0142990000    -3.5346230000
   22      C       8.4192470000    -0.8173580000    -3.6603110000
   23      H       4.1421940000     4.4137910000     0.5482230000
   24      H       4.4049670000    -0.2606860000    -0.3434930000
   25      H       5.3520370000     1.1675220000     0.1190970000
   26      H       5.4447950000     1.8599070000    -2.2834400000
   27      H       4.4878030000     0.4475600000    -2.7226110000
   28      H       6.2987720000    -1.0516330000    -1.8546400000
   29      H       7.2548600000     0.3510520000    -1.4049560000
   30      H       7.3527340000     1.0540660000    -3.8144540000
   31      H       6.3988340000    -0.3480640000    -4.2615830000
   32      H       8.2037250000    -1.8569510000    -3.3799430000
   33      H       9.1580580000    -0.4548670000    -2.9331010000
   34      C       9.0382960000    -0.7919870000    -5.0626750000
   35      H       9.2543320000     0.2474000000    -5.3431670000
   36      H       8.2992910000    -1.1537520000    -5.7896440000
   37      C      10.3189640000    -1.6247810000    -5.1890300000
   38      H      10.1036240000    -2.6646780000    -4.9093420000
   39      H      11.0590600000    -1.2636640000    -4.4624420000
   40      C      10.9379350000    -1.5996570000    -6.5912940000
   41      C      12.2167170000    -2.4350950000    -6.7072160000
   42      H      11.1542480000    -0.5611840000    -6.8709880000
   43      H      10.1993390000    -1.9609640000    -7.3174590000
   44      H      12.9870840000    -2.0758390000    -6.0170030000
   45      H      12.6326780000    -2.3960730000    -7.7185760000
   46      H      12.0249390000    -3.4860380000    -6.4671600000
 ----------------------------------------------------------------

   18    -964.5149385839      5.69e-09  Convergence criterion met
 Total energy in the final basis set =     -964.6038427257

                    Orbital Energies (a.u.)
 --------------------------------------------------------------

 Alpha MOs
 -- Occupied --
-19.1440 -19.0857 -19.0729 -10.2237 -10.2234 -10.2213 -10.1814 -10.1801
-10.1800 -10.1786 -10.1778 -10.1771 -10.1650 -10.1647 -10.1643 -10.1632
-10.1631 -10.1629 -10.1627 -10.1626 -10.1625 -10.1577  -1.0636  -0.9979
 -0.9951  -0.8637  -0.8194  -0.8105  -0.7931  -0.7703  -0.7572  -0.7458
 -0.7164  -0.6844  -0.6641  -0.6339  -0.6199  -0.5996  -0.5826  -0.5782
 -0.5750  -0.5721  -0.5411  -0.5076  -0.4894  -0.4845  -0.4714  -0.4622
 -0.4585  -0.4416  -0.4390  -0.4345  -0.4322  -0.4257  -0.4153  -0.4113
 -0.4056  -0.4009  -0.3960  -0.3889  -0.3828  -0.3775  -0.3720  -0.3678
 -0.3565  -0.3509  -0.3482  -0.3450  -0.3425  -0.3376  -0.3320  -0.3293
 -0.3257  -0.3236  -0.3231  -0.3054  -0.2704  -0.2636  -0.2583  -0.2378
 -0.2305  -0.1518

 Beta MOs
 -- Occupied --
-19.1435 -19.0790 -19.0673 -10.2226 -10.2224 -10.2186 -10.1814 -10.1797
-10.1792 -10.1781 -10.1777 -10.1764 -10.1650 -10.1644 -10.1639 -10.1632
-10.1631 -10.1629 -10.1627 -10.1626 -10.1624 -10.1577  -1.0615  -0.9882
 -0.9838  -0.8614  -0.8182  -0.8090  -0.7918  -0.7690  -0.7551  -0.7449
 -0.7154  -0.6806  -0.6590  -0.6330  -0.6183  -0.5979  -0.5820  -0.5779
 -0.5748  -0.5699  -0.5394  -0.5054  -0.4886  -0.4828  -0.4703  -0.4615
 -0.4576  -0.4406  -0.4356  -0.4335  -0.4289  -0.4217  -0.4123  -0.4084
 -0.4028  -0.3996  -0.3934  -0.3817  -0.3799  -0.3752  -0.3704  -0.3622
 -0.3534  -0.3486  -0.3439  -0.3420  -0.3364  -0.3316  -0.3305  -0.3267
 -0.3256  -0.3232  -0.3228  -0.3048  -0.2564  -0.2524  -0.2502  -0.2324
 -0.2204

          Ground-State Mulliken Net Atomic Charges

     Atom                 Charge (a.u.)    Spin (a.u.)
  --------------------------------------------------------
      1 C                     0.083680       0.073117
      2 C                     0.868649       0.001526
      3 C                     0.820432       0.075218
      4 C                    -0.525182       0.006782
      5 C                    -1.204166       0.072069
      6 C                    -0.173830      -0.000412
      7 C                    -1.576021       0.136440
      8 C                    -0.607512       0.059003
      9 C                     1.303296       0.058235
     10 C                    -2.000735       0.049116
     11 O                    -0.374150       0.248444
     12 O                    -0.290604       0.210828
     13 H                     0.169038      -0.004022
     14 H                     0.356609      -0.000696
     15 H                     0.339704      -0.005342
     16 H                     0.140520      -0.000262
     17 O                    -0.139780       0.015804
     18 C                    -0.682349       0.011760
     19 C                    -2.375953       0.000068
     20 C                    -0.785922       0.000071
     21 C                     0.299005      -0.005884
     22 C                     1.111737      -0.001101
     23 H                     0.295863      -0.004031
     24 H                     0.126405       0.002912
     25 H                     0.186438      -0.000942
     26 H                     0.080059       0.002758
     27 H                     0.065564      -0.001854
     28 H                     0.177801       0.000687
     29 H                     0.178638      -0.000461
     30 H                     0.127842      -0.000064
     31 H                     0.117802      -0.000020
     32 H                     0.097244      -0.000006
     33 H                     0.101096      -0.000003
     34 C                     1.004220      -0.000015
     35 H                     0.115365      -0.000004
     36 H                     0.115949       0.000001
     37 C                     0.680999       0.000263
     38 H                     0.111314       0.000006
     39 H                     0.112897      -0.000012
     40 C                     0.133530       0.000001
     41 C                    -0.312165       0.000015
     42 H                     0.121744      -0.000000
     43 H                     0.120543      -0.000000
     44 H                     0.140958       0.000002
     45 H                     0.202838       0.000006
     46 H                     0.140587      -0.000003
  --------------------------------------------------------
  Sum of atomic charges =    -1.000000

                    Cartesian Multipole Moments
 -----------------------------------------------------------------
    Charge (ESU x 10^10)
                -4.8032
    Dipole Moment (Debye)
         X     -10.8920      Y     -10.4383      Z       2.0657
       Tot      15.2270
    Quadrupole Moments (Debye-Ang)
        XX    -174.9579     XY     -22.2369     YY    -188.8794
        XZ       5.4425     YZ      -3.6344     ZZ    -146.9023

 Total job time:  2298.26s(wall), 17529.02s(cpu)
        *  Thank you very much for using Q-Chem.  Have a nice day.  *
