 Q-Chem 5.4, Q-Chem, Inc., Pleasanton, CA (2021)
 Q-Chem 5.4.0 for Intel X86 EM64T Linux

User input:
--------------------------------------------------------------
$molecule
-1 2
C                 -2.2230290000      4.7335290000      5.3291110000
C                 -3.4464820000      4.0940820000      5.4011110000
C                 -3.7871010000      3.1170750000      4.4451030000
C                 -1.3039710000      4.4161800000      4.3063900000
C                 -1.6432130000      3.4308460000      3.3406880000
C                 -2.8957250000      2.7986590000      3.4332370000
C                 -0.0264720000      5.0867180000      4.2187920000
C                  0.8490060000      4.6734340000      3.1476250000
C                  0.5763710000      3.6877790000      2.2100730000
C                 -0.7247980000      3.0518660000      2.2381720000
O                  0.3784770000      6.0042430000      5.0029670000
O                 -1.1149400000      2.2152500000      1.3789650000
O                  2.0226080000      5.3593200000      3.1211450000
H                 -1.9371180000      5.4914380000      6.0495700000
H                 -4.1458570000      4.3449170000      6.1932440000
H                 -4.7482810000      2.6150810000      4.5011830000
H                 -3.1345700000      2.0539560000      2.6830660000
H                  1.9247300000      5.9671650000      3.8882420000
C                  2.9600840000      2.8749330000      1.6844750000
C                  3.0173920000      2.0956780000      2.8408010000
C                  4.1479120000      3.1096290000      0.9830230000
C                  5.3586490000      2.5775070000      1.4193330000
C                  5.4031110000      1.7962220000      2.5749860000
C                  4.2268040000      1.5594460000      3.2835840000
H                  2.1076930000      1.9189100000      3.4030170000
H                  4.1132700000      3.7140810000      0.0823290000
H                  6.2690750000      2.7766770000      0.8623600000
H                  4.2488920000      0.9591750000      4.1876490000
H                  6.3452010000      1.3839770000      2.9220490000
C                  1.6511410000      3.4496330000      1.1351700000
H                  1.9131870000      4.4528250000      0.7762750000
N                  1.2513110000      2.6985350000     -0.0813040000
C                  1.3086890000      1.2331060000     -0.0034150000
C                  0.6777190000      0.6234520000     -1.2549490000
C                  0.7464280000     -0.9071140000     -1.2771630000
C                  0.0999160000     -1.5316360000     -2.5190240000
C                  0.1656320000     -3.0629940000     -2.5458150000
C                 -0.4853150000     -3.6880040000     -3.7850880000
H                  0.2769040000      2.9321430000     -0.2487290000
H                  0.7837400000      0.8428220000      0.8788220000
H                  2.3573770000      0.9255980000      0.0609630000
H                  1.1767920000      1.0329350000     -2.1424010000
H                 -0.3718670000      0.9384490000     -1.3051340000
H                  0.2562950000     -1.3028280000     -0.3787860000
H                  1.7958540000     -1.2262520000     -1.2185540000
H                  0.5862020000     -1.1335100000     -3.4197350000
H                 -0.9493850000     -1.2141670000     -2.5756860000
H                 -0.3189560000     -3.4601930000     -1.6443430000
H                  1.2152690000     -3.3809960000     -2.4899790000
H                 -0.0019730000     -3.2897240000     -4.6870850000
H                 -1.5350470000     -3.3710790000     -3.8396530000
C                 -0.4189340000     -5.2193480000     -3.8119800000
C                 -1.0719610000     -5.8439140000     -5.0503430000
C                 -1.0041410000     -7.3751520000     -5.0776550000
C                 -1.6575470000     -7.9993220000     -6.3159800000
C                 -1.5887690000     -9.5304870000     -6.3436210000
C                 -2.2427620000    -10.1544210000     -7.5817370000
C                 -2.1731910000    -11.6855600000     -7.6096750000
C                 -2.8274430000    -12.3096170000     -8.8473330000
C                 -2.7579720000    -13.8407310000     -8.8763560000
C                 -3.4145010000    -14.4546620000    -10.1164950000
H                 -0.9013660000     -5.6174350000     -2.9097170000
H                  0.6309030000     -5.5365090000     -3.7584160000
H                 -0.5904510000     -5.4448850000     -5.9528350000
H                 -2.1220280000     -5.5278360000     -5.1029920000
H                 -1.4855500000     -7.7741810000     -4.1752760000
H                  0.0459770000     -7.6912830000     -5.0251340000
H                 -1.1766670000     -7.5997120000     -7.2184660000
H                 -2.7078090000     -7.6838480000     -6.3679770000
H                 -2.0693370000     -9.9300830000     -5.4410600000
H                 -0.5384630000     -9.8459880000     -6.2920050000
H                 -1.7626420000     -9.7543820000     -8.4843810000
H                 -3.2931980000     -9.8394810000     -7.6329290000
H                 -2.6531040000    -12.0855950000     -6.7069440000
H                 -1.1226930000    -12.0005230000     -7.5587840000
H                 -2.3481340000    -11.9101520000     -9.7508490000
H                 -3.8783750000    -11.9957870000     -8.8986960000
H                 -3.2373040000    -14.2403370000     -7.9742570000
H                 -1.7081740000    -14.1548370000     -8.8260400000
H                 -4.4744300000    -14.1872410000    -10.1759920000
H                 -3.3478590000    -15.5464300000    -10.1065650000
H                 -2.9338550000    -14.1009670000    -11.0343270000
$end

$rem
SMX_GAS_PHASE = true
BASIS  =  6-311++G(d,p)
GUI  =  2
JOB_TYPE  =  SP
METHOD  =  B3LYP
THRESH = 14
SCF_CONVERGENCE  = 5
SOLVENT_METHOD = sm12
$end

$smx
solvent dimethylformamide
charges CM5
$end

--------------------------------------------------------------

             Standard Nuclear Orientation (Angstroms)
    I     Atom           X                Y                Z
 ----------------------------------------------------------------
    1      C      -2.2230290000     4.7335290000     5.3291110000
    2      C      -3.4464820000     4.0940820000     5.4011110000
    3      C      -3.7871010000     3.1170750000     4.4451030000
    4      C      -1.3039710000     4.4161800000     4.3063900000
    5      C      -1.6432130000     3.4308460000     3.3406880000
    6      C      -2.8957250000     2.7986590000     3.4332370000
    7      C      -0.0264720000     5.0867180000     4.2187920000
    8      C       0.8490060000     4.6734340000     3.1476250000
    9      C       0.5763710000     3.6877790000     2.2100730000
   10      C      -0.7247980000     3.0518660000     2.2381720000
   11      O       0.3784770000     6.0042430000     5.0029670000
   12      O      -1.1149400000     2.2152500000     1.3789650000
   13      O       2.0226080000     5.3593200000     3.1211450000
   14      H      -1.9371180000     5.4914380000     6.0495700000
   15      H      -4.1458570000     4.3449170000     6.1932440000
   16      H      -4.7482810000     2.6150810000     4.5011830000
   17      H      -3.1345700000     2.0539560000     2.6830660000
   18      H       1.9247300000     5.9671650000     3.8882420000
   19      C       2.9600840000     2.8749330000     1.6844750000
   20      C       3.0173920000     2.0956780000     2.8408010000
   21      C       4.1479120000     3.1096290000     0.9830230000
   22      C       5.3586490000     2.5775070000     1.4193330000
   23      C       5.4031110000     1.7962220000     2.5749860000
   24      C       4.2268040000     1.5594460000     3.2835840000
   25      H       2.1076930000     1.9189100000     3.4030170000
   26      H       4.1132700000     3.7140810000     0.0823290000
   27      H       6.2690750000     2.7766770000     0.8623600000
   28      H       4.2488920000     0.9591750000     4.1876490000
   29      H       6.3452010000     1.3839770000     2.9220490000
   30      C       1.6511410000     3.4496330000     1.1351700000
   31      H       1.9131870000     4.4528250000     0.7762750000
   32      N       1.2513110000     2.6985350000    -0.0813040000
   33      C       1.3086890000     1.2331060000    -0.0034150000
   34      C       0.6777190000     0.6234520000    -1.2549490000
   35      C       0.7464280000    -0.9071140000    -1.2771630000
   36      C       0.0999160000    -1.5316360000    -2.5190240000
   37      C       0.1656320000    -3.0629940000    -2.5458150000
   38      C      -0.4853150000    -3.6880040000    -3.7850880000
   39      H       0.2769040000     2.9321430000    -0.2487290000
   40      H       0.7837400000     0.8428220000     0.8788220000
   41      H       2.3573770000     0.9255980000     0.0609630000
   42      H       1.1767920000     1.0329350000    -2.1424010000
   43      H      -0.3718670000     0.9384490000    -1.3051340000
   44      H       0.2562950000    -1.3028280000    -0.3787860000
   45      H       1.7958540000    -1.2262520000    -1.2185540000
   46      H       0.5862020000    -1.1335100000    -3.4197350000
   47      H      -0.9493850000    -1.2141670000    -2.5756860000
   48      H      -0.3189560000    -3.4601930000    -1.6443430000
   49      H       1.2152690000    -3.3809960000    -2.4899790000
   50      H      -0.0019730000    -3.2897240000    -4.6870850000
   51      H      -1.5350470000    -3.3710790000    -3.8396530000
   52      C      -0.4189340000    -5.2193480000    -3.8119800000
   53      C      -1.0719610000    -5.8439140000    -5.0503430000
   54      C      -1.0041410000    -7.3751520000    -5.0776550000
   55      C      -1.6575470000    -7.9993220000    -6.3159800000
   56      C      -1.5887690000    -9.5304870000    -6.3436210000
   57      C      -2.2427620000   -10.1544210000    -7.5817370000
   58      C      -2.1731910000   -11.6855600000    -7.6096750000
   59      C      -2.8274430000   -12.3096170000    -8.8473330000
   60      C      -2.7579720000   -13.8407310000    -8.8763560000
   61      C      -3.4145010000   -14.4546620000   -10.1164950000
   62      H      -0.9013660000    -5.6174350000    -2.9097170000
   63      H       0.6309030000    -5.5365090000    -3.7584160000
   64      H      -0.5904510000    -5.4448850000    -5.9528350000
   65      H      -2.1220280000    -5.5278360000    -5.1029920000
   66      H      -1.4855500000    -7.7741810000    -4.1752760000
   67      H       0.0459770000    -7.6912830000    -5.0251340000
   68      H      -1.1766670000    -7.5997120000    -7.2184660000
   69      H      -2.7078090000    -7.6838480000    -6.3679770000
   70      H      -2.0693370000    -9.9300830000    -5.4410600000
   71      H      -0.5384630000    -9.8459880000    -6.2920050000
   72      H      -1.7626420000    -9.7543820000    -8.4843810000
   73      H      -3.2931980000    -9.8394810000    -7.6329290000
   74      H      -2.6531040000   -12.0855950000    -6.7069440000
   75      H      -1.1226930000   -12.0005230000    -7.5587840000
   76      H      -2.3481340000   -11.9101520000    -9.7508490000
   77      H      -3.8783750000   -11.9957870000    -8.8986960000
   78      H      -3.2373040000   -14.2403370000    -7.9742570000
   79      H      -1.7081740000   -14.1548370000    -8.8260400000
   80      H      -4.4744300000   -14.1872410000   -10.1759920000
   81      H      -3.3478590000   -15.5464300000   -10.1065650000
   82      H      -2.9338550000   -14.1009670000   -11.0343270000
 ----------------------------------------------------------------

   10   -1565.5679431287      4.91e-06  Convergence criterion met
 Total energy in the final basis set =    -1565.5679431287
    3   -1565.5637221955      9.30e-06  Convergence criterion met
 Total energy in the final basis set =    -1565.6560103675

                    Orbital Energies (a.u.)
 --------------------------------------------------------------

 Alpha MOs
 -- Occupied --
-19.1443 -19.0875 -19.0727 -14.2907 -10.2288 -10.2257 -10.2216 -10.2103
-10.1874 -10.1823 -10.1821 -10.1810 -10.1808 -10.1803 -10.1792 -10.1788
-10.1787 -10.1787 -10.1785 -10.1784 -10.1765 -10.1687 -10.1647 -10.1626
-10.1620 -10.1616 -10.1613 -10.1611 -10.1611 -10.1610 -10.1609 -10.1608
-10.1607 -10.1606 -10.1605 -10.1584 -10.1571  -1.0666  -0.9996  -0.9969
 -0.9038  -0.8641  -0.8612  -0.8170  -0.8122  -0.8083  -0.7978  -0.7835
 -0.7727  -0.7587  -0.7567  -0.7539  -0.7445  -0.7360  -0.7118  -0.6906
 -0.6765  -0.6622  -0.6446  -0.6248  -0.6184  -0.6156  -0.6086  -0.5955
 -0.5818  -0.5804  -0.5782  -0.5772  -0.5726  -0.5712  -0.5689  -0.5421
 -0.5215  -0.5106  -0.4900  -0.4878  -0.4844  -0.4778  -0.4738  -0.4704
 -0.4644  -0.4613  -0.4561  -0.4506  -0.4450  -0.4420  -0.4362  -0.4340
 -0.4330  -0.4291  -0.4275  -0.4259  -0.4183  -0.4157  -0.4100  -0.4096
 -0.4040  -0.3975  -0.3968  -0.3926  -0.3902  -0.3844  -0.3816  -0.3800
 -0.3733  -0.3728  -0.3650  -0.3644  -0.3601  -0.3555  -0.3499  -0.3477
 -0.3470  -0.3451  -0.3425  -0.3419  -0.3384  -0.3354  -0.3336  -0.3288
 -0.3275  -0.3251  -0.3235  -0.3232  -0.3224  -0.3212  -0.3210  -0.3135
 -0.2923  -0.2708  -0.2637  -0.2631  -0.2602  -0.2567  -0.2454  -0.2340
 -0.2172  -0.1533

 Beta MOs
 -- Occupied --
-19.1436 -19.0807 -19.0673 -14.2907 -10.2277 -10.2244 -10.2191 -10.2103
-10.1873 -10.1823 -10.1821 -10.1810 -10.1807 -10.1801 -10.1788 -10.1787
-10.1787 -10.1784 -10.1780 -10.1774 -10.1768 -10.1681 -10.1647 -10.1626
-10.1620 -10.1616 -10.1613 -10.1611 -10.1611 -10.1610 -10.1609 -10.1608
-10.1607 -10.1606 -10.1605 -10.1584 -10.1571  -1.0640  -0.9904  -0.9855
 -0.9036  -0.8621  -0.8610  -0.8170  -0.8111  -0.8065  -0.7974  -0.7830
 -0.7719  -0.7586  -0.7547  -0.7539  -0.7434  -0.7358  -0.7115  -0.6887
 -0.6721  -0.6588  -0.6442  -0.6239  -0.6183  -0.6145  -0.6069  -0.5952
 -0.5815  -0.5800  -0.5782  -0.5769  -0.5723  -0.5712  -0.5676  -0.5404
 -0.5209  -0.5091  -0.4899  -0.4861  -0.4834  -0.4774  -0.4730  -0.4701
 -0.4632  -0.4612  -0.4558  -0.4500  -0.4445  -0.4406  -0.4352  -0.4326
 -0.4306  -0.4290  -0.4265  -0.4219  -0.4165  -0.4126  -0.4085  -0.4077
 -0.4027  -0.3967  -0.3949  -0.3917  -0.3846  -0.3815  -0.3807  -0.3785
 -0.3729  -0.3686  -0.3647  -0.3601  -0.3546  -0.3531  -0.3482  -0.3472
 -0.3462  -0.3424  -0.3420  -0.3378  -0.3354  -0.3336  -0.3288  -0.3280
 -0.3268  -0.3251  -0.3235  -0.3232  -0.3224  -0.3212  -0.3210  -0.3134
 -0.2923  -0.2635  -0.2576  -0.2558  -0.2540  -0.2515  -0.2408  -0.2246
 -0.2143

          Ground-State Mulliken Net Atomic Charges

     Atom                 Charge (a.u.)    Spin (a.u.)
  --------------------------------------------------------
      1 C                    -0.096391       0.072799
      2 C                     0.602993       0.000172
      3 C                     0.443086       0.071867
      4 C                    -0.740606       0.010988
      5 C                    -0.713720       0.063058
      6 C                    -0.287271      -0.004834
      7 C                    -1.329785       0.146352
      8 C                    -0.687159       0.061643
      9 C                     0.738343       0.061831
     10 C                    -1.403480       0.047309
     11 O                    -0.390140       0.253180
     12 O                    -0.251410       0.208375
     13 O                    -0.116534       0.022075
     14 H                     0.181953      -0.003826
     15 H                     0.344630      -0.000423
     16 H                     0.324987      -0.005285
     17 H                     0.171318       0.000247
     18 H                     0.300834      -0.004421
     19 C                    -0.617268      -0.019994
     20 C                    -1.200355      -0.020652
     21 C                     0.194492       0.010753
     22 C                     0.713466      -0.002892
     23 C                     0.514846      -0.002592
     24 C                     0.459236       0.005981
     25 H                     0.034282       0.000597
     26 H                     0.230323       0.000744
     27 H                     0.336394      -0.000071
     28 H                     0.303371       0.000253
     29 H                     0.335871      -0.000044
     30 C                    -0.229651       0.022278
     31 H                     0.123022       0.000536
     32 N                     0.096468      -0.007306
     33 C                    -2.207106       0.003499
     34 C                    -0.299007       0.006258
     35 C                    -0.202995      -0.000980
     36 C                     0.374548      -0.000179
     37 C                     0.798849      -0.000046
     38 C                     0.514065       0.000082
     39 H                     0.149414       0.001553
     40 H                     0.002719       0.000942
     41 H                    -0.126769       0.000661
     42 H                     0.107541      -0.000147
     43 H                     0.097902      -0.000641
     44 H                     0.124666       0.000371
     45 H                     0.183957      -0.000076
     46 H                     0.140698       0.000049
     47 H                     0.113562      -0.000007
     48 H                     0.105908      -0.000024
     49 H                     0.108034      -0.000000
     50 H                     0.114510      -0.000004
     51 H                     0.110577       0.000002
     52 C                     0.029025      -0.000010
     53 C                    -0.329319      -0.000006
     54 C                    -0.447853       0.000000
     55 C                    -0.332268      -0.000000
     56 C                    -0.083994       0.000003
     57 C                     0.041997      -0.000001
     58 C                    -0.015696       0.000003
     59 C                    -0.233024      -0.000002
     60 C                    -0.200566       0.000002
     61 C                    -0.565343       0.000001
     62 H                     0.113296       0.000000
     63 H                     0.119706       0.000001
     64 H                     0.117951       0.000000
     65 H                     0.115082      -0.000001
     66 H                     0.114610      -0.000000
     67 H                     0.117875      -0.000000
     68 H                     0.118474       0.000000
     69 H                     0.116190       0.000000
     70 H                     0.113753      -0.000001
     71 H                     0.115620      -0.000001
     72 H                     0.115245       0.000000
     73 H                     0.114170       0.000000
     74 H                     0.113952      -0.000001
     75 H                     0.115406      -0.000001
     76 H                     0.105851       0.000000
     77 H                     0.104818       0.000000
     78 H                     0.126015      -0.000001
     79 H                     0.126786      -0.000001
     80 H                     0.140804      -0.000000
     81 H                     0.172986      -0.000000
     82 H                     0.141231      -0.000000
  --------------------------------------------------------
  Sum of atomic charges =    -1.000000

                    Cartesian Multipole Moments
 -----------------------------------------------------------------
    Charge (ESU x 10^10)
                -4.8032
    Dipole Moment (Debye)
         X      -0.3720      Y     -18.6103      Z     -13.0703
       Tot      22.7445
    Quadrupole Moments (Debye-Ang)
        XX    -244.1112     XY      -4.2338     YY    -328.3321
        XZ      -1.0476     YZ     -70.5470     ZZ    -295.7475

 Total job time:  3569.99s(wall), 17358.74s(cpu)
        *  Thank you very much for using Q-Chem.  Have a nice day.  *
