 Gaussian 16, Revision A.03,
 Gaussian 16:  ES64L-G16RevA.03 25-Dec-2016

 ----------------------------------------------------------------------
 #P UB3LYP/6-311++G(d,p) nosym opt freq SCRF=(PCM,Solvent=n,n-DiMethylF
 ormamide)
 ----------------------------------------------------------------------

 -------
 Reduced
 -------
 Symbolic Z-matrix:
 Charge = -2 Multiplicity = 1

 SCF Done:  E(UB3LYP) =  -853.674258507     A.U. after   17 cycles
 SCF Done:  E(UB3LYP) =  -853.674834147     A.U. after   13 cycles
 SCF Done:  E(UB3LYP) =  -853.675358484     A.U. after   13 cycles
 SCF Done:  E(UB3LYP) =  -853.674184859     A.U. after   13 cycles
 SCF Done:  E(UB3LYP) =  -853.675766314     A.U. after   12 cycles
 SCF Done:  E(UB3LYP) =  -853.675811548     A.U. after   11 cycles
 SCF Done:  E(UB3LYP) =  -853.675758572     A.U. after   11 cycles
 SCF Done:  E(UB3LYP) =  -853.675858676     A.U. after   11 cycles
 SCF Done:  E(UB3LYP) =  -853.675867770     A.U. after   10 cycles
 SCF Done:  E(UB3LYP) =  -853.675876801     A.U. after   10 cycles
 SCF Done:  E(UB3LYP) =  -853.675879635     A.U. after   10 cycles
 SCF Done:  E(UB3LYP) =  -853.675880607     A.U. after    9 cycles
 SCF Done:  E(UB3LYP) =  -853.675880944     A.U. after    9 cycles
 SCF Done:  E(UB3LYP) =  -853.675881055     A.U. after    9 cycles
 SCF Done:  E(UB3LYP) =  -853.675881110     A.U. after    8 cycles
 Optimization completed.
    -- Stationary point found.
 Normal termination of Gaussian 16 at Sat Feb 10 12:49:46 2024.

 ----------------------------------------------------------------------
 #P Geom=AllCheck Guess=TCheck SCRF=Check GenChk UB3LYP/6-311++G(d,p) F
 req
 ----------------------------------------------------------------------

 Structure from the checkpoint file:  "054-an.chk"
 -------
 Reduced
 -------
 Charge = -2 Multiplicity = 1

                          Input orientation:
 ---------------------------------------------------------------------
 Center     Atomic      Atomic             Coordinates (Angstroms)
 Number     Number       Type             X           Y           Z
 ---------------------------------------------------------------------
      1          6           0       -0.567960    2.093728   -0.131216
      2          6           0       -1.771743    1.307554   -0.097686
      3          6           0       -1.718752   -0.105741   -0.028951
      4          6           0       -0.465341   -0.808927   -0.001318
      5          6           0        0.734790   -0.018028   -0.006918
      6          6           0        0.687930    1.396171   -0.066600
      7          8           0       -0.614941    3.420549   -0.210886
      8          8           0       -0.419153   -2.128065    0.034393
      9          6           0        1.923126    2.309702   -0.058482
     10          6           0        2.738023    2.298666    1.253185
     11          6           0        2.832453    2.207929   -1.301976
     12          6           0        2.076885   -0.756209    0.056629
     13          6           0        2.258189   -1.557746    1.361764
     14          6           0        2.339745   -1.641031   -1.179175
     15          6           0       -3.068944    2.129494   -0.140974
     16          6           0       -3.913996    2.091136    1.150749
     17          6           0       -3.936010    1.931604   -1.402528
     18          6           0       -3.004227   -0.938684    0.034304
     19          6           0       -3.188840   -1.868500   -1.182148
     20          6           0       -3.134039   -1.723505    1.356199
     21          1           0        1.479575    3.305884   -0.110961
     22          1           0        3.492921    3.095131    1.241163
     23          1           0        3.261599    1.356662    1.436200
     24          1           0        2.082385    2.479847    2.111134
     25          1           0        3.372332    1.260146   -1.374391
     26          1           0        3.581028    3.010409   -1.294800
     27          1           0        2.241050    2.317793   -2.216633
     28          1           0        2.868485   -0.010389    0.056799
     29          1           0        2.213317   -0.893474    2.231642
     30          1           0        3.232818   -2.062626    1.379692
     31          1           0        1.468826   -2.304162    1.455502
     32          1           0        1.571256   -2.409842   -1.261963
     33          1           0        3.322919   -2.124754   -1.111736
     34          1           0        2.328352   -1.040267   -2.095105
     35          1           0       -2.697123    3.153758   -0.207414
     36          1           0       -4.724904    2.828853    1.099875
     37          1           0       -3.295032    2.341755    2.018376
     38          1           0       -4.371291    1.117589    1.346367
     39          1           0       -4.740017    2.677880   -1.434506
     40          1           0       -4.404535    0.945838   -1.462734
     41          1           0       -3.330763    2.061143   -2.305578
     42          1           0       -3.848830   -0.253679    0.013304
     43          1           0       -4.132049   -2.425383   -1.108736
     44          1           0       -2.360885   -2.575293   -1.239563
     45          1           0       -3.217489   -1.290642   -2.112417
     46          1           0       -4.061503   -2.310415    1.375698
     47          1           0       -3.156931   -1.038817    2.210980
     48          1           0       -2.284369   -2.396754    1.475441
 ---------------------------------------------------------------------

 SCF Done:  E(UB3LYP) =  -853.675881110     A.U. after    1 cycles

 Alpha  occ. eigenvalues --  -18.99510 -18.98479 -10.14623 -10.14391 -10.13893
 Alpha  occ. eigenvalues --  -10.13892 -10.13715 -10.13714 -10.13712 -10.13704
 Alpha  occ. eigenvalues --  -10.13620 -10.13607 -10.12789 -10.12756 -10.12747
 Alpha  occ. eigenvalues --  -10.12737 -10.11088 -10.11086 -10.10937 -10.10936
 Alpha  occ. eigenvalues --   -0.90010  -0.89405  -0.78573  -0.78034  -0.75522
 Alpha  occ. eigenvalues --   -0.75215  -0.72368  -0.66599  -0.66372  -0.66362
 Alpha  occ. eigenvalues --   -0.65444  -0.65408  -0.62556  -0.59497  -0.56761
 Alpha  occ. eigenvalues --   -0.54506  -0.52617  -0.49764  -0.47891  -0.44819
 Alpha  occ. eigenvalues --   -0.43578  -0.41917  -0.41183  -0.41147  -0.40554
 Alpha  occ. eigenvalues --   -0.40340  -0.39293  -0.39169  -0.38649  -0.38448
 Alpha  occ. eigenvalues --   -0.38256  -0.37580  -0.36764  -0.36330  -0.35893
 Alpha  occ. eigenvalues --   -0.35549  -0.35255  -0.33549  -0.33006  -0.32086
 Alpha  occ. eigenvalues --   -0.31609  -0.31494  -0.31251  -0.31002  -0.30511
 Alpha  occ. eigenvalues --   -0.29959  -0.29951  -0.29507  -0.28262  -0.27469
 Alpha  occ. eigenvalues --   -0.26726  -0.26632  -0.19635  -0.17989  -0.17453
 Alpha  occ. eigenvalues --   -0.16095  -0.09878
 Alpha virt. eigenvalues --   -0.00326   0.00493   0.00961   0.01231   0.02019
 Alpha virt. eigenvalues --    0.02363   0.02388   0.03143   0.03228   0.03332
 Alpha virt. eigenvalues --    0.03957   0.04518   0.04622   0.04791   0.05636

  Beta  occ. eigenvalues --  -18.99510 -18.98479 -10.14623 -10.14391 -10.13893
  Beta  occ. eigenvalues --  -10.13892 -10.13715 -10.13714 -10.13712 -10.13704
  Beta  occ. eigenvalues --  -10.13620 -10.13607 -10.12789 -10.12756 -10.12747
  Beta  occ. eigenvalues --  -10.12737 -10.11088 -10.11086 -10.10937 -10.10936
  Beta  occ. eigenvalues --   -0.90010  -0.89405  -0.78573  -0.78034  -0.75522
  Beta  occ. eigenvalues --   -0.75215  -0.72368  -0.66599  -0.66372  -0.66362
  Beta  occ. eigenvalues --   -0.65444  -0.65408  -0.62556  -0.59497  -0.56761
  Beta  occ. eigenvalues --   -0.54506  -0.52617  -0.49764  -0.47891  -0.44819
  Beta  occ. eigenvalues --   -0.43578  -0.41917  -0.41183  -0.41147  -0.40554
  Beta  occ. eigenvalues --   -0.40340  -0.39293  -0.39169  -0.38649  -0.38448
  Beta  occ. eigenvalues --   -0.38256  -0.37580  -0.36764  -0.36330  -0.35893
  Beta  occ. eigenvalues --   -0.35549  -0.35255  -0.33549  -0.33006  -0.32086
  Beta  occ. eigenvalues --   -0.31609  -0.31494  -0.31251  -0.31002  -0.30511
  Beta  occ. eigenvalues --   -0.29959  -0.29951  -0.29507  -0.28262  -0.27469
  Beta  occ. eigenvalues --   -0.26726  -0.26632  -0.19635  -0.17989  -0.17453
  Beta  occ. eigenvalues --   -0.16095  -0.09878
  Beta virt. eigenvalues --   -0.00326   0.00493   0.00961   0.01231   0.02019
  Beta virt. eigenvalues --    0.02363   0.02388   0.03143   0.03228   0.03332
  Beta virt. eigenvalues --    0.03957   0.04518   0.04622   0.04791   0.05636

 Mulliken charges and spin densities:
               1          2
     1  C   -1.139599  -0.000000
     2  C    0.470199   0.000000
     3  C    0.253674   0.000000
     4  C   -0.767330  -0.000000
     5  C    0.252250   0.000000
     6  C    0.467214   0.000000
     7  O   -0.683336   0.000000
     8  O   -0.621767   0.000000
     9  C    0.189850   0.000000
    10  C   -0.723139   0.000000
    11  C   -0.722002   0.000000
    12  C    0.698132   0.000000
    13  C   -0.750026   0.000000
    14  C   -0.750870  -0.000000
    15  C    0.190260  -0.000000
    16  C   -0.718777  -0.000000
    17  C   -0.726074  -0.000000
    18  C    0.701592  -0.000000
    19  C   -0.747541   0.000000
    20  C   -0.754710   0.000000
    21  H    0.193271  -0.000000
    22  H    0.133166   0.000000
    23  H    0.144513  -0.000000
    24  H    0.142119   0.000000
    25  H    0.143602  -0.000000
    26  H    0.134176   0.000000
    27  H    0.143934   0.000000
    28  H    0.085806   0.000000
    29  H    0.109825  -0.000000
    30  H    0.131901  -0.000000
    31  H    0.166875   0.000000
    32  H    0.167851   0.000000
    33  H    0.131837  -0.000000
    34  H    0.111724  -0.000000
    35  H    0.193763   0.000000
    36  H    0.133121   0.000000
    37  H    0.142614   0.000000
    38  H    0.143892   0.000000
    39  H    0.133917   0.000000
    40  H    0.144014   0.000000
    41  H    0.143210  -0.000000
    42  H    0.086131   0.000000
    43  H    0.131756  -0.000000
    44  H    0.168901   0.000000
    45  H    0.110929  -0.000000
    46  H    0.130840  -0.000000
    47  H    0.109337   0.000000
    48  H    0.168977   0.000000
 Sum of Mulliken charges =  -2.00000   0.00000

 Dipole moment (field-independent basis, Debye):
    X=              4.9639    Y=             -5.8948    Z=              0.7244  Tot=              7.7404
 Quadrupole moment (field-independent basis, Debye-Ang):
   XX=           -157.9577   YY=           -206.3489   ZZ=           -144.5842
   XY=              4.6917   XZ=             -0.5812   YZ=              3.0865

  Exact polarizability: 396.619   0.477 386.242   1.230  -4.587 285.224
 Approx polarizability: 403.388  -0.431 417.645   1.237  -5.465 296.585

                      1                      2                      3
                      A                      A                      A
 Frequencies --     42.9831                45.3928                76.1296
 Red. masses --      3.1666                 3.2879                 2.8712
 Frc consts  --      0.0034                 0.0040                 0.0098
 IR Inten    --      9.1510                 1.8381                 1.6852

                      4                      5                      6
                      A                      A                      A
 Frequencies --     82.0590                92.8749               109.1915
 Red. masses --      3.4165                 2.9719                 3.1848
 Frc consts  --      0.0136                 0.0151                 0.0224
 IR Inten    --      2.2781                 4.9488                11.1879

                      7                      8                      9
                      A                      A                      A
 Frequencies --    116.9600               143.5636               169.9609
 Red. masses --      2.7062                 2.5508                 2.4660
 Frc consts  --      0.0218                 0.0310                 0.0420
 IR Inten    --      0.3484                 9.3205                 3.9781

                     10                     11                     12
                      A                      A                      A
 Frequencies --    172.1485               181.7901               182.5751
 Red. masses --      2.2153                 1.9586                 2.2863
 Frc consts  --      0.0387                 0.0381                 0.0449
 IR Inten    --      4.8929                 3.9568                 4.7995

                     13                     14                     15
                      A                      A                      A
 Frequencies --    197.8973               206.2113               207.0161
 Red. masses --      1.3572                 1.2822                 1.3318
 Frc consts  --      0.0313                 0.0321                 0.0336
 IR Inten    --      3.7475                 1.1857                 0.9315

                     16                     17                     18
                      A                      A                      A
 Frequencies --    213.0210               220.4299               226.0348
 Red. masses --      1.1374                 1.1457                 1.7007
 Frc consts  --      0.0304                 0.0328                 0.0512
 IR Inten    --      0.4805                 0.6390                 1.0365

                     19                     20                     21
                      A                      A                      A
 Frequencies --    231.9821               243.4647               248.7384
 Red. masses --      1.1849                 1.6335                 2.0225
 Frc consts  --      0.0376                 0.0570                 0.0737
 IR Inten    --      2.3704                 1.3847                 0.2756

                     22                     23                     24
                      A                      A                      A
 Frequencies --    256.9830               270.9673               273.1306
 Red. masses --      1.2496                 3.0506                 3.3185
 Frc consts  --      0.0486                 0.1320                 0.1459
 IR Inten    --      2.0492                 0.2554                 1.0659

                     25                     26                     27
                      A                      A                      A
 Frequencies --    288.3535               295.6862               313.1080
 Red. masses --      2.6748                 2.7180                 3.0115
 Frc consts  --      0.1310                 0.1400                 0.1739
 IR Inten    --      2.7387                20.3579                12.7207

                     28                     29                     30
                      A                      A                      A
 Frequencies --    391.0155               412.8932               425.5158
 Red. masses --      4.3815                 4.8039                 2.5614
 Frc consts  --      0.3947                 0.4825                 0.2733
 IR Inten    --      5.2541                40.0947                 1.3696

                     31                     32                     33
                      A                      A                      A
 Frequencies --    440.3260               449.9379               451.7708
 Red. masses --      2.6828                 2.6874                 3.0856
 Frc consts  --      0.3065                 0.3205                 0.3710
 IR Inten    --      8.2678                 1.0836                 3.7011

                     34                     35                     36
                      A                      A                      A
 Frequencies --    473.3593               497.7288               523.1016
 Red. masses --      6.5530                 5.9887                 3.2591
 Frc consts  --      0.8651                 0.8741                 0.5254
 IR Inten    --      0.2214                 2.0765                 0.1170

                     37                     38                     39
                      A                      A                      A
 Frequencies --    523.5064               554.9709               588.9936
 Red. masses --      4.1861                 3.0123                 2.9436
 Frc consts  --      0.6759                 0.5466                 0.6017
 IR Inten    --      0.0422                 0.0226                43.5869

                     40                     41                     42
                      A                      A                      A
 Frequencies --    680.9014               714.5594               743.5164
 Red. masses --      6.9231                 5.9050                 9.3011
 Frc consts  --      1.8911                 1.7764                 3.0294
 IR Inten    --      0.0166                 0.2878                14.9071

                     43                     44                     45
                      A                      A                      A
 Frequencies --    783.7521               809.0843               830.6174
 Red. masses --      2.7712                 9.0342                 3.0724
 Frc consts  --      1.0029                 3.4844                 1.2489
 IR Inten    --     26.4337                 0.3469                 0.6053

                     46                     47                     48
                      A                      A                      A
 Frequencies --    851.3614               858.0931               908.4406
 Red. masses --      3.3982                 2.7011                 1.1826
 Frc consts  --      1.4512                 1.1718                 0.5750
 IR Inten    --     94.6817                36.4315                 4.2257

                     49                     50                     51
                      A                      A                      A
 Frequencies --    911.0440               912.1102               920.8657
 Red. masses --      1.1802                 2.2551                 1.2544
 Frc consts  --      0.5772                 1.1054                 0.6267
 IR Inten    --      4.7147                 0.5619                 2.7288

                     52                     53                     54
                      A                      A                      A
 Frequencies --    922.4388               927.5341               949.3780
 Red. masses --      1.2660                 2.5495                 1.5165
 Frc consts  --      0.6347                 1.2923                 0.8053
 IR Inten    --      2.7576               176.5277                 1.3374

                     55                     56                     57
                      A                      A                      A
 Frequencies --    949.7569               953.9128               954.4233
 Red. masses --      1.5034                 1.4507                 1.4383
 Frc consts  --      0.7990                 0.7778                 0.7719
 IR Inten    --      0.7440                 0.1191                 0.0430

                     58                     59                     60
                      A                      A                      A
 Frequencies --    970.1622              1021.1804              1068.1992
 Red. masses --      2.3183                 2.0523                 2.2617
 Frc consts  --      1.2856                 1.2609                 1.5205
 IR Inten    --      0.0429                86.1131               133.3105

                     61                     62                     63
                      A                      A                      A
 Frequencies --   1085.4323              1112.7973              1113.9595
 Red. masses --      2.0113                 1.9075                 2.4769
 Frc consts  --      1.3961                 1.3917                 1.8109
 IR Inten    --     22.6913               103.6982                42.2580

                     64                     65                     66
                      A                      A                      A
 Frequencies --   1115.6135              1116.6247              1120.2550
 Red. masses --      2.0970                 2.3535                 2.5070
 Frc consts  --      1.5377                 1.7290                 1.8537
 IR Inten    --     71.0474                37.5263                16.8614

                     67                     68                     69
                      A                      A                      A
 Frequencies --   1122.8809              1167.5721              1175.0866
 Red. masses --      2.5330                 2.4993                 2.2051
 Frc consts  --      1.8817                 2.0074                 1.7940
 IR Inten    --      4.1350                60.0124                70.1322

                     70                     71                     72
                      A                      A                      A
 Frequencies --   1181.3984              1183.3774              1194.4618
 Red. masses --      2.2637                 2.0858                 2.3553
 Frc consts  --      1.8615                 1.7210                 1.9799
 IR Inten    --      1.1091                 0.1261                64.6086

                     73                     74                     75
                      A                      A                      A
 Frequencies --   1259.5786              1290.1909              1320.1861
 Red. masses --      3.2042                 7.1350                 3.1621
 Frc consts  --      2.9951                 6.9976                 3.2471
 IR Inten    --    168.9246               125.3974               862.2537

                     76                     77                     78
                      A                      A                      A
 Frequencies --   1331.5970              1340.8106              1348.8806
 Red. masses --      1.6662                 1.5726                 1.2442
 Frc consts  --      1.7407                 1.6657                 1.3338
 IR Inten    --      2.8665                 1.5174                14.9288

                     79                     80                     81
                      A                      A                      A
 Frequencies --   1351.0835              1357.4083              1357.5813
 Red. masses --      1.2485                 1.3212                 1.2423
 Frc consts  --      1.3428                 1.4343                 1.3490
 IR Inten    --     15.1875                61.1462                 6.5088

                     82                     83                     84
                      A                      A                      A
 Frequencies --   1358.6002              1366.8505              1369.6790
 Red. masses --      1.5552                 1.3106                 1.3242
 Frc consts  --      1.6913                 1.4426                 1.4637
 IR Inten    --    164.8346                 5.3773                21.8284

                     85                     86                     87
                      A                      A                      A
 Frequencies --   1387.0901              1387.9380              1388.0656
 Red. masses --      1.5899                 1.2173                 1.2513
 Frc consts  --      1.8023                 1.3816                 1.4205
 IR Inten    --    252.5598                11.4837                60.7381

                     88                     89                     90
                      A                      A                      A
 Frequencies --   1395.4584              1396.8484              1401.7365
 Red. masses --      1.2117                 1.2487                 1.2480
 Frc consts  --      1.3902                 1.4355                 1.4448
 IR Inten    --      1.0553                13.1095                11.6386

                     91                     92                     93
                      A                      A                      A
 Frequencies --   1402.9069              1424.2504              1464.1041
 Red. masses --      1.2176                 3.4962                 1.0441
 Frc consts  --      1.4120                 4.1785                 1.3187
 IR Inten    --      6.3245               160.7373                 0.0632

                     94                     95                     96
                      A                      A                      A
 Frequencies --   1464.6783              1473.7292              1478.0525
 Red. masses --      1.0448                 1.1234                 1.0719
 Frc consts  --      1.3206                 1.4375                 1.3797
 IR Inten    --      0.1740                 1.5621                 0.2454

                     97                     98                     99
                      A                      A                      A
 Frequencies --   1478.7391              1479.5991              1484.2885
 Red. masses --      1.0462                 1.0456                 1.4554
 Frc consts  --      1.3478                 1.3487                 1.8891
 IR Inten    --      0.0774                 0.1947                 3.4330

                    100                    101                    102
                      A                      A                      A
 Frequencies --   1486.9884              1487.8738              1488.1198
 Red. masses --      1.0606                 1.0594                 1.0614
 Frc consts  --      1.3817                 1.3817                 1.3848
 IR Inten    --      1.1905                 1.8960                 2.0874

                    103                    104                    105
                      A                      A                      A
 Frequencies --   1491.6747              1496.9592              1498.4421
 Red. masses --      1.4694                 1.0715                 1.2210
 Frc consts  --      1.9264                 1.4147                 1.6152
 IR Inten    --      3.0560                 3.0599                 5.1972

                    106                    107                    108
                      A                      A                      A
 Frequencies --   1500.6702              1503.2998              1509.5771
 Red. masses --      1.0680                 1.0511                 1.0668
 Frc consts  --      1.4171                 1.3996                 1.4323
 IR Inten    --      1.8516                 2.9091                 0.3398

                    109                    110                    111
                      A                      A                      A
 Frequencies --   1514.5013              1560.7480              2986.6635
 Red. masses --      1.0612                 6.2417                 1.0421
 Frc consts  --      1.4341                 8.9581                 5.4767
 IR Inten    --      0.7670                 2.1467                75.6201

                    112                    113                    114
                      A                      A                      A
 Frequencies --   2987.5569              2992.5938              2993.2075
 Red. masses --      1.0431                 1.0428                 1.0417
 Frc consts  --      5.4856                 5.5021                 5.4989
 IR Inten    --     82.3409               325.0406                64.2088

                    115                    116                    117
                      A                      A                      A
 Frequencies --   2993.3267              2993.7640              2998.6886
 Red. masses --      1.0416                 1.0435                 1.0427
 Frc consts  --      5.4986                 5.5105                 5.5240
 IR Inten    --     88.3812               191.4860               306.6750

                    118                    119                    120
                      A                      A                      A
 Frequencies --   2999.6989              3034.0074              3041.9986
 Red. masses --      1.0425                 1.0850                 1.0858
 Frc consts  --      5.5271                 5.8844                 5.9199
 IR Inten    --     58.2902                37.9867                63.0919

                    121                    122                    123
                      A                      A                      A
 Frequencies --   3043.3276              3043.6315              3046.7214
 Red. masses --      1.0959                 1.0958                 1.0949
 Frc consts  --      5.9802                 5.9808                 5.9884
 IR Inten    --     68.2899                72.5724                93.7666

                    124                    125                    126
                      A                      A                      A
 Frequencies --   3046.9209              3049.4298              3049.5948
 Red. masses --      1.0948                 1.0947                 1.0944
 Frc consts  --      5.9882                 5.9977                 5.9968
 IR Inten    --    114.2041                47.1471               117.4480

                    127                    128                    129
                      A                      A                      A
 Frequencies --   3053.8658              3055.2924              3075.3413
 Red. masses --      1.0940                 1.0939                 1.0991
 Frc consts  --      6.0111                 6.0161                 6.1244
 IR Inten    --    163.3641               111.8557                 8.3064

                    130                    131                    132
                      A                      A                      A
 Frequencies --   3075.5208              3080.6586              3082.8676
 Red. masses --      1.0994                 1.0949                 1.0931
 Frc consts  --      6.1270                 6.1222                 6.1209
 IR Inten    --      7.5200                63.4953                94.7593

                    133                    134                    135
                      A                      A                      A
 Frequencies --   3091.9137              3097.7504              3101.3032
 Red. masses --      1.0938                 1.0882                 1.0957
 Frc consts  --      6.1611                 6.1523                 6.2089
 IR Inten    --     38.2608                41.3667                 6.7779

                    136                    137                    138
                      A                      A                      A
 Frequencies --   3106.6605              3121.7561              3123.5111
 Red. masses --      1.0964                 1.0878                 1.0890
 Frc consts  --      6.2344                 6.2457                 6.2597
 IR Inten    --      0.7945                88.8586                64.0053

 - Thermochemistry -
 -------------------
 Temperature   298.150 Kelvin.  Pressure   1.00000 Atm.
 Atom     1 has atomic number  6 and mass  12.00000

 Molecular mass:   276.20893 amu.
 Principal axes and moments of inertia in atomic units:
                           1         2         3
     Eigenvalues --  4109.298476391.464338913.09390
           X            0.99931  -0.03527  -0.01152
           Y            0.03575   0.99838   0.04435
           Z            0.00993  -0.04473   0.99895
 This molecule is an asymmetric top.
 Rotational symmetry number  1.
 Warning -- assumption of classical behavior for rotation
           may cause significant error
 Rotational temperatures (Kelvin)      0.02108     0.01355     0.00972
 Rotational constants (GHZ):           0.43918     0.28237     0.20248
 Zero-point vibrational energy    1092423.4 (Joules/Mol)
                                  261.09545 (Kcal/Mol)
 Warning -- explicit consideration of  39 degrees of freedom as
           vibrations may cause significant error
 Vibrational temperatures:     61.84    65.31   109.53   118.06   133.63
          (Kelvin)            157.10   168.28   206.56   244.54   247.68
                              261.56   262.68   284.73   296.69   297.85
                              306.49   317.15   325.21   333.77   350.29
                              357.88   369.74   389.86   392.97   414.88
                              425.43   450.49   562.58   594.06   612.22
                              633.53   647.36   650.00   681.06   716.12
                              752.63   753.21   798.48   847.43   979.67
                             1028.09  1069.75  1127.64  1164.09  1195.07
                             1224.92  1234.60  1307.04  1310.79  1312.32
                             1324.92  1327.18  1334.51  1365.94  1366.49
                             1372.47  1373.20  1395.85  1469.25  1536.90
                             1561.69  1601.07  1602.74  1605.12  1606.57
                             1611.80  1615.58  1679.88  1690.69  1699.77
                             1702.62  1718.56  1812.25  1856.30  1899.45
                             1915.87  1929.13  1940.74  1943.91  1953.01
                             1953.26  1954.72  1966.59  1970.66  1995.71
                             1996.93  1997.12  2007.75  2009.75  2016.79
                             2018.47  2049.18  2106.52  2107.35  2120.37
                             2126.59  2127.58  2128.81  2135.56  2139.44
                             2140.72  2141.07  2146.19  2153.79  2155.92
                             2159.13  2162.91  2171.94  2179.03  2245.57
                             4297.14  4298.43  4305.67  4306.56  4306.73
                             4307.36  4314.44  4315.90  4365.26  4376.76
                             4378.67  4379.11  4383.55  4383.84  4387.45
                             4387.69  4393.83  4395.88  4424.73  4424.99
                             4432.38  4435.56  4448.57  4456.97  4462.08
                             4469.79  4491.51  4494.04

 Zero-point correction=                           0.416082 (Hartree/Particle)
 Thermal correction to Energy=                    0.439509
 Thermal correction to Enthalpy=                  0.440453
 Thermal correction to Gibbs Free Energy=         0.365931
 Sum of electronic and zero-point Energies=           -853.259799
 Sum of electronic and thermal Energies=              -853.236372
 Sum of electronic and thermal Enthalpies=            -853.235428
 Sum of electronic and thermal Free Energies=         -853.309950

                     E (Thermal)             CV                S
                      KCal/Mol        Cal/Mol-Kelvin    Cal/Mol-Kelvin
 Total                  275.796             89.087            156.846
 Electronic               0.000              0.000              0.000
 Translational            0.889              2.981             42.746
 Rotational               0.889              2.981             33.814
 Vibrational            274.019             83.125             80.285
 Vibration     1          0.595              1.980              5.117
 Vibration     2          0.595              1.979              5.009
 Vibration     3          0.599              1.965              3.988
 Vibration     4          0.600              1.961              3.841
 Vibration     5          0.602              1.954              3.599
 Vibration     6          0.606              1.942              3.283
 Vibration     7          0.608              1.935              3.150
 Vibration     8          0.616              1.910              2.756
 Vibration     9          0.625              1.879              2.436
 Vibration    10          0.626              1.877              2.412
 Vibration    11          0.630              1.865              2.310
 Vibration    12          0.630              1.863              2.302
 Vibration    13          0.637              1.843              2.153
 Vibration    14          0.641              1.831              2.077
 Vibration    15          0.641              1.830              2.070
 Vibration    16          0.644              1.821              2.018
 Vibration    17          0.647              1.810              1.956
 Vibration    18          0.650              1.801              1.910
 Vibration    19          0.653              1.792              1.864
 Vibration    20          0.659              1.774              1.777
 Vibration    21          0.662              1.765              1.740
 Vibration    22          0.667              1.751              1.682
 Vibration    23          0.675              1.727              1.590
 Vibration    24          0.676              1.723              1.576
 Vibration    25          0.685              1.695              1.484
 Vibration    26          0.690              1.682              1.441
 Vibration    27          0.701              1.649              1.346
 Vibration    28          0.759              1.489              0.996
 Vibration    29          0.777              1.442              0.916
 Vibration    30          0.787              1.415              0.873
 Vibration    31          0.800              1.382              0.826
 Vibration    32          0.809              1.361              0.796
 Vibration    33          0.810              1.357              0.790
 Vibration    34          0.830              1.309              0.728
 Vibration    35          0.853              1.255              0.664
 Vibration    36          0.878              1.199              0.603
 Vibration    37          0.878              1.198              0.602
 Vibration    38          0.910              1.129              0.534
 Vibration    39          0.946              1.055              0.469

 Optimization completed.
    -- Stationary point found.
 Normal termination of Gaussian 16 at Sat Feb 10 14:42:28 2024.
