 Gaussian 16, Revision A.03,
 Gaussian 16:  ES64L-G16RevA.03 25-Dec-2016

 ----------------------------------------------------------------------
 #P UB3LYP/6-311++G(d,p) nosym opt freq SCRF=(PCM,Solvent=n,n-DiMethylF
 ormamide)
 ----------------------------------------------------------------------

 -------
 Reduced
 -------
 Symbolic Z-matrix:
 Charge = -2 Multiplicity = 1

 SCF Done:  E(UB3LYP) =  -614.155685496     A.U. after   16 cycles
 SCF Done:  E(UB3LYP) =  -614.156809628     A.U. after   13 cycles
 SCF Done:  E(UB3LYP) =  -614.156984568     A.U. after   12 cycles
 SCF Done:  E(UB3LYP) =  -614.156994794     A.U. after   12 cycles
 SCF Done:  E(UB3LYP) =  -614.156999125     A.U. after   11 cycles
 SCF Done:  E(UB3LYP) =  -614.156999561     A.U. after   10 cycles
 SCF Done:  E(UB3LYP) =  -614.156999655     A.U. after    9 cycles
 Optimization completed.
    -- Stationary point found.
 Normal termination of Gaussian 16 at Sun Feb 11 02:24:37 2024.

 ----------------------------------------------------------------------
 #P Geom=AllCheck Guess=TCheck SCRF=Check GenChk UB3LYP/6-311++G(d,p) F
 req
 ----------------------------------------------------------------------

 Structure from the checkpoint file:  "241-an.chk"
 -------
 Reduced
 -------
 Charge = -2 Multiplicity = 1

                          Input orientation:
 ---------------------------------------------------------------------
 Center     Atomic      Atomic             Coordinates (Angstroms)
 Number     Number       Type             X           Y           Z
 ---------------------------------------------------------------------
      1          6           0       -2.411000    1.889691   -0.023635
      2          6           0       -1.233943    0.938988   -0.011476
      3          6           0       -1.473353   -0.461809    0.140760
      4          6           0       -2.897512   -0.954836    0.275752
      5          6           0       -0.431778   -1.420519    0.172493
      6          8           0       -0.633243   -2.712534    0.318797
      7          6           0        0.909382   -0.888247    0.030653
      8          6           0        2.028971   -1.760851    0.042366
      9          6           0        3.324618   -1.300943   -0.088589
     10          6           0        3.562101    0.087871   -0.239329
     11          6           0        2.494818    0.964268   -0.256104
     12          6           0        1.151005    0.525874   -0.126218
     13          6           0        0.064513    1.485593   -0.154229
     14          8           0        0.303510    2.770713   -0.303599
     15          1           0       -3.081203    1.717703   -0.877221
     16          1           0       -3.033417    1.794656    0.875473
     17          1           0       -2.048532    2.915996   -0.082723
     18          1           0       -2.900008   -2.043559    0.330209
     19          1           0       -3.527175   -0.649472   -0.570029
     20          1           0       -3.391835   -0.568892    1.177921
     21          1           0        1.829749   -2.820711    0.157757
     22          1           0        4.157710   -1.997792   -0.076789
     23          1           0        4.577966    0.458470   -0.341382
     24          1           0        2.658654    2.030338   -0.370858
 ---------------------------------------------------------------------

 SCF Done:  E(UB3LYP) =  -614.156999655     A.U. after    1 cycles

 Alpha  occ. eigenvalues --  -19.00646 -19.00645 -10.15988 -10.15986 -10.14573
 Alpha  occ. eigenvalues --  -10.14528 -10.14175 -10.14173 -10.13230 -10.13191
 Alpha  occ. eigenvalues --  -10.13180 -10.13179 -10.12181 -10.12139  -0.91526
 Alpha  occ. eigenvalues --   -0.91077  -0.81978  -0.77392  -0.72242  -0.71734
 Alpha  occ. eigenvalues --   -0.69291  -0.64197  -0.61970  -0.56530  -0.55364
 Alpha  occ. eigenvalues --   -0.51437  -0.47352  -0.45615  -0.42481  -0.41912
 Alpha  occ. eigenvalues --   -0.40349  -0.39524  -0.37307  -0.36867  -0.36264
 Alpha  occ. eigenvalues --   -0.35776  -0.35625  -0.34875  -0.34246  -0.32236
 Alpha  occ. eigenvalues --   -0.30344  -0.30268  -0.30109  -0.29057  -0.22398
 Alpha  occ. eigenvalues --   -0.21487  -0.19609  -0.19072  -0.18382  -0.10735
 Alpha virt. eigenvalues --   -0.00189  -0.00101   0.00788   0.01539   0.01629
 Alpha virt. eigenvalues --    0.02852   0.03040   0.03583   0.04672   0.05328
 Alpha virt. eigenvalues --    0.05814   0.06008   0.06220   0.07294   0.07868

  Beta  occ. eigenvalues --  -19.00646 -19.00645 -10.15988 -10.15986 -10.14573
  Beta  occ. eigenvalues --  -10.14528 -10.14175 -10.14173 -10.13230 -10.13191
  Beta  occ. eigenvalues --  -10.13180 -10.13179 -10.12181 -10.12139  -0.91526
  Beta  occ. eigenvalues --   -0.91077  -0.81978  -0.77392  -0.72242  -0.71734
  Beta  occ. eigenvalues --   -0.69291  -0.64197  -0.61970  -0.56530  -0.55364
  Beta  occ. eigenvalues --   -0.51437  -0.47352  -0.45615  -0.42481  -0.41912
  Beta  occ. eigenvalues --   -0.40349  -0.39524  -0.37307  -0.36867  -0.36264
  Beta  occ. eigenvalues --   -0.35776  -0.35625  -0.34875  -0.34246  -0.32236
  Beta  occ. eigenvalues --   -0.30344  -0.30268  -0.30109  -0.29057  -0.22398
  Beta  occ. eigenvalues --   -0.21487  -0.19609  -0.19072  -0.18382  -0.10735
  Beta virt. eigenvalues --   -0.00189  -0.00101   0.00788   0.01539   0.01629
  Beta virt. eigenvalues --    0.02852   0.03040   0.03583   0.04672   0.05328
  Beta virt. eigenvalues --    0.05814   0.06008   0.06220   0.07294   0.07868

 Mulliken charges and spin densities:
               1          2
     1  C   -0.512416   0.000000
     2  C    0.907065   0.000000
     3  C    0.899581  -0.000000
     4  C   -0.510064  -0.000000
     5  C   -1.305170   0.000000
     6  O   -0.724778  -0.000000
     7  C    0.647950  -0.000000
     8  C   -0.230998   0.000000
     9  C   -0.505760   0.000000
    10  C   -0.504831  -0.000000
    11  C   -0.231652   0.000000
    12  C    0.658755  -0.000000
    13  C   -1.310324   0.000000
    14  O   -0.724390   0.000000
    15  H    0.129589  -0.000000
    16  H    0.124455   0.000000
    17  H    0.168862  -0.000000
    18  H    0.168515  -0.000000
    19  H    0.125067   0.000000
    20  H    0.129095   0.000000
    21  H    0.146906   0.000000
    22  H    0.153789  -0.000000
    23  H    0.153833  -0.000000
    24  H    0.146923   0.000000
 Sum of Mulliken charges =  -2.00000   0.00000

 Dipole moment (field-independent basis, Debye):
    X=             -0.9330    Y=              0.1675    Z=              0.0428  Tot=              0.9489
 Quadrupole moment (field-independent basis, Debye-Ang):
   XX=           -103.9899   YY=           -151.1940   ZZ=            -95.0440
   XY=             -8.2697   XZ=              1.4716   YZ=              6.4114

  Exact polarizability: 372.152 -14.737 295.453 -13.300 -14.436 147.107
 Approx polarizability: 406.548 -14.162 333.975 -14.780 -17.051 160.814

                      1                      2                      3
                      A                      A                      A
 Frequencies --     26.5171                85.4540               116.1013
 Red. masses --      1.2493                 3.0848                 2.7697
 Frc consts  --      0.0005                 0.0133                 0.0220
 IR Inten    --      5.3364                24.6598                 0.0137

                      4                      5                      6
                      A                      A                      A
 Frequencies --    138.3338               154.8407               182.1357
 Red. masses --      1.2631                 3.2449                 3.6616
 Frc consts  --      0.0142                 0.0458                 0.0716
 IR Inten    --      0.8889                 0.5092                 3.0270

                      7                      8                      9
                      A                      A                      A
 Frequencies --    255.6064               291.8501               324.4551
 Red. masses --      4.4684                 3.7472                 2.7143
 Frc consts  --      0.1720                 0.1881                 0.1684
 IR Inten    --     23.2721                 2.4171                 1.4082

                     10                     11                     12
                      A                      A                      A
 Frequencies --    335.6876               370.0120               400.3142
 Red. masses --      4.0156                 7.7987                 7.0933
 Frc consts  --      0.2666                 0.6291                 0.6697
 IR Inten    --      2.4186                15.0243                 0.0032

                     13                     14                     15
                      A                      A                      A
 Frequencies --    430.6367               434.0511               455.1522
 Red. masses --      6.2210                 5.7556                 3.1999
 Frc consts  --      0.6797                 0.6389                 0.3906
 IR Inten    --      1.0530                12.5982                 3.8058

                     16                     17                     18
                      A                      A                      A
 Frequencies --    520.7184               527.6634               600.4016
 Red. masses --      9.6085                 3.8287                 5.2782
 Frc consts  --      1.5350                 0.6281                 1.1210
 IR Inten    --      1.1051                 0.0209                83.3149

                     19                     20                     21
                      A                      A                      A
 Frequencies --    663.2516               671.8790               672.5063
 Red. masses --      5.9672                 4.6244                 4.4933
 Frc consts  --      1.5466                 1.2300                 1.1973
 IR Inten    --      0.9088                 1.1241                 5.1448

                     22                     23                     24
                      A                      A                      A
 Frequencies --    688.2085               771.9964               791.1953
 Red. masses --      2.5427                 1.7700                 3.7178
 Frc consts  --      0.7096                 0.6215                 1.3712
 IR Inten    --     94.2359                65.6265                 0.0806

                     25                     26                     27
                      A                      A                      A
 Frequencies --    825.3197               860.9361               884.3143
 Red. masses --      3.6172                 1.6431                 3.2102
 Frc consts  --      1.4517                 0.7175                 1.4791
 IR Inten    --     35.4194                 0.0371                 0.7064

                     28                     29                     30
                      A                      A                      A
 Frequencies --    974.2086               982.4265               984.8162
 Red. masses --      1.3501                 1.2423                 4.2820
 Frc consts  --      0.7550                 0.7065                 2.4468
 IR Inten    --      5.9333                 0.7094                70.2381

                     31                     32                     33
                      A                      A                      A
 Frequencies --    994.1144              1021.6369              1028.9629
 Red. masses --      1.8059                 1.9523                 1.4089
 Frc consts  --      1.0515                 1.2006                 0.8789
 IR Inten    --     19.0009                67.2070                 0.2340

                     34                     35                     36
                      A                      A                      A
 Frequencies --   1050.8741              1083.9747              1097.5632
 Red. masses --      1.5161                 2.3927                 2.2098
 Frc consts  --      0.9865                 1.6564                 1.5684
 IR Inten    --      2.0238               414.1046                66.4598

                     37                     38                     39
                      A                      A                      A
 Frequencies --   1116.3492              1166.6551              1180.0436
 Red. masses --      1.8244                 2.2747                 1.7306
 Frc consts  --      1.3396                 1.8241                 1.4199
 IR Inten    --    149.9220                 0.4478               234.4816

                     40                     41                     42
                      A                      A                      A
 Frequencies --   1227.5451              1273.1570              1324.4860
 Red. masses --      3.6127                 2.3394                 7.5665
 Frc consts  --      3.2075                 2.2342                 7.8206
 IR Inten    --    248.3135                 3.2522               292.8094

                     43                     44                     45
                      A                      A                      A
 Frequencies --   1334.2511              1367.1039              1383.8815
 Red. masses --      2.9935                 2.9454                 1.8604
 Frc consts  --      3.1398                 3.2434                 2.0992
 IR Inten    --   1420.9971                73.7547               257.7800

                     46                     47                     48
                      A                      A                      A
 Frequencies --   1386.9149              1429.9056              1430.1682
 Red. masses --      1.6867                 2.6168                 2.9780
 Frc consts  --      1.9115                 3.1524                 3.5888
 IR Inten    --    396.5877                10.7174                15.4340

                     49                     50                     51
                      A                      A                      A
 Frequencies --   1464.7398              1472.5501              1480.4626
 Red. masses --      1.2578                 1.1334                 1.0542
 Frc consts  --      1.5900                 1.4480                 1.3613
 IR Inten    --      0.4292                11.5428                 0.4913

                     52                     53                     54
                      A                      A                      A
 Frequencies --   1494.2802              1501.7807              1528.8242
 Red. masses --      1.0508                 2.8938                 4.1463
 Frc consts  --      1.3824                 3.8453                 5.7099
 IR Inten    --     17.1764                35.1292               200.4052

                     55                     56                     57
                      A                      A                      A
 Frequencies --   1579.7256              1603.0504              2976.1680
 Red. masses --      7.2270                 5.3894                 1.0453
 Frc consts  --     10.6260                 8.1600                 5.4551
 IR Inten    --      2.0844                 2.9057                12.5630

                     58                     59                     60
                      A                      A                      A
 Frequencies --   2978.8749              3004.8013              3007.1209
 Red. masses --      1.0456                 1.0951                 1.0959
 Frc consts  --      5.4669                 5.8253                 5.8388
 IR Inten    --    415.3786                31.6370               152.1717

                     61                     62                     63
                      A                      A                      A
 Frequencies --   3105.3902              3107.8069              3134.3330
 Red. masses --      1.0924                 1.0920                 1.0846
 Frc consts  --      6.2070                 6.2140                 6.2778
 IR Inten    --     20.9501                24.4145                20.5808

                     64                     65                     66
                      A                      A                      A
 Frequencies --   3150.8057              3172.6719              3176.5252
 Red. masses --      1.0900                 1.0901                 1.0922
 Frc consts  --      6.3754                 6.4653                 6.4930
 IR Inten    --     46.8608                45.4632                60.8606

 - Thermochemistry -
 -------------------
 Temperature   298.150 Kelvin.  Pressure   1.00000 Atm.
 Atom     1 has atomic number  6 and mass  12.00000

 Molecular mass:   186.06808 amu.
 Principal axes and moments of inertia in atomic units:
                           1         2         3
     Eigenvalues --  1694.159662731.795454403.76129
           X            0.98377   0.16735   0.06470
           Y           -0.17322   0.97984   0.09953
           Z           -0.04674  -0.10912   0.99293
 This molecule is an asymmetric top.
 Rotational symmetry number  1.
 Warning -- assumption of classical behavior for rotation
           may cause significant error
 Rotational temperatures (Kelvin)      0.05113     0.03171     0.01967
 Rotational constants (GHZ):           1.06527     0.66064     0.40982
 Zero-point vibrational energy     480052.4 (Joules/Mol)
                                  114.73527 (Kcal/Mol)
 Warning -- explicit consideration of  18 degrees of freedom as
           vibrations may cause significant error
 Vibrational temperatures:     38.15   122.95   167.04   199.03   222.78
          (Kelvin)            262.05   367.76   419.91   466.82   482.98
                              532.36   575.96   619.59   624.50   654.86
                              749.20   759.19   863.84   954.27   966.68
                              967.59   990.18  1110.73  1138.35  1187.45
                             1238.70  1272.33  1401.67  1413.49  1416.93
                             1430.31  1469.91  1480.45  1511.97  1559.60
                             1579.15  1606.18  1678.56  1697.82  1766.16
                             1831.79  1905.64  1919.69  1966.96  1991.10
                             1995.46  2057.32  2057.69  2107.43  2118.67
                             2130.06  2149.94  2160.73  2199.64  2272.87
                             2306.43  4282.04  4285.94  4323.24  4326.58
                             4467.96  4471.44  4509.61  4533.31  4564.77
                             4570.31

 Zero-point correction=                           0.182842 (Hartree/Particle)
 Thermal correction to Energy=                    0.194974
 Thermal correction to Enthalpy=                  0.195918
 Thermal correction to Gibbs Free Energy=         0.144095
 Sum of electronic and zero-point Energies=           -613.974157
 Sum of electronic and thermal Energies=              -613.962025
 Sum of electronic and thermal Enthalpies=            -613.961081
 Sum of electronic and thermal Free Energies=         -614.012905

                     E (Thermal)             CV                S
                      KCal/Mol        Cal/Mol-Kelvin    Cal/Mol-Kelvin
 Total                  122.348             46.958            109.072
 Electronic               0.000              0.000              0.000
 Translational            0.889              2.981             41.569
 Rotational               0.889              2.981             31.389
 Vibrational            120.571             40.996             36.114
 Vibration     1          0.593              1.984              6.074
 Vibration     2          0.601              1.959              3.762
 Vibration     3          0.608              1.936              3.164
 Vibration     4          0.614              1.915              2.827
 Vibration     5          0.620              1.897              2.612
 Vibration     6          0.630              1.864              2.306
 Vibration     7          0.666              1.753              1.692
 Vibration     8          0.687              1.689              1.463
 Vibration     9          0.709              1.627              1.288
 Vibration    10          0.717              1.604              1.233
 Vibration    11          0.742              1.534              1.080
 Vibration    12          0.766              1.469              0.961
 Vibration    13          0.792              1.404              0.857
 Vibration    14          0.795              1.396              0.846
 Vibration    15          0.813              1.349              0.780
 Vibration    16          0.876              1.204              0.608
 Vibration    17          0.883              1.189              0.592
 Vibration    18          0.959              1.031              0.449

                           ! Non-Optimized Parameters !
 Normal termination of Gaussian 16 at Sun Feb 11 03:06:07 2024.
