 Q-Chem 5.4, Q-Chem, Inc., Pleasanton, CA (2021)
 Q-Chem 5.4.0 for Intel X86 EM64T Linux

User input:
--------------------------------------------------------------
$molecule
0 1
C                 -1.3105170000      1.9523290000      0.5582370000
C                 -2.6547000000      1.3410390000      0.2595630000
C                 -2.7133750000      0.0992180000     -0.2521470000
C                 -1.5094180000     -0.6932270000     -0.5722760000
C                 -0.1841340000     -0.0801650000     -0.3085850000
C                 -0.0885030000      1.1502800000      0.2125340000
O                 -1.2231100000      3.0491280000      1.0715190000
O                 -1.5906020000     -1.8168050000     -1.0435820000
H                  0.6774970000     -0.6858860000     -0.5610370000
I                  1.7651060000      2.0509610000      0.6067340000
C                 -3.8607080000      2.2060010000      0.5605820000
C                 -4.0367370000      3.2730490000     -0.5433330000
C                 -5.1537730000      1.4078200000      0.7629000000
H                 -3.6544650000     -0.3938810000     -0.4655230000
H                 -3.6318280000      2.7402310000      1.4879740000
H                 -4.2588410000      2.8010160000     -1.5050140000
H                 -3.1415920000      3.8867510000     -0.6544100000
H                 -4.8687000000      3.9354010000     -0.2902450000
H                 -5.4821300000      0.9196270000     -0.1595670000
H                 -5.9557360000      2.0813530000      1.0746470000
H                 -5.0406150000      0.6409600000      1.5335880000
$end

$rem
BASIS  =  6-311++G(d,p)
GUI  =  2
JOB_TYPE  =  SP
METHOD  =  B3LYP
SCF_CONVERGENCE  = 8
SOLVENT_METHOD = sm12
$end

$smx
solvent dimethylformamide
charges CM5
$end

--------------------------------------------------------------

             Standard Nuclear Orientation (Angstroms)
    I     Atom           X                Y                Z
 ----------------------------------------------------------------
    1      C      -1.3105170000     1.9523290000     0.5582370000
    2      C      -2.6547000000     1.3410390000     0.2595630000
    3      C      -2.7133750000     0.0992180000    -0.2521470000
    4      C      -1.5094180000    -0.6932270000    -0.5722760000
    5      C      -0.1841340000    -0.0801650000    -0.3085850000
    6      C      -0.0885030000     1.1502800000     0.2125340000
    7      O      -1.2231100000     3.0491280000     1.0715190000
    8      O      -1.5906020000    -1.8168050000    -1.0435820000
    9      H       0.6774970000    -0.6858860000    -0.5610370000
   10      I       1.7651060000     2.0509610000     0.6067340000
   11      C      -3.8607080000     2.2060010000     0.5605820000
   12      C      -4.0367370000     3.2730490000    -0.5433330000
   13      C      -5.1537730000     1.4078200000     0.7629000000
   14      H      -3.6544650000    -0.3938810000    -0.4655230000
   15      H      -3.6318280000     2.7402310000     1.4879740000
   16      H      -4.2588410000     2.8010160000    -1.5050140000
   17      H      -3.1415920000     3.8867510000    -0.6544100000
   18      H      -4.8687000000     3.9354010000    -0.2902450000
   19      H      -5.4821300000     0.9196270000    -0.1595670000
   20      H      -5.9557360000     2.0813530000     1.0746470000
   21      H      -5.0406150000     0.6409600000     1.5335880000
 ----------------------------------------------------------------

   16   -7418.4526038844      3.16e-09  Convergence criterion met
 Total energy in the final basis set =    -7418.4674656038

                    Orbital Energies (a.u.)
 --------------------------------------------------------------

 Alpha MOs
 -- Occupied --
********-176.3109-165.7146-165.7126-165.7124 -35.8074 -31.3005 -31.2948
-31.2942 -22.9510 -22.9498 -22.9494 -22.9454 -22.9454 -19.1521 -19.1432
-10.3006 -10.2898 -10.2579 -10.2253 -10.2208 -10.2091 -10.1952 -10.1670
-10.1648  -6.3567  -4.7691  -4.7549  -4.7537  -2.0351  -2.0307  -2.0297
 -2.0175  -2.0173  -1.0865  -1.0730  -0.8785  -0.8339  -0.7771  -0.7202
 -0.6952  -0.6775  -0.6442  -0.5972  -0.5766  -0.5371  -0.5138  -0.4822
 -0.4675  -0.4612  -0.4530  -0.4421  -0.4341  -0.4287  -0.4103  -0.3932
 -0.3892  -0.3662  -0.3561  -0.3478  -0.3393  -0.3027  -0.2986  -0.2869
 -0.2722  -0.2661

          Ground-State Mulliken Net Atomic Charges

     Atom                 Charge (a.u.)
  ----------------------------------------
      1 C                    -2.507353
      2 C                     1.608848
      3 C                     0.010160
      4 C                    -0.904303
      5 C                     0.355831
      6 C                     0.805128
      7 O                    -0.180548
      8 O                    -0.314781
      9 H                     0.301584
     10 I                     0.071401
     11 C                     0.235087
     12 C                    -0.686958
     13 C                    -0.238438
     14 H                     0.291886
     15 H                     0.176143
     16 H                     0.151433
     17 H                     0.128824
     18 H                     0.181373
     19 H                     0.159053
     20 H                     0.203760
     21 H                     0.151870
  ----------------------------------------
  Sum of atomic charges =     0.000000

                    Cartesian Multipole Moments
 -----------------------------------------------------------------
    Charge (ESU x 10^10)
                 0.0000
    Dipole Moment (Debye)
         X      -1.8009      Y       0.9311      Z       0.2070
       Tot       2.0379
    Quadrupole Moments (Debye-Ang)
        XX     -77.9835     XY      -6.5469     YY    -105.1268
        XZ      -1.7759     YZ      -5.8442     ZZ     -96.0745

 Total job time:  325.56s(wall), 2268.03s(cpu)
        *  Thank you very much for using Q-Chem.  Have a nice day.  *
