 Gaussian 16, Revision A.03,
 Gaussian 16:  ES64L-G16RevA.03 25-Dec-2016

 ----------------------------------------------------------------
 #P UB3LYP/6-311++G(d,p) SCRF=(PCM,Solvent=n,n-DiMethylFormamide)
 ----------------------------------------------------------------

 ------------------
 Radical PCM in DMF
 ------------------
 Symbolic Z-matrix:
 Charge = -1 Multiplicity = 2

                         Standard orientation:
 ---------------------------------------------------------------------
 Center     Atomic      Atomic             Coordinates (Angstroms)
 Number     Number       Type             X           Y           Z
 ---------------------------------------------------------------------
      1          6           0       -2.666791    1.278083   -0.764091
      2          6           0       -2.182669    2.624588   -0.999072
      3          6           0       -0.950887    3.037618   -0.602154
      4          6           0       -0.013860    2.168107    0.087521
      5          6           0       -0.501542    0.817880    0.342833
      6          6           0       -1.755961    0.386608   -0.052676
      7          8           0       -3.799747    0.895729   -1.150414
      8          8           0        1.132400    2.559316    0.410736
      9          1           0       -2.863215    3.290718   -1.520795
     10          1           0       -0.600596    4.047771   -0.791073
     11         16           0        0.630433   -0.288705    1.210357
     12          6           0       -2.344733   -0.969154    0.229247
     13          8           0       -3.014592   -1.239007    1.193146
     14          8           0       -2.115872   -1.827410   -0.788944
     15          6           0       -2.661087   -3.139285   -0.609504
     16          1           0       -2.399283   -3.691740   -1.511321
     17          1           0       -3.745622   -3.092280   -0.492257
     18          1           0       -2.221703   -3.612044    0.271217
     19          6           0        2.096768   -0.400734    0.145465
     20          6           0        3.183998    0.438698    0.369862
     21          6           0        2.114928   -1.364515   -0.860187
     22          6           0        4.315387    0.302399   -0.432454
     23          6           0        3.248408   -1.486024   -1.662102
     24          6           0        4.348169   -0.655008   -1.446694
     25          8           0        1.053563    0.286045    2.492855
     26          8           0        0.033604   -1.637985    1.198319
     27          1           0        3.120229    1.188113    1.145965
     28          1           0        1.254919   -2.007946   -0.998646
     29          1           0        5.169077    0.951342   -0.269379
     30          1           0        3.273567   -2.231802   -2.449392
     31          1           0        5.230101   -0.751920   -2.071593
 ---------------------------------------------------------------------

 SCF Done:  E(UB3LYP) =  -1389.42166460     A.U. after   20 cycles

 The electronic state is 2-A.
 Alpha  occ. eigenvalues --  -89.05754 -19.17417 -19.12452 -19.12403 -19.12139
 Alpha  occ. eigenvalues --  -19.09816 -19.09594 -10.31778 -10.24842 -10.24473
 Alpha  occ. eigenvalues --  -10.22158 -10.21756 -10.21417 -10.21208 -10.19607
 Alpha  occ. eigenvalues --  -10.19317 -10.19090 -10.18914 -10.18826 -10.18337
 Alpha  occ. eigenvalues --  -10.18249  -8.12124  -6.08409  -6.08296  -6.08219
 Alpha  occ. eigenvalues --   -1.12009  -1.11508  -1.03412  -1.02486  -1.02222
 Alpha  occ. eigenvalues --   -1.01229  -0.87879  -0.85546  -0.79268  -0.77968
 Alpha  occ. eigenvalues --   -0.76534  -0.74658  -0.71157  -0.68032  -0.63841
 Alpha  occ. eigenvalues --   -0.62470  -0.61841  -0.58231  -0.56988  -0.54387
 Alpha  occ. eigenvalues --   -0.52814  -0.50746  -0.50596  -0.49133  -0.48818
 Alpha  occ. eigenvalues --   -0.48387  -0.47401  -0.46550  -0.45715  -0.45338
 Alpha  occ. eigenvalues --   -0.44114  -0.43605  -0.43009  -0.42336  -0.41088
 Alpha  occ. eigenvalues --   -0.39906  -0.39585  -0.39199  -0.38492  -0.38225
 Alpha  occ. eigenvalues --   -0.36708  -0.36219  -0.34883  -0.33549  -0.32426
 Alpha  occ. eigenvalues --   -0.31226  -0.31049  -0.30758  -0.29798  -0.28588
 Alpha  occ. eigenvalues --   -0.27399  -0.27262  -0.26301  -0.25299  -0.18504
 Alpha virt. eigenvalues --   -0.05617  -0.03191  -0.02632  -0.00691  -0.00434
 Alpha virt. eigenvalues --    0.00170   0.00598   0.00813   0.01705   0.02255
 Alpha virt. eigenvalues --    0.02715   0.02948   0.03381   0.03661   0.04437

  Beta  occ. eigenvalues --  -89.05757 -19.17410 -19.12428 -19.12393 -19.12141
  Beta  occ. eigenvalues --  -19.09064 -19.08948 -10.31794 -10.24759 -10.24376
  Beta  occ. eigenvalues --  -10.22154 -10.21628 -10.21417 -10.20940 -10.19603
  Beta  occ. eigenvalues --  -10.19314 -10.19086 -10.18915 -10.18826 -10.18285
  Beta  occ. eigenvalues --  -10.18171  -8.12126  -6.08411  -6.08299  -6.08223
  Beta  occ. eigenvalues --   -1.11983  -1.11487  -1.03364  -1.01490  -1.01123
  Beta  occ. eigenvalues --   -1.00912  -0.87870  -0.84896  -0.79087  -0.77826
  Beta  occ. eigenvalues --   -0.76528  -0.74397  -0.70650  -0.67617  -0.63585
  Beta  occ. eigenvalues --   -0.62465  -0.61644  -0.58072  -0.56858  -0.54295
  Beta  occ. eigenvalues --   -0.52624  -0.50547  -0.50405  -0.49034  -0.48784
  Beta  occ. eigenvalues --   -0.48345  -0.47334  -0.46362  -0.45694  -0.45282
  Beta  occ. eigenvalues --   -0.44022  -0.43321  -0.42038  -0.41209  -0.40785
  Beta  occ. eigenvalues --   -0.39465  -0.39064  -0.38658  -0.38210  -0.36804
  Beta  occ. eigenvalues --   -0.36578  -0.36199  -0.34792  -0.33450  -0.32255
  Beta  occ. eigenvalues --   -0.31045  -0.30664  -0.30415  -0.28345  -0.27491
  Beta  occ. eigenvalues --   -0.26893  -0.26656  -0.25653  -0.24772
  Beta virt. eigenvalues --   -0.11286  -0.04963  -0.02676  -0.02121  -0.00666
  Beta virt. eigenvalues --   -0.00423   0.00502   0.00830   0.01452   0.02173
  Beta virt. eigenvalues --    0.02405   0.02783   0.03081   0.03430   0.03786

 Mulliken charges and spin densities:
               1          2
     1  C   -0.309405   0.070826
     2  C   -0.184952   0.044294
     3  C    0.156979   0.050887
     4  C   -0.274523   0.037863
     5  C   -0.114127   0.128279
     6  C    0.614098   0.182698
     7  O   -0.413659   0.274251
     8  O   -0.369232   0.237539
     9  H    0.207351  -0.004240
    10  H    0.215154  -0.005698
    11  S    0.339217  -0.033512
    12  C   -0.642265  -0.019028
    13  O   -0.194677   0.006433
    14  O    0.045814  -0.000185
    15  C   -0.229930   0.001715
    16  H    0.164515   0.000531
    17  H    0.175656  -0.000297
    18  H    0.181268  -0.000059
    19  C    0.477660  -0.004804
    20  C   -0.079368   0.024195
    21  C   -0.245923   0.002324
    22  C   -0.447400  -0.003112
    23  C   -0.470675   0.000749
    24  C   -0.334959   0.002501
    25  O   -0.163091   0.007744
    26  O   -0.179426  -0.002353
    27  H    0.266710  -0.000251
    28  H    0.185102   0.000782
    29  H    0.212402   0.000075
    30  H    0.220563   0.000066
    31  H    0.191121  -0.000214
 Sum of Mulliken charges =  -1.00000   1.00000

 Dipole moment (field-independent basis, Debye):
    X=              8.0152    Y=             -3.7912    Z=             -6.6735  Tot=             11.0974
 Quadrupole moment (field-independent basis, Debye-Ang):
   XX=           -157.7400   YY=           -132.9953   ZZ=           -147.9112
   XY=             -0.9905   XZ=            -10.7862   YZ=              6.8409

 Normal termination of Gaussian 16 at Wed Jan 24 22:57:52 2024.
