 Q-Chem 5.4, Q-Chem, Inc., Pleasanton, CA (2021)
 Q-Chem 5.4.0 for Intel X86 EM64T Linux

User input:
--------------------------------------------------------------
$molecule
-1 1
C                 -1.7098730000      1.8851080000     -5.1574730000
C                 -1.5978080000      0.5556200000     -5.5446890000
C                 -1.2445380000     -0.4219640000     -4.6082910000
C                 -1.4704870000      2.2581640000     -3.8296070000
C                 -1.1168700000      1.2770730000     -2.8928690000
C                 -1.0058520000     -0.0608170000     -3.2888990000
C                 -1.5985170000      3.7033170000     -3.4485580000
C                 -0.8595790000      1.6462730000     -1.4713340000
C                 -1.3350190000      4.0756520000     -2.0683210000
C                 -0.9865990000      3.0793920000     -1.1050490000
C                 -1.4436890000      5.4459710000     -1.6484870000
C                 -1.1682190000      5.7624080000     -0.2754530000
C                 -0.8548660000      4.7655180000      0.6182050000
C                 -0.7627580000      3.4250390000      0.2162560000
O                 -1.9234380000      4.5111630000     -4.3339230000
O                 -0.5597060000      0.7825640000     -0.6536260000
N                 -1.7956430000      6.4242990000     -2.4989120000
H                 -1.9814180000      2.6599810000     -5.8634280000
H                 -1.7848110000      0.2756360000     -6.5761230000
H                 -1.1573570000     -1.4597260000     -4.9121460000
H                 -0.7311560000     -0.7943070000     -2.5405760000
S                 -1.1031970000      7.5012780000      0.3153570000
H                 -0.6764710000      5.0488470000      1.6489730000
H                 -2.0119430000      6.1650420000     -3.4516280000
H                 -2.0089680000      7.3378750000     -2.0969440000
H                 -0.5089010000      2.6461950000      0.9234850000
O                 -2.2202610000      8.1727250000     -0.4171090000
O                 -1.3021550000      7.4075330000      1.7762560000
O                  0.2371080000      7.9664020000     -0.1063350000
$end

$rem
BASIS  =  6-311++G(d,p)
GUI  =  2
JOB_TYPE  =  SP
METHOD  =  B3LYP
SCF_CONVERGENCE  = 8
SOLVENT_METHOD = sm12
$end

$smx
solvent dimethylformamide
charges CM5
$end

--------------------------------------------------------------

             Standard Nuclear Orientation (Angstroms)
    I     Atom           X                Y                Z
 ----------------------------------------------------------------
    1      C      -1.7098730000     1.8851080000    -5.1574730000
    2      C      -1.5978080000     0.5556200000    -5.5446890000
    3      C      -1.2445380000    -0.4219640000    -4.6082910000
    4      C      -1.4704870000     2.2581640000    -3.8296070000
    5      C      -1.1168700000     1.2770730000    -2.8928690000
    6      C      -1.0058520000    -0.0608170000    -3.2888990000
    7      C      -1.5985170000     3.7033170000    -3.4485580000
    8      C      -0.8595790000     1.6462730000    -1.4713340000
    9      C      -1.3350190000     4.0756520000    -2.0683210000
   10      C      -0.9865990000     3.0793920000    -1.1050490000
   11      C      -1.4436890000     5.4459710000    -1.6484870000
   12      C      -1.1682190000     5.7624080000    -0.2754530000
   13      C      -0.8548660000     4.7655180000     0.6182050000
   14      C      -0.7627580000     3.4250390000     0.2162560000
   15      O      -1.9234380000     4.5111630000    -4.3339230000
   16      O      -0.5597060000     0.7825640000    -0.6536260000
   17      N      -1.7956430000     6.4242990000    -2.4989120000
   18      H      -1.9814180000     2.6599810000    -5.8634280000
   19      H      -1.7848110000     0.2756360000    -6.5761230000
   20      H      -1.1573570000    -1.4597260000    -4.9121460000
   21      H      -0.7311560000    -0.7943070000    -2.5405760000
   22      S      -1.1031970000     7.5012780000     0.3153570000
   23      H      -0.6764710000     5.0488470000     1.6489730000
   24      H      -2.0119430000     6.1650420000    -3.4516280000
   25      H      -2.0089680000     7.3378750000    -2.0969440000
   26      H      -0.5089010000     2.6461950000     0.9234850000
   27      O      -2.2202610000     8.1727250000    -0.4171090000
   28      O      -1.3021550000     7.4075330000     1.7762560000
   29      O       0.2371080000     7.9664020000    -0.1063350000
 ----------------------------------------------------------------

   16   -1367.7269280526      3.76e-09  Convergence criterion met
 Total energy in the final basis set =    -1367.8225228986

                    Orbital Energies (a.u.)
 --------------------------------------------------------------

 Alpha MOs
 -- Occupied --
-89.0430 -19.1254 -19.1231 -19.0871 -19.0868 -19.0841 -14.3299 -10.2782
-10.2764 -10.2549 -10.2091 -10.2085 -10.2065 -10.2046 -10.2042 -10.1999
-10.1969 -10.1961 -10.1953 -10.1940 -10.1905  -8.1017  -6.0644  -6.0642
 -6.0639  -1.1065  -1.0579  -1.0535  -0.9737  -0.9690  -0.9456  -0.8884
 -0.8690  -0.8131  -0.7754  -0.7728  -0.7586  -0.6919  -0.6714  -0.6512
 -0.6198  -0.5972  -0.5880  -0.5738  -0.5463  -0.5260  -0.5080  -0.4999
 -0.4948  -0.4735  -0.4701  -0.4561  -0.4528  -0.4508  -0.4488  -0.4467
 -0.4443  -0.4289  -0.4165  -0.4112  -0.4026  -0.3906  -0.3788  -0.3717
 -0.3648  -0.3386  -0.3287  -0.3268  -0.3073  -0.2960  -0.2893  -0.2836
 -0.2814  -0.2755  -0.2697  -0.2685  -0.2505  -0.2274

          Ground-State Mulliken Net Atomic Charges

     Atom                 Charge (a.u.)
  ----------------------------------------
      1 C                     0.647150
      2 C                     1.246533
      3 C                     1.242451
      4 C                     0.461959
      5 C                     0.486784
      6 C                     0.838257
      7 C                    -1.093612
      8 C                    -0.592999
      9 C                    -0.681348
     10 C                     0.107210
     11 C                    -0.885256
     12 C                    -3.122501
     13 C                    -0.177568
     14 C                     0.160888
     15 O                    -0.224483
     16 O                    -0.195624
     17 N                    -0.469170
     18 H                     0.206680
     19 H                     0.374798
     20 H                     0.383098
     21 H                     0.216691
     22 S                    -0.080238
     23 H                     0.231097
     24 H                     0.397256
     25 H                     0.246668
     26 H                     0.274006
     27 O                    -0.377082
     28 O                    -0.279468
     29 O                    -0.342178
  ----------------------------------------
  Sum of atomic charges =    -1.000000

                    Cartesian Multipole Moments
 -----------------------------------------------------------------
    Charge (ESU x 10^10)
                -4.8032
    Dipole Moment (Debye)
         X       4.7044      Y     -35.2646      Z      -1.9717
       Tot      35.6316
    Quadrupole Moments (Debye-Ang)
        XX    -144.9234     XY      36.9474     YY    -399.2174
        XZ       3.4754     YZ      -1.6005     ZZ    -130.0480

 Total job time:  854.22s(wall), 6649.49s(cpu)
        *  Thank you very much for using Q-Chem.  Have a nice day.  *
