 Q-Chem 5.4, Q-Chem, Inc., Pleasanton, CA (2021)
 Q-Chem 5.4.0 for Intel X86 EM64T Linux

User input:
--------------------------------------------------------------
$molecule
-2 1
C                 -2.8744050000      3.9229520000      0.4811080000
C                 -4.1551110000      3.4191040000      0.5689570000
C                 -4.3254190000      2.0183300000      0.4668460000
C                 -1.7380560000      3.0966950000      0.3023980000
C                 -1.9410090000      1.6709520000      0.2000920000
C                 -3.2627020000      1.1711490000      0.2918990000
C                 -0.4222340000      3.7052470000      0.2332580000
C                  0.6705990000      2.7658030000      0.0524180000
C                  0.4676540000      1.3400580000     -0.0498820000
C                 -0.8481750000      0.7315050000      0.0192100000
C                  1.9922980000      3.2656040000     -0.0393600000
C                  3.0550140000      2.4184180000     -0.2142830000
C                  2.8847240000      1.0176340000     -0.3163710000
C                  1.6040040000      0.5138030000     -0.2285410000
O                 -0.2374090000      4.9640620000      0.3229980000
O                 -1.0329780000     -0.5273190000     -0.0703040000
H                 -3.4023460000      0.0978940000      0.2294070000
H                  1.4222770000     -0.5533700000     -0.2997610000
H                 -2.6926750000      4.9901220000      0.5523510000
H                  2.1319250000      4.3388610000      0.0231290000
H                  3.7403930000      0.3666390000     -0.4460230000
O                 -5.6030210000      1.4154250000      0.6589610000
O                  4.3326060000      3.0213830000     -0.4063320000
C                  5.4245280000      2.6338950000      0.2756050000
C                  6.6415760000      3.3960940000     -0.2117200000
O                  5.4682590000      1.7745060000      1.1269250000
H                 -5.0107710000      4.0701140000      0.6986490000
H                  6.3773990000      4.3943090000     -0.5608820000
H                  7.0975730000      2.8544180000     -1.0513240000
H                  7.3790310000      3.4512850000      0.5885060000
C                 -6.6948300000      1.8027760000     -0.0232890000
C                 -7.9119990000      1.0407860000      0.4640330000
O                 -6.7383260000      2.6617910000     -0.8749800000
H                 -7.6479190000      0.0427460000      0.8137730000
H                 -8.6491900000      0.9851610000     -0.3364100000
H                 -8.3683050000      1.5828590000      1.3032090000
$end
$rem
MAX_SCF_CYCLES=200
BASIS  =  6-311++G(d,p)
GUI  =  2
JOB_TYPE  =  SP
METHOD  =  B3LYP
SOLVENT_METHOD = PCM
$end
$pcm
theory = CPCM
$end
$solvent
dielectric 37.219
opticaldielectric 1.43
$end

--------------------------------------------------------------

             Standard Nuclear Orientation (Angstroms)
    I     Atom           X                Y                Z
 ----------------------------------------------------------------
    1      C      -2.8744050000     3.9229520000     0.4811080000
    2      C      -4.1551110000     3.4191040000     0.5689570000
    3      C      -4.3254190000     2.0183300000     0.4668460000
    4      C      -1.7380560000     3.0966950000     0.3023980000
    5      C      -1.9410090000     1.6709520000     0.2000920000
    6      C      -3.2627020000     1.1711490000     0.2918990000
    7      C      -0.4222340000     3.7052470000     0.2332580000
    8      C       0.6705990000     2.7658030000     0.0524180000
    9      C       0.4676540000     1.3400580000    -0.0498820000
   10      C      -0.8481750000     0.7315050000     0.0192100000
   11      C       1.9922980000     3.2656040000    -0.0393600000
   12      C       3.0550140000     2.4184180000    -0.2142830000
   13      C       2.8847240000     1.0176340000    -0.3163710000
   14      C       1.6040040000     0.5138030000    -0.2285410000
   15      O      -0.2374090000     4.9640620000     0.3229980000
   16      O      -1.0329780000    -0.5273190000    -0.0703040000
   17      H      -3.4023460000     0.0978940000     0.2294070000
   18      H       1.4222770000    -0.5533700000    -0.2997610000
   19      H      -2.6926750000     4.9901220000     0.5523510000
   20      H       2.1319250000     4.3388610000     0.0231290000
   21      H       3.7403930000     0.3666390000    -0.4460230000
   22      O      -5.6030210000     1.4154250000     0.6589610000
   23      O       4.3326060000     3.0213830000    -0.4063320000
   24      C       5.4245280000     2.6338950000     0.2756050000
   25      C       6.6415760000     3.3960940000    -0.2117200000
   26      O       5.4682590000     1.7745060000     1.1269250000
   27      H      -5.0107710000     4.0701140000     0.6986490000
   28      H       6.3773990000     4.3943090000    -0.5608820000
   29      H       7.0975730000     2.8544180000    -1.0513240000
   30      H       7.3790310000     3.4512850000     0.5885060000
   31      C      -6.6948300000     1.8027760000    -0.0232890000
   32      C      -7.9119990000     1.0407860000     0.4640330000
   33      O      -6.7383260000     2.6617910000    -0.8749800000
   34      H      -7.6479190000     0.0427460000     0.8137730000
   35      H      -8.6491900000     0.9851610000    -0.3364100000
   36      H      -8.3683050000     1.5828590000     1.3032090000
 ----------------------------------------------------------------

    9   -1145.1011531929      6.16e-06  Convergence criterion met
 Total energy in the final basis set =    -1145.1011531929

                    Orbital Energies (a.u.)
 --------------------------------------------------------------

 Alpha MOs
 -- Occupied --
-19.1763 -19.1763 -19.1177 -19.1177 -19.0275 -19.0275 -10.3106 -10.3106
-10.2191 -10.2190 -10.1810 -10.1810 -10.1721 -10.1721 -10.1587 -10.1587
-10.1560 -10.1560 -10.1553 -10.1553 -10.1445 -10.1445 -10.1423 -10.1423
 -1.1126  -1.1126  -1.0315  -1.0315  -0.9521  -0.9489  -0.8416  -0.8369
 -0.7754  -0.7615  -0.7459  -0.7342  -0.7293  -0.7114  -0.6553  -0.6439
 -0.6200  -0.5996  -0.5769  -0.5578  -0.5267  -0.5156  -0.5009  -0.4947
 -0.4874  -0.4861  -0.4784  -0.4729  -0.4543  -0.4496  -0.4421  -0.4217
 -0.4166  -0.4112  -0.4100  -0.4091  -0.3998  -0.3929  -0.3921  -0.3892
 -0.3802  -0.3738  -0.3724  -0.3661  -0.3487  -0.3469  -0.3391  -0.3353
 -0.3254  -0.3232  -0.3095  -0.3008  -0.2886  -0.2879  -0.2428  -0.2341
 -0.2307  -0.2201  -0.2115  -0.2035  -0.1102

          Ground-State Mulliken Net Atomic Charges

     Atom                 Charge (a.u.)
  ----------------------------------------
      1 C                    -0.017276
      2 C                    -0.027201
      3 C                    -0.708239
      4 C                     0.337151
      5 C                     0.457034
      6 C                    -0.171570
      7 C                    -0.545312
      8 C                     0.456879
      9 C                     0.336689
     10 C                    -0.545516
     11 C                    -0.171837
     12 C                    -0.707549
     13 C                    -0.027372
     14 C                    -0.017193
     15 O                    -0.657089
     16 O                    -0.657067
     17 H                     0.175655
     18 H                     0.158205
     19 H                     0.158217
     20 H                     0.175656
     21 H                     0.219955
     22 O                    -0.045734
     23 O                    -0.045766
     24 C                     0.151540
     25 C                    -0.544451
     26 O                    -0.347931
     27 H                     0.219959
     28 H                     0.178935
     29 H                     0.204399
     30 H                     0.182014
     31 C                     0.151535
     32 C                    -0.544406
     33 O                    -0.347881
     34 H                     0.178953
     35 H                     0.182017
     36 H                     0.204390
  ----------------------------------------
  Sum of atomic charges =    -2.000208

                    Cartesian Multipole Moments
 -----------------------------------------------------------------
    Charge (ESU x 10^10)
                -9.6074
    Dipole Moment (Debye)
         X       6.1014      Y     -21.3121      Z      -1.2130
       Tot      22.2015
    Quadrupole Moments (Debye-Ang)
        XX    -175.2658     XY      29.0030     YY    -241.6673
        XZ     -25.3562     YZ      -1.3276     ZZ    -154.5540

 Total job time:  222.99s(wall), 600.97s(cpu)
        *  Thank you very much for using Q-Chem.  Have a nice day.  *
