 Q-Chem 5.4, Q-Chem, Inc., Pleasanton, CA (2021)
 Q-Chem 5.4.0 for Intel X86 EM64T Linux

User input:
--------------------------------------------------------------
$molecule
0 1
C                 -0.6428320000      2.6817750000     -0.9633760000
C                 -1.7182140000      2.0635210000     -0.3700780000
C                 -1.5904180000      0.7568140000      0.1558030000
C                  0.6085660000      2.0196980000     -1.0567760000
C                  0.7382780000      0.6958960000     -0.5240370000
C                 -0.3903410000      0.0879930000      0.0809030000
C                  1.7361680000      2.6250320000     -1.6602980000
C                  2.9412990000      1.9588170000     -1.7378150000
C                  3.0732990000      0.6391470000     -1.2075990000
C                  1.9897780000      0.0345870000     -0.6177660000
C                  4.1001790000      2.6088460000     -2.3699520000
C                  5.3848510000      1.8410090000     -2.4277680000
C                  5.5066930000      0.5938990000     -1.9259440000
C                  4.3809230000     -0.0921870000     -1.2881370000
O                  4.0930220000      3.7346990000     -2.8543740000
O                  4.5025660000     -1.2228880000     -0.8365890000
O                  6.3906560000      2.4962660000     -3.0156740000
H                 -0.7373930000      3.6837560000     -1.3676360000
H                 -2.6706900000      2.5764120000     -0.3028180000
H                 -2.4470020000      0.2822100000      0.6206230000
H                 -0.2924800000     -0.9139300000      0.4841540000
H                  1.6607450000      3.6260930000     -2.0699840000
H                  2.1070620000     -0.9673690000     -0.2203560000
H                  6.4463330000      0.0574520000     -1.9790970000
H                  6.0312530000      3.3647230000     -3.2816700000
$end
$rem
MAX_SCF_CYCLES=200
BASIS  =  6-311++G(d,p)
GUI  =  2
JOB_TYPE  =  SP
METHOD  =  B3LYP
SOLVENT_METHOD = COSMO
$end
$solvent
dielectric 37.219
opticaldielectric 1.43
$end

--------------------------------------------------------------

             Standard Nuclear Orientation (Angstroms)
    I     Atom           X                Y                Z
 ----------------------------------------------------------------
    1      C       3.0081343014    -1.5610614072    -0.0000527640
    2      C       4.2464292500    -0.9633051148     0.0000280466
    3      C       4.3592565520     0.4465302747     0.0000717632
    4      C       1.8274072926    -0.7743275266    -0.0000592889
    5      C       1.9414722394     0.6539851002     0.0000311444
    6      C       3.2333443507     1.2373766951     0.0000868497
    7      C       0.5370798696    -1.3550249219    -0.0001153062
    8      C      -0.5945825155    -0.5666517349    -0.0000635621
    9      C      -0.4836963109     0.8573518334    -0.0000119813
   10      C       0.7605046680     1.4399129364     0.0000544706
   11      C      -1.9259009248    -1.1933326939     0.0000399208
   12      C      -3.1214248845    -0.2911015943     0.0000141703
   13      C      -3.0136469718     1.0543871907    -0.0000417068
   14      C      -1.7100359684     1.7218212421    -0.0000295562
   15      O      -2.1305427182    -2.4017955990    -0.0000932318
   16      O      -1.6239892490     2.9423839488    -0.0001208911
   17      O      -4.2940205552    -0.9327075975     0.0001830493
   18      H       2.9180454736    -2.6419026803    -0.0000635801
   19      H       5.1434405538    -1.5717147918     0.0000717494
   20      H       5.3422280219     0.9034874142     0.0000931033
   21      H       3.3199849598     2.3183629330     0.0001124312
   22      H       0.4271936402    -2.4337182931    -0.0001441761
   23      H       0.8269004994     2.5221317965     0.0001103376
   24      H      -3.8928195923     1.6873006589    -0.0000525948
   25      H      -4.0825990648    -1.8863547293     0.0004081171
 ----------------------------------------------------------------

    9    -764.1980029893      6.37e-06  Convergence criterion met
 Total energy in the final basis set =     -764.1980029893
    5    -764.2154627469      2.91e-06  Convergence criterion met
 Total energy in the final basis set =     -764.2154627469

                    Orbital Energies (a.u.)
 --------------------------------------------------------------

 Alpha MOs
 -- Occupied --
-19.1839 -19.1502 -19.1273 -10.2956 -10.2819 -10.2759 -10.2107 -10.2086
-10.2079 -10.2070 -10.2070 -10.2012 -10.1973 -10.1929 -10.1924 -10.1917
-10.1910  -1.1132  -1.0702  -1.0615  -0.9043  -0.8629  -0.8235  -0.8015
 -0.7687  -0.7525  -0.6988  -0.6737  -0.6438  -0.6223  -0.6100  -0.5702
 -0.5638  -0.5335  -0.5251  -0.4962  -0.4856  -0.4723  -0.4659  -0.4611
 -0.4553  -0.4499  -0.4376  -0.4292  -0.4277  -0.4156  -0.4055  -0.3993
 -0.3926  -0.3694  -0.3532  -0.3472  -0.3112  -0.3052  -0.2840  -0.2817
 -0.2651  -0.2445

          Ground-State Mulliken Net Atomic Charges

     Atom                 Charge (a.u.)
  ----------------------------------------
      1 C                    -0.162555
      2 C                    -0.348160
      3 C                    -0.346170
      4 C                     0.213577
      5 C                     0.204507
      6 C                    -0.153037
      7 C                     0.204184
      8 C                     0.376352
      9 C                     0.300474
     10 C                     0.190279
     11 C                    -0.739894
     12 C                    -0.421163
     13 C                     0.461058
     14 C                    -0.640991
     15 O                    -0.324354
     16 O                    -0.345781
     17 O                    -0.242739
     18 H                     0.199274
     19 H                     0.222005
     20 H                     0.221958
     21 H                     0.199736
     22 H                     0.178250
     23 H                     0.166303
     24 H                     0.260522
     25 H                     0.326363
  ----------------------------------------
  Sum of atomic charges =     0.000000

                    Cartesian Multipole Moments
 -----------------------------------------------------------------
    Charge (ESU x 10^10)
                -0.0000
    Dipole Moment (Debye)
         X       5.2701      Y      -2.9191      Z       0.0006
       Tot       6.0246
    Quadrupole Moments (Debye-Ang)
        XX     -81.9763     XY       4.1933     YY    -106.5866
        XZ      -0.0012     YZ       0.0004     ZZ     -99.9085

 Total job time:  47.37s(wall), 348.31s(cpu)
        *  Thank you very much for using Q-Chem.  Have a nice day.  *
