 Gaussian 16, Revision A.03,
 Gaussian 16:  ES64L-G16RevA.03 25-Dec-2016

 ----------------------------------------------------------------------
 #P UB3LYP/6-311++G(d,p) nosym opt freq SCRF=(PCM,Solvent=n,n-DiMethylF
 ormamide)
 ----------------------------------------------------------------------

 -------
 Radical
 -------
 Symbolic Z-matrix:
 Charge = -1 Multiplicity = 2

 SCF Done:  E(UB3LYP) =  -806.056849454     A.U. after   19 cycles
 SCF Done:  E(UB3LYP) =  -806.057310548     A.U. after   17 cycles
 SCF Done:  E(UB3LYP) =  -806.057464287     A.U. after   15 cycles
 SCF Done:  E(UB3LYP) =  -806.057505985     A.U. after   15 cycles
 SCF Done:  E(UB3LYP) =  -806.057508754     A.U. after   12 cycles
 SCF Done:  E(UB3LYP) =  -806.057513305     A.U. after   11 cycles
 SCF Done:  E(UB3LYP) =  -806.057514359     A.U. after   12 cycles
 SCF Done:  E(UB3LYP) =  -806.057514890     A.U. after   12 cycles
 SCF Done:  E(UB3LYP) =  -806.057514987     A.U. after   10 cycles
 SCF Done:  E(UB3LYP) =  -806.057515004     A.U. after    9 cycles
 Optimization completed.
    -- Stationary point found.
 Normal termination of Gaussian 16 at Sun Feb 11 02:52:36 2024.

 ----------------------------------------------------------------------
 #P Geom=AllCheck Guess=TCheck SCRF=Check GenChk UB3LYP/6-311++G(d,p) F
 req
 ----------------------------------------------------------------------

 Structure from the checkpoint file:  "290-rad.chk"
 -------
 Radical
 -------
 Charge = -1 Multiplicity = 2

                          Input orientation:
 ---------------------------------------------------------------------
 Center     Atomic      Atomic             Coordinates (Angstroms)
 Number     Number       Type             X           Y           Z
 ---------------------------------------------------------------------
      1          8           0       -0.392791    2.205589    0.224572
      2          6           0       -0.558437    0.956294    0.088078
      3          6           0        0.548031    0.053734   -0.116144
      4          6           0        0.331788   -1.311071   -0.261955
      5          8           0        1.372049   -2.183622   -0.453676
      6          6           0       -0.974591   -1.929454   -0.250076
      7          8           0       -1.127434   -3.178516   -0.405041
      8          6           0       -2.106050   -1.024586   -0.049242
      9          6           0       -3.420447   -1.537924   -0.016058
     10          6           0       -4.507743   -0.705109    0.179571
     11          6           0       -4.312031    0.678632    0.349433
     12          6           0       -3.030077    1.201035    0.319024
     13          6           0       -1.908595    0.371580    0.121916
     14          6           0        1.945116    0.643020   -0.208582
     15          1           0       -3.556661   -2.604684   -0.147456
     16          1           0       -5.510888   -1.117472    0.202703
     17          1           0       -5.163640    1.332630    0.502952
     18          1           0       -2.861679    2.263623    0.446781
     19          6           0        2.942101    0.037623    0.753858
     20          6           0        4.191242   -0.392572    0.505849
     21          6           0        4.867324   -0.353967   -0.842151
     22          6           0        5.049138   -0.945514    1.618149
     23          1           0        2.201716   -1.745048   -0.203664
     24          1           0        1.842009    1.710685    0.005513
     25          1           0        2.307919    0.569958   -1.239623
     26          1           0        2.586008   -0.033918    1.781032
     27          1           0        4.217786   -0.006919   -1.645177
     28          1           0        5.244309   -1.347137   -1.110660
     29          1           0        5.739133    0.309458   -0.805337
     30          1           0        4.521734   -0.953063    2.573962
     31          1           0        5.962790   -0.350870    1.733944
     32          1           0        5.369861   -1.968870    1.391881
 ---------------------------------------------------------------------

 SCF Done:  E(UB3LYP) =  -806.057515004     A.U. after    2 cycles

 Alpha  occ. eigenvalues --  -19.14460 -19.07420 -19.07142 -10.22383 -10.22137
 Alpha  occ. eigenvalues --  -10.21832 -10.18460 -10.17205 -10.17128 -10.17097
 Alpha  occ. eigenvalues --  -10.17034 -10.16967 -10.16857 -10.16853 -10.16785
 Alpha  occ. eigenvalues --  -10.16618 -10.16427 -10.16267  -1.05698  -0.99415
 Alpha  occ. eigenvalues --   -0.99109  -0.85626  -0.82427  -0.80216  -0.75957
 Alpha  occ. eigenvalues --   -0.74831  -0.71986  -0.69493  -0.67719  -0.64415
 Alpha  occ. eigenvalues --   -0.61625  -0.59804  -0.55714  -0.54580  -0.52165
 Alpha  occ. eigenvalues --   -0.51185  -0.48172  -0.46422  -0.46121  -0.43796
 Alpha  occ. eigenvalues --   -0.43679  -0.43141  -0.42387  -0.42202  -0.41728
 Alpha  occ. eigenvalues --   -0.40823  -0.39620  -0.38678  -0.38606  -0.38426
 Alpha  occ. eigenvalues --   -0.37370  -0.36922  -0.36575  -0.35877  -0.34551
 Alpha  occ. eigenvalues --   -0.34041  -0.33532  -0.33434  -0.26435  -0.25519
 Alpha  occ. eigenvalues --   -0.25205  -0.24432  -0.23368  -0.22849  -0.14865
 Alpha virt. eigenvalues --   -0.03174  -0.01083  -0.00619   0.00098   0.00568
 Alpha virt. eigenvalues --    0.01369   0.01604   0.01734   0.02826   0.03477
 Alpha virt. eigenvalues --    0.03749   0.03998   0.04478   0.04980   0.05167

  Beta  occ. eigenvalues --  -19.14396 -19.06745 -19.06597 -10.22228 -10.21984
  Beta  occ. eigenvalues --  -10.21614 -10.18460 -10.17169 -10.17110 -10.17016
  Beta  occ. eigenvalues --  -10.16976 -10.16973 -10.16867 -10.16826 -10.16781
  Beta  occ. eigenvalues --  -10.16554 -10.16427 -10.16267  -1.05504  -0.98453
  Beta  occ. eigenvalues --   -0.97933  -0.85408  -0.82378  -0.79865  -0.75777
  Beta  occ. eigenvalues --   -0.74638  -0.71788  -0.69492  -0.67047  -0.64182
  Beta  occ. eigenvalues --   -0.61404  -0.59680  -0.55429  -0.54372  -0.52119
  Beta  occ. eigenvalues --   -0.51000  -0.48047  -0.46157  -0.46002  -0.43697
  Beta  occ. eigenvalues --   -0.43611  -0.42791  -0.42211  -0.41667  -0.41335
  Beta  occ. eigenvalues --   -0.40201  -0.39336  -0.38675  -0.38275  -0.37735
  Beta  occ. eigenvalues --   -0.37331  -0.36758  -0.35910  -0.34818  -0.34365
  Beta  occ. eigenvalues --   -0.33459  -0.33226  -0.32386  -0.25093  -0.24822
  Beta  occ. eigenvalues --   -0.24407  -0.23849  -0.22832  -0.21951
  Beta virt. eigenvalues --   -0.08274  -0.02453  -0.00784   0.00107   0.00126
  Beta virt. eigenvalues --    0.00668   0.01381   0.01615   0.01759   0.02843
  Beta virt. eigenvalues --    0.03498   0.03773   0.04011   0.04513   0.05012

 Mulliken charges and spin densities:
               1          2
     1  O   -0.479572   0.199156
     2  C   -1.045807   0.082206
     3  C    1.415739   0.054148
     4  C   -0.434938   0.117906
     5  O   -0.331329   0.017024
     6  C   -0.500583   0.124145
     7  O   -0.506052   0.251554
     8  C    0.525549  -0.002919
     9  C   -0.046187   0.058220
    10  C   -0.406483   0.011672
    11  C   -0.469196   0.050598
    12  C    0.068373   0.007732
    13  C   -0.202460   0.028715
    14  C   -0.020855   0.007820
    15  H    0.159800  -0.003655
    16  H    0.181128  -0.001260
    17  H    0.178290  -0.003664
    18  H    0.166128  -0.000982
    19  C   -0.531661  -0.008808
    20  C    0.569374   0.009282
    21  C   -0.568105   0.001046
    22  C   -0.596483  -0.000658
    23  H    0.388317  -0.000372
    24  H    0.212885  -0.001729
    25  H    0.162354   0.003099
    26  H    0.183090  -0.000596
    27  H    0.155844  -0.000066
    28  H    0.153314   0.000021
    29  H    0.156673   0.000001
    30  H    0.160545   0.000335
    31  H    0.148525  -0.000165
    32  H    0.153782   0.000193
 Sum of Mulliken charges =  -1.00000   1.00000

 Dipole moment (field-independent basis, Debye):
    X=              6.0304    Y=              4.1872    Z=              0.8253  Tot=              7.3878
 Quadrupole moment (field-independent basis, Debye-Ang):
   XX=            -99.5304   YY=           -154.3434   ZZ=           -111.9531
   XY=             -6.9429   XZ=             -1.1190   YZ=             -6.1974

  Exact polarizability: 404.045 -10.333 339.248 -12.871  21.639 172.159
 Approx polarizability: 406.283 -12.287 406.213 -17.450  29.295 191.719

                      1                      2                      3
                      A                      A                      A
 Frequencies --     31.4755                46.2845                56.1873
 Red. masses --      4.2401                 3.1656                 3.7957
 Frc consts  --      0.0025                 0.0040                 0.0071
 IR Inten    --      3.4322                 1.1351                 2.8536

                      4                      5                      6
                      A                      A                      A
 Frequencies --     77.5897               120.2851               134.8637
 Red. masses --      7.6857                 3.2600                 1.1873
 Frc consts  --      0.0273                 0.0278                 0.0127
 IR Inten    --     14.3320                 1.0799                 0.1579

                      7                      8                      9
                      A                      A                      A
 Frequencies --    144.7846               179.3411               182.2754
 Red. masses --      3.6049                 3.7954                 1.8968
 Frc consts  --      0.0445                 0.0719                 0.0371
 IR Inten    --      0.3101                 2.6941                 3.6844

                     10                     11                     12
                      A                      A                      A
 Frequencies --    196.3024               259.0245               279.7158
 Red. masses --      2.4646                 3.6463                 3.1341
 Frc consts  --      0.0560                 0.1441                 0.1445
 IR Inten    --      4.5690                 4.3979                 8.0042

                     13                     14                     15
                      A                      A                      A
 Frequencies --    292.9901               310.6167               363.0987
 Red. masses --      2.5972                 4.7703                 6.5415
 Frc consts  --      0.1314                 0.2712                 0.5081
 IR Inten    --      1.7658                 2.4657                11.4808

                     16                     17                     18
                      A                      A                      A
 Frequencies --    378.5491               403.5861               417.2130
 Red. masses --      9.5580                 2.7705                 4.6950
 Frc consts  --      0.8070                 0.2659                 0.4815
 IR Inten    --     32.9228                 0.4217                 2.8191

                     19                     20                     21
                      A                      A                      A
 Frequencies --    427.9882               444.0519               452.6881
 Red. masses --      7.0560                 3.6110                 2.8657
 Frc consts  --      0.7615                 0.4195                 0.3460
 IR Inten    --      1.1597                 4.1469                10.5688

                     22                     23                     24
                      A                      A                      A
 Frequencies --    490.9936               507.1740               527.1623
 Red. masses --      4.7958                 2.5489                 1.3657
 Frc consts  --      0.6812                 0.3863                 0.2236
 IR Inten    --      6.4213                 7.9531               106.4815

                     25                     26                     27
                      A                      A                      A
 Frequencies --    536.7109               571.2940               641.3883
 Red. masses --      4.2269                 4.6305                 5.8879
 Frc consts  --      0.7174                 0.8904                 1.4271
 IR Inten    --     13.4656                11.6561                46.1925

                     28                     29                     30
                      A                      A                      A
 Frequencies --    672.9690               692.2268               711.5873
 Red. masses --      5.6306                 4.4261                 5.8976
 Frc consts  --      1.5024                 1.2496                 1.7595
 IR Inten    --      3.7921                20.1259                 3.6679

                     31                     32                     33
                      A                      A                      A
 Frequencies --    714.2523               778.6391               780.7824
 Red. masses --      3.1075                 4.6805                 2.4258
 Frc consts  --      0.9340                 1.6719                 0.8713
 IR Inten    --     61.7398                 5.0318                 7.4342

                     34                     35                     36
                      A                      A                      A
 Frequencies --    786.8296               857.6491               864.6915
 Red. masses --      1.8589                 2.8397                 1.8851
 Frc consts  --      0.6780                 1.2307                 0.8305
 IR Inten    --     41.3815                 1.1324                48.1398

                     37                     38                     39
                      A                      A                      A
 Frequencies --    884.5974               927.8072               959.5104
 Red. masses --      1.4130                 4.7703                 1.8760
 Frc consts  --      0.6515                 2.4194                 1.0176
 IR Inten    --      0.0661                77.3312                30.6179

                     40                     41                     42
                      A                      A                      A
 Frequencies --    960.7416               984.1354               998.5647
 Red. masses --      1.8104                 1.3662                 1.2797
 Frc consts  --      0.9846                 0.7796                 0.7518
 IR Inten    --     20.3593                 3.3033                 0.0027

                     43                     44                     45
                      A                      A                      A
 Frequencies --   1012.7046              1025.4499              1039.1054
 Red. masses --      1.2560                 2.8965                 2.0249
 Frc consts  --      0.7589                 1.7945                 1.2882
 IR Inten    --      9.3872                20.5878                18.7778

                     46                     47                     48
                      A                      A                      A
 Frequencies --   1063.4887              1098.8053              1108.3723
 Red. masses --      3.2520                 1.6761                 2.1560
 Frc consts  --      2.1670                 1.1923                 1.5605
 IR Inten    --     74.2180                 0.7008                17.9413

                     49                     50                     51
                      A                      A                      A
 Frequencies --   1119.4109              1150.1582              1162.4533
 Red. masses --      1.9526                 1.4459                 1.7800
 Frc consts  --      1.4416                 1.1269                 1.4172
 IR Inten    --     16.9563                 2.3910                20.5968

                     52                     53                     54
                      A                      A                      A
 Frequencies --   1197.5274              1199.5675              1229.2306
 Red. masses --      2.4893                 1.8986                 2.4113
 Frc consts  --      2.1033                 1.6097                 2.1466
 IR Inten    --    252.2194                 2.2402                20.0981

                     55                     56                     57
                      A                      A                      A
 Frequencies --   1250.0449              1270.8902              1306.8260
 Red. masses --      1.8636                 1.8711                 1.7376
 Frc consts  --      1.7157                 1.7806                 1.7484
 IR Inten    --    376.7298                70.4450                 6.5997

                     58                     59                     60
                      A                      A                      A
 Frequencies --   1328.8514              1355.2954              1378.0298
 Red. masses --      1.7867                 8.4548                 1.3362
 Frc consts  --      1.8589                 9.1500                 1.4950
 IR Inten    --     46.0694                35.5394                 9.0287

                     61                     62                     63
                      A                      A                      A
 Frequencies --   1404.8609              1412.2278              1429.3334
 Red. masses --      1.3555                 1.2473                 2.8732
 Frc consts  --      1.5762                 1.4657                 3.4585
 IR Inten    --     16.1162                 1.4372               126.8899

                     64                     65                     66
                      A                      A                      A
 Frequencies --   1454.4071              1463.3771              1465.6958
 Red. masses --      3.0620                 1.0470                 1.8417
 Frc consts  --      3.8161                 1.3211                 2.3311
 IR Inten    --    706.2232                 0.5974                55.1649

                     67                     68                     69
                      A                      A                      A
 Frequencies --   1468.8400              1479.7934              1481.0236
 Red. masses --      1.6729                 1.0644                 1.0424
 Frc consts  --      2.1265                 1.3733                 1.3472
 IR Inten    --    185.0204                21.0308                23.2095

                     70                     71                     72
                      A                      A                      A
 Frequencies --   1484.7329              1499.5218              1511.3874
 Red. masses --      1.0910                 5.4468                 5.6912
 Frc consts  --      1.4170                 7.2161                 7.6596
 IR Inten    --      6.2859               936.7519               136.8172

                     73                     74                     75
                      A                      A                      A
 Frequencies --   1548.3191              1612.6368              1625.6567
 Red. masses --      4.7227                 7.6993                 5.8801
 Frc consts  --      6.6706                11.7970                 9.1557
 IR Inten    --     14.9674                 7.5229                 7.2623

                     76                     77                     78
                      A                      A                      A
 Frequencies --   1703.8034              3006.4021              3013.8411
 Red. masses --      6.1950                 1.0380                 1.0415
 Frc consts  --     10.5957                 5.5277                 5.5739
 IR Inten    --     12.4899                46.8757                62.9875

                     79                     80                     81
                      A                      A                      A
 Frequencies --   3021.6710              3048.9662              3053.0936
 Red. masses --      1.0604                 1.0995                 1.0989
 Frc consts  --      5.7045                 6.0223                 6.0354
 IR Inten    --     75.8117                21.7282                44.7426

                     82                     83                     84
                      A                      A                      A
 Frequencies --   3059.8167              3098.0716              3110.7864
 Red. masses --      1.0980                 1.0996                 1.0876
 Frc consts  --      6.0567                 6.2184                 6.2011
 IR Inten    --      7.6281                29.8538                43.8394

                     85                     86                     87
                      A                      A                      A
 Frequencies --   3118.7442              3157.4779              3171.5553
 Red. masses --      1.0960                 1.0859                 1.0902
 Frc consts  --      6.2807                 6.3784                 6.4608
 IR Inten    --     40.7614                10.1596                22.2680

                     88                     89                     90
                      A                      A                      A
 Frequencies --   3186.2500              3190.9073              3650.9470
 Red. masses --      1.0923                 1.0941                 1.0665
 Frc consts  --      6.5335                 6.5637                 8.3755
 IR Inten    --     22.2935                36.5188               721.7213

 - Thermochemistry -
 -------------------
 Temperature   298.150 Kelvin.  Pressure   1.00000 Atm.
 Atom     1 has atomic number  8 and mass  15.99491

 Molecular mass:   242.09429 amu.
 Principal axes and moments of inertia in atomic units:
                           1         2         3
     Eigenvalues --  1941.317497776.157559191.28901
           X            0.99913   0.02580  -0.03278
           Y           -0.02986   0.99108  -0.12989
           Z            0.02914   0.13076   0.99099
 This molecule is an asymmetric top.
 Rotational symmetry number  1.
 Warning -- assumption of classical behavior for rotation
           may cause significant error
 Rotational temperatures (Kelvin)      0.04462     0.01114     0.00942
 Rotational constants (GHZ):           0.92965     0.23209     0.19635
 Zero-point vibrational energy     659614.8 (Joules/Mol)
                                  157.65171 (Kcal/Mol)
 Warning -- explicit consideration of  26 degrees of freedom as
           vibrations may cause significant error
 Vibrational temperatures:     45.29    66.59    80.84   111.63   173.06
          (Kelvin)            194.04   208.31   258.03   262.25   282.44
                              372.68   402.45   421.55   446.91   522.42
                              544.65   580.67   600.28   615.78   638.89
                              651.32   706.43   729.71   758.47   772.21
                              821.96   922.81   968.25   995.96  1023.82
                             1027.65  1120.29  1123.37  1132.07  1233.97
                             1244.10  1272.74  1334.91  1380.52  1382.29
                             1415.95  1436.71  1457.06  1475.39  1495.04
                             1530.12  1580.94  1594.70  1610.58  1654.82
                             1672.51  1722.97  1725.91  1768.59  1798.54
                             1828.53  1880.23  1911.92  1949.97  1982.68
                             2021.28  2031.88  2056.49  2092.57  2105.47
                             2108.81  2113.33  2129.09  2130.86  2136.20
                             2157.48  2174.55  2227.69  2320.22  2338.96
                             2451.39  4325.54  4336.25  4347.51  4386.78
                             4392.72  4402.39  4457.43  4475.73  4487.18
                             4542.91  4563.16  4584.30  4591.00  5252.90

 Zero-point correction=                           0.251234 (Hartree/Particle)
 Thermal correction to Energy=                    0.267701
 Thermal correction to Enthalpy=                  0.268645
 Thermal correction to Gibbs Free Energy=         0.206097
 Sum of electronic and zero-point Energies=           -805.806281
 Sum of electronic and thermal Energies=              -805.789814
 Sum of electronic and thermal Enthalpies=            -805.788870
 Sum of electronic and thermal Free Energies=         -805.851418

                     E (Thermal)             CV                S
                      KCal/Mol        Cal/Mol-Kelvin    Cal/Mol-Kelvin
 Total                  167.985             63.420            131.645
 Electronic               0.000              0.000              1.377
 Translational            0.889              2.981             42.354
 Rotational               0.889              2.981             33.295
 Vibrational            166.207             57.458             54.619
 Vibration     1          0.594              1.983              5.734
 Vibration     2          0.595              1.979              4.970
 Vibration     3          0.596              1.975              4.587
 Vibration     4          0.599              1.964              3.951
 Vibration     5          0.609              1.932              3.096
 Vibration     6          0.613              1.919              2.875
 Vibration     7          0.616              1.908              2.740
 Vibration     8          0.629              1.868              2.335
 Vibration     9          0.630              1.864              2.305
 Vibration    10          0.636              1.845              2.167
 Vibration    11          0.668              1.747              1.668
 Vibration    12          0.680              1.711              1.535
 Vibration    13          0.688              1.687              1.457
 Vibration    14          0.699              1.653              1.359
 Vibration    15          0.737              1.548              1.109
 Vibration    16          0.749              1.516              1.045
 Vibration    17          0.769              1.462              0.950
 Vibration    18          0.780              1.433              0.901
 Vibration    19          0.789              1.409              0.865
 Vibration    20          0.804              1.374              0.814
 Vibration    21          0.811              1.355              0.788
 Vibration    22          0.847              1.270              0.681
 Vibration    23          0.862              1.234              0.640
 Vibration    24          0.882              1.190              0.594
 Vibration    25          0.892              1.169              0.572
 Vibration    26          0.927              1.093              0.502

 Optimization completed.
    -- Stationary point found.
 Normal termination of Gaussian 16 at Sun Feb 11 04:08:34 2024.
