 Q-Chem 5.4, Q-Chem, Inc., Pleasanton, CA (2021)
 Q-Chem 5.4.0 for Intel X86 EM64T Linux

User input:
--------------------------------------------------------------
$molecule
-2 1
C                  1.3523360000     -0.5004070000      1.8587340000
C                  0.9364300000     -1.5429460000      0.9557400000
C                 -0.2213040000     -1.4959390000      0.2053600000
C                 -1.1604870000     -0.3951170000      0.2279290000
C                 -0.7722110000      0.6502060000      1.1072450000
C                  0.4264050000      0.6063310000      1.8660730000
O                  2.4145400000     -0.5962700000      2.5752120000
O                 -2.2305330000     -0.3899890000     -0.4985020000
S                  0.7718960000      1.9820260000      2.9237250000
C                  0.7620760000      1.3362740000      4.6225500000
C                 -0.3614850000      1.5636530000      5.4235330000
C                  1.8572040000      0.6139850000      5.1177800000
C                  1.8114580000      0.1312460000      6.4248330000
C                 -0.3906510000      1.0812670000      6.7298900000
C                  0.6991080000      0.3638270000      7.2394800000
O                  2.1167660000      2.5669060000      2.7137460000
O                 -0.3708930000      2.9357540000      2.8816200000
H                  1.5948460000     -2.4095910000      0.9032920000
H                 -0.4726710000     -2.3284030000     -0.4532200000
H                 -1.4062400000      1.5257520000      1.1792340000
H                 -1.1899340000      2.1239190000      5.0068500000
H                  2.6806140000      0.4039780000      4.4466510000
H                  2.6529370000     -0.4389070000      6.8096870000
H                 -1.2624300000      1.2648070000      7.3525240000
H                  0.6761460000     -0.0158230000      8.2576530000
$end
$rem
MAX_SCF_CYCLES=200
BASIS  =  6-311++G(d,p)
GUI  =  2
JOB_TYPE  =  SP
METHOD  =  B3LYP
SOLVENT_METHOD = COSMO
$end
$solvent
dielectric 37.219
opticaldielectric 1.43
$end

--------------------------------------------------------------

             Standard Nuclear Orientation (Angstroms)
    I     Atom           X                Y                Z
 ----------------------------------------------------------------
    1      C       1.2112096948     1.3609450254    -0.4660022789
    2      C       2.4170923221     1.8949926233     0.1135697906
    3      C       3.3831921673     1.1244558123     0.7288355293
    4      C       3.3092858373    -0.3142415303     0.8669331529
    5      C       2.1314658531    -0.8683894708     0.2992050496
    6      C       1.1470131419    -0.0756680829    -0.3464503733
    7      O       0.3116409403     2.1121267598    -0.9926044386
    8      O       4.2426454347    -0.9977362480     1.4452078015
    9      S      -0.2705072832    -0.9091987197    -0.9994366208
   10      C      -1.7032430390    -0.2854757215    -0.0713545479
   11      C      -2.2474279518    -1.0802079523     0.9425131745
   12      C      -2.2467600803     0.9745553618    -0.3597473074
   13      C      -3.3435942185     1.4205406868     0.3761665101
   14      C      -3.3476045923    -0.6247553915     1.6652094071
   15      C      -3.9045528526     0.6291357861     1.3831768738
   16      O      -0.5359170803    -0.5985514647    -2.4234826293
   17      O      -0.1990383142    -2.3541044342    -0.6466246452
   18      H       2.5269427197     2.9775425680     0.0556518726
   19      H       4.2683828770     1.6026445021     1.1503592900
   20      H       1.9952939841    -1.9424203459     0.3400815519
   21      H      -1.8002177073    -2.0472816047     1.1390379999
   22      H      -1.7581280003     1.5863996093    -1.1076820705
   23      H      -3.7615147313     2.4011986301     0.1642080343
   24      H      -3.7726892829    -1.2470411405     2.4484220901
   25      H      -4.7610588645     0.9869375146     1.9486085748
 ----------------------------------------------------------------

   11   -1161.3324485812      6.28e-06  Convergence criterion met
 Total energy in the final basis set =    -1161.3324485812
    6   -1161.6172456284      4.62e-06  Convergence criterion met
 Total energy in the final basis set =    -1161.6172456284

                    Orbital Energies (a.u.)
 --------------------------------------------------------------

 Alpha MOs
 -- Occupied --
-89.0369 -19.1061 -19.1041 -19.0378 -19.0290 -10.2010 -10.2001 -10.1856
-10.1824 -10.1796 -10.1781 -10.1769 -10.1763 -10.1709 -10.1441 -10.1414
-10.1407  -8.1007  -6.0639  -6.0625  -6.0612  -1.0931  -0.9884  -0.9575
 -0.9430  -0.8633  -0.8046  -0.7688  -0.7514  -0.7359  -0.6815  -0.6505
 -0.6107  -0.6023  -0.5682  -0.5509  -0.5215  -0.4771  -0.4728  -0.4657
 -0.4508  -0.4466  -0.4386  -0.4336  -0.4238  -0.4048  -0.3819  -0.3800
 -0.3725  -0.3674  -0.3559  -0.3456  -0.3369  -0.3336  -0.3278  -0.3147
 -0.2986  -0.2893  -0.2671  -0.2608  -0.2456  -0.2362  -0.2152  -0.2105
 -0.1394

          Ground-State Mulliken Net Atomic Charges

     Atom                 Charge (a.u.)
  ----------------------------------------
      1 C                    -0.616426
      2 C                     0.046157
      3 C                    -0.038376
      4 C                    -0.467411
      5 C                    -0.230033
      6 C                     0.373721
      7 O                    -0.610542
      8 O                    -0.761017
      9 S                     0.298470
     10 C                     0.182627
     11 C                     0.256463
     12 C                    -0.347195
     13 C                    -0.433571
     14 C                    -0.458012
     15 C                    -0.356224
     16 O                    -0.266951
     17 O                    -0.344734
     18 H                     0.182600
     19 H                     0.179183
     20 H                     0.220861
     21 H                     0.255040
     22 H                     0.283247
     23 H                     0.225226
     24 H                     0.223773
     25 H                     0.203126
  ----------------------------------------
  Sum of atomic charges =    -2.000000

                    Cartesian Multipole Moments
 -----------------------------------------------------------------
    Charge (ESU x 10^10)
                -9.6064
    Dipole Moment (Debye)
         X     -18.6814      Y       2.4643      Z       3.4745
       Tot      19.1609
    Quadrupole Moments (Debye-Ang)
        XX    -179.5410     XY      11.6270     YY    -138.7596
        XZ     -30.4211     YZ       5.1044     ZZ    -136.9678

 Total job time:  54.51s(wall), 408.02s(cpu)
        *  Thank you very much for using Q-Chem.  Have a nice day.  *
