 Q-Chem 5.4, Q-Chem, Inc., Pleasanton, CA (2021)
 Q-Chem 5.4.0 for Intel X86 EM64T Linux

User input:
--------------------------------------------------------------
$molecule
-2 1
O                  2.0380320000      2.8930720000     -1.1504750000
N                  2.7122360000      2.2859680000     -0.3074320000
O                  3.7216050000      2.8037290000      0.2542440000
C                  2.3888290000      0.9070010000     -0.0119320000
C                  3.4890500000      0.0704110000      0.0494500000
C                  3.3243900000     -1.3254080000      0.0316230000
C                  2.0424430000     -1.8527880000     -0.0877600000
C                  0.8993710000     -1.0461870000     -0.1106830000
C                 -0.3952540000     -1.7183890000     -0.1954520000
O                 -0.5125260000     -2.9797630000     -0.3366970000
C                 -1.5440790000     -0.8398170000     -0.0636490000
C                 -2.8484670000     -1.3826470000     -0.1454540000
C                 -3.9763050000     -0.5982230000     -0.0048240000
C                 -3.8292110000      0.7938890000      0.2331580000
C                 -2.5680240000      1.3467030000      0.3266720000
C                 -1.3911730000      0.5697990000      0.1818790000
C                 -0.0950690000      1.2419610000      0.2987650000
O                 -0.0176550000      2.4687500000      0.6355310000
C                  1.0341220000      0.4045130000      0.0236270000
H                  4.4745590000      0.5200960000      0.0360190000
H                  4.1954180000     -1.9754660000      0.0458950000
H                  1.8783920000     -2.9233140000     -0.1634860000
H                 -2.9206900000     -2.4514310000     -0.3217820000
H                 -4.9682080000     -1.0406840000     -0.0743640000
H                 -4.7112160000      1.4229020000      0.3420010000
H                 -2.4205710000      2.4053230000      0.5151250000
$end

$rem
BASIS  =  6-311++G(d,p)
GUI  =  2
JOB_TYPE  =  SP
METHOD  =  B3LYP
SCF_CONVERGENCE  = 8
SOLVENT_METHOD = sm12
$end

$smx
solvent dimethylformamide
charges CM5
$end

--------------------------------------------------------------

             Standard Nuclear Orientation (Angstroms)
    I     Atom           X                Y                Z
 ----------------------------------------------------------------
    1      O       2.0380320000     2.8930720000    -1.1504750000
    2      N       2.7122360000     2.2859680000    -0.3074320000
    3      O       3.7216050000     2.8037290000     0.2542440000
    4      C       2.3888290000     0.9070010000    -0.0119320000
    5      C       3.4890500000     0.0704110000     0.0494500000
    6      C       3.3243900000    -1.3254080000     0.0316230000
    7      C       2.0424430000    -1.8527880000    -0.0877600000
    8      C       0.8993710000    -1.0461870000    -0.1106830000
    9      C      -0.3952540000    -1.7183890000    -0.1954520000
   10      O      -0.5125260000    -2.9797630000    -0.3366970000
   11      C      -1.5440790000    -0.8398170000    -0.0636490000
   12      C      -2.8484670000    -1.3826470000    -0.1454540000
   13      C      -3.9763050000    -0.5982230000    -0.0048240000
   14      C      -3.8292110000     0.7938890000     0.2331580000
   15      C      -2.5680240000     1.3467030000     0.3266720000
   16      C      -1.3911730000     0.5697990000     0.1818790000
   17      C      -0.0950690000     1.2419610000     0.2987650000
   18      O      -0.0176550000     2.4687500000     0.6355310000
   19      C       1.0341220000     0.4045130000     0.0236270000
   20      H       4.4745590000     0.5200960000     0.0360190000
   21      H       4.1954180000    -1.9754660000     0.0458950000
   22      H       1.8783920000    -2.9233140000    -0.1634860000
   23      H      -2.9206900000    -2.4514310000    -0.3217820000
   24      H      -4.9682080000    -1.0406840000    -0.0743640000
   25      H      -4.7112160000     1.4229020000     0.3420010000
   26      H      -2.4205710000     2.4053230000     0.5151250000
 ----------------------------------------------------------------

   19    -893.5008619149      5.85e-09  Convergence criterion met
 Total energy in the final basis set =     -893.7671430875

                    Orbital Energies (a.u.)
 --------------------------------------------------------------

 Alpha MOs
 -- Occupied --
-19.1235 -19.1165 -19.0516 -19.0270 -14.5035 -10.2133 -10.2094 -10.1914
-10.1873 -10.1796 -10.1784 -10.1776 -10.1757 -10.1751 -10.1710 -10.1664
-10.1657 -10.1648 -10.1604  -1.1786  -1.0053  -0.9710  -0.9500  -0.8619
 -0.8510  -0.7899  -0.7762  -0.7486  -0.7352  -0.6859  -0.6574  -0.6267
 -0.6164  -0.5738  -0.5475  -0.5352  -0.5273  -0.4943  -0.4890  -0.4848
 -0.4665  -0.4568  -0.4527  -0.4424  -0.4248  -0.4046  -0.4027  -0.3955
 -0.3864  -0.3731  -0.3659  -0.3581  -0.3455  -0.3423  -0.3282  -0.3248
 -0.2870  -0.2813  -0.2740  -0.2542  -0.2481  -0.2427  -0.2382  -0.2230
 -0.2032  -0.1250

          Ground-State Mulliken Net Atomic Charges

     Atom                 Charge (a.u.)
  ----------------------------------------
      1 O                    -0.067536
      2 N                    -0.194881
      3 O                     0.018946
      4 C                    -1.441630
      5 C                     2.059950
      6 C                     1.473405
      7 C                     0.158361
      8 C                    -0.630480
      9 C                    -2.307526
     10 O                    -0.244287
     11 C                    -0.483696
     12 C                     0.457002
     13 C                     1.754070
     14 C                     1.862971
     15 C                    -0.435143
     16 C                    -1.494505
     17 C                    -2.645668
     18 O                    -0.363502
     19 C                    -1.513031
     20 H                     0.313452
     21 H                     0.448948
     22 H                     0.181184
     23 H                     0.171563
     24 H                     0.427577
     25 H                     0.397545
     26 H                     0.096910
  ----------------------------------------
  Sum of atomic charges =    -2.000000

                    Cartesian Multipole Moments
 -----------------------------------------------------------------
    Charge (ESU x 10^10)
                -9.6064
    Dipole Moment (Debye)
         X      -3.9475      Y      -6.0074      Z       0.0501
       Tot       7.1885
    Quadrupole Moments (Debye-Ang)
        XX    -157.2069     XY     -26.3259     YY    -182.7087
        XZ       0.6567     YZ      -3.0962     ZZ    -124.8463

 Total job time:  732.27s(wall), 5519.53s(cpu)
        *  Thank you very much for using Q-Chem.  Have a nice day.  *
