 Q-Chem 5.4, Q-Chem, Inc., Pleasanton, CA (2021)
 Q-Chem 5.4.0 for Intel X86 EM64T Linux

User input:
--------------------------------------------------------------
$molecule
0 1
C                 -0.9243570000      3.9444170000     -0.6070760000
C                 -2.0604330000      3.1581490000     -0.1315310000
C                 -1.9096050000      1.8716350000      0.2549790000
C                  0.4711450000      3.2360180000     -0.6406880000
C                  0.5482870000      1.8207520000     -0.1841060000
C                 -0.5906390000      1.2214570000      0.2220900000
O                  1.4426490000      3.8465720000     -1.0288450000
O                 -1.0125940000      5.0995470000     -0.9701580000
C                  1.9103450000      1.1786870000     -0.2150470000
C                  1.9931740000     -0.2735940000      0.2578620000
C                  3.4192970000     -0.8340030000      0.1911080000
C                  3.5165430000     -2.2872850000      0.6629820000
C                 -3.0753130000      1.0372650000      0.7186760000
C                 -3.4998520000     -0.0319890000     -0.3094350000
C                 -4.6653590000     -0.8982820000      0.1814720000
C                 -5.1005940000     -1.9507800000     -0.8419540000
H                 -3.0235860000      3.6565390000     -0.1065260000
H                 -0.5576150000      0.1914360000      0.5618200000
H                  2.5894590000      1.8033130000      0.3784170000
H                  2.2962620000      1.2602150000     -1.2387760000
H                  1.3340370000     -0.9031300000     -0.3529630000
H                  1.6279290000     -0.3513410000      1.2895700000
H                  4.0818010000     -0.2066740000      0.7989770000
H                  3.7888580000     -0.7578240000     -0.8382550000
H                  3.1872280000     -2.3898430000      1.7018460000
H                  4.5437760000     -2.6565470000      0.6034700000
H                  2.8918200000     -2.9456480000      0.0510180000
H                 -3.9258370000      1.6892340000      0.9356340000
H                 -2.8064440000      0.5390300000      1.6589770000
H                 -2.6457740000     -0.6760530000     -0.5501620000
H                 -3.7792350000      0.4676520000     -1.2440610000
H                 -5.5165700000     -0.2519960000      0.4263870000
H                 -4.3788500000     -1.3929480000      1.1173880000
H                 -5.4253540000     -1.4835840000     -1.7766720000
H                 -5.9328540000     -2.5506160000     -0.4643210000
H                 -4.2802480000     -2.6346090000     -1.0811850000
$end
$rem
MAX_SCF_CYCLES=200
BASIS  =  6-311++G(d,p)
GUI  =  2
JOB_TYPE  =  SP
METHOD  =  B3LYP
SOLVENT_METHOD = COSMO
$end
$solvent
dielectric 37.219
opticaldielectric 1.43
$end

--------------------------------------------------------------

             Standard Nuclear Orientation (Angstroms)
    I     Atom           X                Y                Z
 ----------------------------------------------------------------
    1      C      -0.2104733425    -2.9159493978     0.0481127284
    2      C      -1.3634231439    -2.1151885227    -0.3574952953
    3      C      -1.2565895563    -0.7820345047    -0.5538222847
    4      C       1.1504183065    -2.1655816419     0.2360140119
    5      C       1.1803642575    -0.6980266336    -0.0145481545
    6      C       0.0304823063    -0.0921382870    -0.3778289421
    7      O       2.1342467472    -2.7865805956     0.5732141962
    8      O      -0.2598255894    -4.1133872957     0.2421396857
    9      C       2.5108857928    -0.0142001298     0.1600959463
   10      C       2.5454272576     1.4925010754    -0.1012123657
   11      C       3.9423097052     2.0929854204     0.0999819030
   12      C       3.9911664983     3.6010923073    -0.1595890110
   13      C      -2.4416525549     0.0634757153    -0.9421539768
   14      C      -2.9476179357     0.9591132407     0.2077947890
   15      C      -4.1329691709     1.8400590004    -0.2029810979
   16      C      -4.6487147328     2.7193680374     0.9395618796
   17      H      -2.3022091714    -2.6421865336    -0.4902937687
   18      H       0.0294450280     0.9760888820    -0.5684593626
   19      H       3.2366562418    -0.5216081979    -0.4874743526
   20      H       2.8651239423    -0.2246684983     1.1768644600
   21      H       1.8387976488     2.0030879472     0.5650158108
   22      H       2.2122664485     1.7011643033    -1.1255821406
   23      H       4.6521034090     1.5842945931    -0.5628789313
   24      H       4.2797899694     1.8863732888     1.1224227360
   25      H       3.6930259044     3.8367110271    -1.1861370753
   26      H       4.9984705943     3.9979757134    -0.0081764648
   27      H       3.3175849503     4.1413742640     0.5131694222
   28      H      -3.2546940150    -0.5838845116    -1.2818799637
   29      H      -2.1633627072     0.6998560490    -1.7920183522
   30      H      -2.1314839164     1.5954290988     0.5700716805
   31      H      -3.2361510703     0.3217353545     1.0514296685
   32      H      -4.9460005559     1.2022496050    -0.5695984183
   33      H      -3.8370575285     2.4729760926    -1.0483052203
   34      H      -4.9839914208     2.1123019001     1.7860246059
   35      H      -5.4933981090     3.3337036667     0.6168106662
   36      H      -3.8679670287     3.3939150095     1.3045831629
 ----------------------------------------------------------------

    9    -696.1573492872      6.11e-06  Convergence criterion met
 Total energy in the final basis set =     -696.1573492872
    5    -696.1746944404      4.39e-06  Convergence criterion met
 Total energy in the final basis set =     -696.1746944404

                    Orbital Energies (a.u.)
 --------------------------------------------------------------

 Alpha MOs
 -- Occupied --
-19.1498 -19.1424 -10.2848 -10.2810 -10.2222 -10.2081 -10.2057 -10.1874
-10.1814 -10.1786 -10.1720 -10.1672 -10.1654 -10.1635 -10.1552 -10.1542
 -1.0895  -1.0630  -0.8737  -0.8214  -0.7984  -0.7768  -0.7460  -0.7227
 -0.6989  -0.6558  -0.6415  -0.5986  -0.5884  -0.5822  -0.5730  -0.5251
 -0.5069  -0.4799  -0.4776  -0.4709  -0.4579  -0.4537  -0.4458  -0.4351
 -0.4265  -0.4233  -0.4174  -0.4144  -0.3984  -0.3961  -0.3848  -0.3727
 -0.3611  -0.3549  -0.3510  -0.3395  -0.3364  -0.3332  -0.3293  -0.3270
 -0.3211  -0.3162  -0.2644  -0.2565

          Ground-State Mulliken Net Atomic Charges

     Atom                 Charge (a.u.)
  ----------------------------------------
      1 C                    -0.322288
      2 C                    -0.138947
      3 C                     0.542919
      4 C                    -0.157425
      5 C                     1.570318
      6 C                    -1.083566
      7 O                    -0.270276
      8 O                    -0.325872
      9 C                    -0.001012
     10 C                    -0.108020
     11 C                    -0.292613
     12 C                    -0.657469
     13 C                    -0.819743
     14 C                    -0.276850
     15 C                    -0.219174
     16 C                    -0.666370
     17 H                     0.238089
     18 H                     0.204223
     19 H                     0.211343
     20 H                     0.210350
     21 H                     0.120935
     22 H                     0.127225
     23 H                     0.145912
     24 H                     0.142928
     25 H                     0.147413
     26 H                     0.158421
     27 H                     0.147128
     28 H                     0.208236
     29 H                     0.185059
     30 H                     0.095863
     31 H                     0.150901
     32 H                     0.137124
     33 H                     0.143400
     34 H                     0.149681
     35 H                     0.153033
     36 H                     0.149124
  ----------------------------------------
  Sum of atomic charges =     0.000000

                    Cartesian Multipole Moments
 -----------------------------------------------------------------
    Charge (ESU x 10^10)
                 0.0000
    Dipole Moment (Debye)
         X      -3.1937      Y       8.4435      Z      -1.9957
       Tot       9.2453
    Quadrupole Moments (Debye-Ang)
        XX     -94.1351     XY       8.5446     YY    -132.5807
        XZ      -0.2150     YZ       4.4397     ZZ     -98.4804

 Total job time:  66.58s(wall), 484.96s(cpu)
        *  Thank you very much for using Q-Chem.  Have a nice day.  *
