 Gaussian 16, Revision A.03,
 Gaussian 16:  ES64L-G16RevA.03 25-Dec-2016

 --------------------------------------
 #P UB3LYP/6-311++G(d,p) nosym opt freq
 --------------------------------------

 --------
 Oxidized
 --------
 Symbolic Z-matrix:
 Charge =  0 Multiplicity = 1

 SCF Done:  E(UB3LYP) =  -696.152226010     A.U. after   16 cycles
 SCF Done:  E(UB3LYP) =  -696.152224619     A.U. after   10 cycles
 SCF Done:  E(UB3LYP) =  -696.152226159     A.U. after    9 cycles
 SCF Done:  E(UB3LYP) =  -696.152226238     A.U. after    8 cycles
 SCF Done:  E(UB3LYP) =  -696.119092891     A.U. after   15 cycles
 SCF Done:  E(UB3LYP) =  -696.152302182     A.U. after   13 cycles
 SCF Done:  E(UB3LYP) =  -696.152457039     A.U. after   13 cycles
 SCF Done:  E(UB3LYP) =  -696.152776278     A.U. after   12 cycles
 SCF Done:  E(UB3LYP) =  -696.152819155     A.U. after   13 cycles
 SCF Done:  E(UB3LYP) =  -696.154685711     A.U. after   15 cycles
 SCF Done:  E(UB3LYP) =  -696.154086402     A.U. after   13 cycles
 SCF Done:  E(UB3LYP) =  -696.155544888     A.U. after   14 cycles
 SCF Done:  E(UB3LYP) =  -696.156623060     A.U. after   16 cycles
 SCF Done:  E(UB3LYP) =  -696.156961757     A.U. after   14 cycles
 SCF Done:  E(UB3LYP) =  -696.157237182     A.U. after   13 cycles
 SCF Done:  E(UB3LYP) =  -696.157252292     A.U. after   12 cycles
 SCF Done:  E(UB3LYP) =  -696.157254130     A.U. after   11 cycles
 SCF Done:  E(UB3LYP) =  -696.157254383     A.U. after   10 cycles
 SCF Done:  E(UB3LYP) =  -696.157254472     A.U. after    9 cycles
 Optimization completed.
    -- Stationary point found.
 Normal termination of Gaussian 16 at Wed Jan 10 00:11:46 2024.

 ----------------------------------------------------------------------
 #P Geom=AllCheck Guess=TCheck SCRF=Check GenChk UB3LYP/6-311++G(d,p) F
 req
 ----------------------------------------------------------------------

 Structure from the checkpoint file:  "319.chk"
 --------
 Oxidized
 --------
 Charge =  0 Multiplicity = 1

                          Input orientation:
 ---------------------------------------------------------------------
 Center     Atomic      Atomic             Coordinates (Angstroms)
 Number     Number       Type             X           Y           Z
 ---------------------------------------------------------------------
      1          6           0       -0.924357    3.944417   -0.607076
      2          6           0       -2.060433    3.158149   -0.131531
      3          6           0       -1.909605    1.871635    0.254979
      4          6           0        0.471145    3.236018   -0.640688
      5          6           0        0.548287    1.820752   -0.184106
      6          6           0       -0.590639    1.221457    0.222090
      7          8           0        1.442649    3.846572   -1.028845
      8          8           0       -1.012594    5.099547   -0.970158
      9          6           0        1.910345    1.178687   -0.215047
     10          6           0        1.993174   -0.273594    0.257862
     11          6           0        3.419297   -0.834003    0.191108
     12          6           0        3.516543   -2.287285    0.662982
     13          6           0       -3.075313    1.037265    0.718676
     14          6           0       -3.499852   -0.031989   -0.309435
     15          6           0       -4.665359   -0.898282    0.181472
     16          6           0       -5.100594   -1.950780   -0.841954
     17          1           0       -3.023586    3.656539   -0.106526
     18          1           0       -0.557615    0.191436    0.561820
     19          1           0        2.589459    1.803313    0.378417
     20          1           0        2.296262    1.260215   -1.238776
     21          1           0        1.334037   -0.903130   -0.352963
     22          1           0        1.627929   -0.351341    1.289570
     23          1           0        4.081801   -0.206674    0.798977
     24          1           0        3.788858   -0.757824   -0.838255
     25          1           0        3.187228   -2.389843    1.701846
     26          1           0        4.543776   -2.656547    0.603470
     27          1           0        2.891820   -2.945648    0.051018
     28          1           0       -3.925837    1.689234    0.935634
     29          1           0       -2.806444    0.539030    1.658977
     30          1           0       -2.645774   -0.676053   -0.550162
     31          1           0       -3.779235    0.467652   -1.244061
     32          1           0       -5.516570   -0.251996    0.426387
     33          1           0       -4.378850   -1.392948    1.117388
     34          1           0       -5.425354   -1.483584   -1.776672
     35          1           0       -5.932854   -2.550616   -0.464321
     36          1           0       -4.280248   -2.634609   -1.081185
 ---------------------------------------------------------------------

 SCF Done:  E(UB3LYP) =  -696.157254472     A.U. after    2 cycles

 Alpha  occ. eigenvalues --  -19.13778 -19.12969 -10.27441 -10.26995 -10.22536
 Alpha  occ. eigenvalues --  -10.21213 -10.21131 -10.19729 -10.19218 -10.18878
 Alpha  occ. eigenvalues --  -10.18762 -10.18296 -10.18129 -10.17684 -10.17148
 Alpha  occ. eigenvalues --  -10.16746  -1.07605  -1.04883  -0.87879  -0.83201
 Alpha  occ. eigenvalues --   -0.81195  -0.78704  -0.75503  -0.73162  -0.70530
 Alpha  occ. eigenvalues --   -0.66569  -0.64902  -0.60659  -0.60101  -0.59108
 Alpha  occ. eigenvalues --   -0.57963  -0.52535  -0.50567  -0.49121  -0.48736
 Alpha  occ. eigenvalues --   -0.46830  -0.45716  -0.45158  -0.44764  -0.44444
 Alpha  occ. eigenvalues --   -0.43820  -0.43130  -0.42890  -0.42085  -0.40613
 Alpha  occ. eigenvalues --   -0.39813  -0.38895  -0.38409  -0.37003  -0.36922
 Alpha  occ. eigenvalues --   -0.36330  -0.35229  -0.35019  -0.34649  -0.34575
 Alpha  occ. eigenvalues --   -0.34088  -0.32909  -0.30304  -0.25925  -0.25162
 Alpha virt. eigenvalues --   -0.13118  -0.02165  -0.01312  -0.01126  -0.00938
 Alpha virt. eigenvalues --   -0.00103   0.00100   0.00386   0.00834   0.01346
 Alpha virt. eigenvalues --    0.02490   0.02612   0.03077   0.03257   0.03874

  Beta  occ. eigenvalues --  -19.13778 -19.12969 -10.27441 -10.26995 -10.22536
  Beta  occ. eigenvalues --  -10.21213 -10.21131 -10.19729 -10.19218 -10.18878
  Beta  occ. eigenvalues --  -10.18762 -10.18296 -10.18129 -10.17684 -10.17148
  Beta  occ. eigenvalues --  -10.16746  -1.07605  -1.04883  -0.87879  -0.83201
  Beta  occ. eigenvalues --   -0.81195  -0.78704  -0.75503  -0.73162  -0.70530
  Beta  occ. eigenvalues --   -0.66569  -0.64902  -0.60659  -0.60101  -0.59108
  Beta  occ. eigenvalues --   -0.57963  -0.52535  -0.50567  -0.49121  -0.48736
  Beta  occ. eigenvalues --   -0.46830  -0.45716  -0.45158  -0.44764  -0.44444
  Beta  occ. eigenvalues --   -0.43820  -0.43130  -0.42890  -0.42085  -0.40613
  Beta  occ. eigenvalues --   -0.39813  -0.38895  -0.38409  -0.37003  -0.36922
  Beta  occ. eigenvalues --   -0.36330  -0.35229  -0.35019  -0.34649  -0.34575
  Beta  occ. eigenvalues --   -0.34088  -0.32909  -0.30304  -0.25925  -0.25162
  Beta virt. eigenvalues --   -0.13118  -0.02165  -0.01312  -0.01126  -0.00938
  Beta virt. eigenvalues --   -0.00103   0.00100   0.00386   0.00834   0.01346
  Beta virt. eigenvalues --    0.02490   0.02612   0.03077   0.03257   0.03874

 Mulliken charges and spin densities:
               1          2
     1  C   -0.476822  -0.000000
     2  C   -0.090361   0.000000
     3  C    0.623090  -0.000000
     4  C   -0.199670   0.000000
     5  C    1.485997  -0.000000
     6  C   -1.029579   0.000000
     7  O   -0.176831  -0.000000
     8  O   -0.211923   0.000000
     9  C   -0.024146   0.000000
    10  C   -0.095459  -0.000000
    11  C   -0.277622  -0.000000
    12  C   -0.602439  -0.000000
    13  C   -0.740310   0.000000
    14  C   -0.299941  -0.000000
    15  C   -0.184299   0.000000
    16  C   -0.623639   0.000000
    17  H    0.199288   0.000000
    18  H    0.161821   0.000000
    19  H    0.202228  -0.000000
    20  H    0.201529  -0.000000
    21  H    0.105860   0.000000
    22  H    0.110024  -0.000000
    23  H    0.137368  -0.000000
    24  H    0.134057   0.000000
    25  H    0.136084   0.000000
    26  H    0.151234   0.000000
    27  H    0.135431   0.000000
    28  H    0.189418  -0.000000
    29  H    0.155294   0.000000
    30  H    0.078895  -0.000000
    31  H    0.144626   0.000000
    32  H    0.126307   0.000000
    33  H    0.130422   0.000000
    34  H    0.141447   0.000000
    35  H    0.144783  -0.000000
    36  H    0.137841   0.000000
 Sum of Mulliken charges =  -0.00000  -0.00000

 Dipole moment (field-independent basis, Debye):
    X=             -2.0234    Y=             -6.0255    Z=              2.0865  Tot=              6.6899
 Quadrupole moment (field-independent basis, Debye-Ang):
   XX=            -90.9968   YY=           -136.2628   ZZ=           -100.9519
   XY=             -3.9509   XZ=              0.3611   YZ=              9.9353

  Exact polarizability: 204.592   4.837 201.510  -7.360 -17.182 127.126
 Approx polarizability: 277.698  12.866 291.091 -19.845 -33.625 202.290

                      1                      2                      3
                      A                      A                      A
 Frequencies --     26.2955                36.0421                50.1702
 Red. masses --      3.3341                 4.7117                 4.9225
 Frc consts  --      0.0014                 0.0036                 0.0073
 IR Inten    --      0.0962                 0.3114                 2.5939

                      4                      5                      6
                      A                      A                      A
 Frequencies --     57.6930                65.1717                84.2562
 Red. masses --      2.5907                 1.6390                 2.7900
 Frc consts  --      0.0051                 0.0041                 0.0117
 IR Inten    --      0.0507                 0.0139                 0.8107

                      7                      8                      9
                      A                      A                      A
 Frequencies --     88.3418               124.3937               127.5989
 Red. masses --      2.4751                 2.2749                 2.0988
 Frc consts  --      0.0114                 0.0207                 0.0201
 IR Inten    --      0.2007                 0.0842                 0.3555

                     10                     11                     12
                      A                      A                      A
 Frequencies --    175.1320               195.2885               219.7314
 Red. masses --      4.3995                 2.7034                 3.1164
 Frc consts  --      0.0795                 0.0607                 0.0887
 IR Inten    --      2.6627                 0.8814                 1.8892

                     13                     14                     15
                      A                      A                      A
 Frequencies --    238.5082               246.1815               251.8789
 Red. masses --      1.3578                 1.2232                 2.5405
 Frc consts  --      0.0455                 0.0437                 0.0950
 IR Inten    --      0.9999                 0.2274                 0.7028

                     16                     17                     18
                      A                      A                      A
 Frequencies --    259.3392               316.1567               323.3005
 Red. masses --      3.7312                 3.6884                 3.5366
 Frc consts  --      0.1479                 0.2172                 0.2178
 IR Inten    --      0.1199                 2.0088                 1.4535

                     19                     20                     21
                      A                      A                      A
 Frequencies --    365.0225               396.3612               427.2675
 Red. masses --     10.8355                 3.0002                 3.1736
 Frc consts  --      0.8506                 0.2777                 0.3414
 IR Inten    --      2.7213                 0.0613                 1.2087

                     22                     23                     24
                      A                      A                      A
 Frequencies --    460.1564               528.0707               535.1165
 Red. masses --      6.1500                 6.0428                 4.2377
 Frc consts  --      0.7673                 0.9928                 0.7149
 IR Inten    --      9.9107                 0.5441                 7.0841

                     25                     26                     27
                      A                      A                      A
 Frequencies --    586.2195               649.6407               671.4752
 Red. masses --      3.8863                 4.1559                 4.3828
 Frc consts  --      0.7869                 1.0334                 1.1643
 IR Inten    --      4.8558                 7.4658                 2.3018

                     28                     29                     30
                      A                      A                      A
 Frequencies --    734.0083               737.2202               766.5136
 Red. masses --      1.1413                 1.0863                 4.9497
 Frc consts  --      0.3623                 0.3479                 1.7134
 IR Inten    --      3.9897                 2.2351                 1.4264

                     31                     32                     33
                      A                      A                      A
 Frequencies --    777.3875               801.1947               817.7520
 Red. masses --      1.3956                 1.2154                 2.0576
 Frc consts  --      0.4969                 0.4597                 0.8107
 IR Inten    --      0.0392                 2.2010                 7.3093

                     34                     35                     36
                      A                      A                      A
 Frequencies --    874.2255               908.8037               909.5426
 Red. masses --      1.7968                 1.9508                 1.8174
 Frc consts  --      0.8091                 0.9493                 0.8858
 IR Inten    --     12.8621                 1.0269                 2.5494

                     37                     38                     39
                      A                      A                      A
 Frequencies --    917.3204               932.8047               953.3205
 Red. masses --      1.4678                 1.8693                 2.3494
 Frc consts  --      0.7277                 0.9583                 1.2580
 IR Inten    --      0.2243                 2.3835                14.4594

                     40                     41                     42
                      A                      A                      A
 Frequencies --    960.1219               973.9221              1006.0678
 Red. masses --      1.3347                 3.1875                 3.5287
 Frc consts  --      0.7249                 1.7814                 2.1043
 IR Inten    --      3.1148                 1.7740                 5.8318

                     43                     44                     45
                      A                      A                      A
 Frequencies --   1036.2474              1053.8019              1067.8411
 Red. masses --      3.1642                 2.5964                 2.3300
 Frc consts  --      2.0019                 1.6988                 1.5654
 IR Inten    --      3.2759                 0.7121                 0.1857

                     46                     47                     48
                      A                      A                      A
 Frequencies --   1107.4880              1118.9412              1122.6605
 Red. masses --      1.7981                 1.8733                 2.2583
 Frc consts  --      1.2994                 1.3819                 1.6770
 IR Inten    --     17.1897                 4.6061                 3.2862

                     49                     50                     51
                      A                      A                      A
 Frequencies --   1130.8560              1145.6559              1208.0989
 Red. masses --      1.4921                 2.5983                 1.9971
 Frc consts  --      1.1243                 2.0093                 1.7173
 IR Inten    --      0.0895                 0.4833                 3.9215

                     52                     53                     54
                      A                      A                      A
 Frequencies --   1232.6965              1243.0800              1252.4055
 Red. masses --      1.4934                 1.3753                 3.4867
 Frc consts  --      1.3370                 1.2522                 3.2222
 IR Inten    --      2.6798                 0.1012                89.9213

                     55                     56                     57
                      A                      A                      A
 Frequencies --   1280.4680              1287.0751              1304.5806
 Red. masses --      1.3224                 1.3848                 1.2730
 Frc consts  --      1.2775                 1.3516                 1.2765
 IR Inten    --      0.3599                 5.4737                 0.1392

                     58                     59                     60
                      A                      A                      A
 Frequencies --   1312.7369              1331.2823              1334.8242
 Red. masses --      1.1557                 1.0890                 1.0648
 Frc consts  --      1.1734                 1.1371                 1.1178
 IR Inten    --      0.2302                 1.4696                 0.4575

                     61                     62                     63
                      A                      A                      A
 Frequencies --   1344.3255              1357.6818              1372.9233
 Red. masses --      1.4276                 1.3992                 1.8084
 Frc consts  --      1.5200                 1.5196                 2.0083
 IR Inten    --      0.7628                 7.5078                19.5724

                     64                     65                     66
                      A                      A                      A
 Frequencies --   1390.6164              1392.5927              1412.8906
 Red. masses --      1.5082                 1.7440                 1.3154
 Frc consts  --      1.7184                 1.9927                 1.5472
 IR Inten    --      1.0475                14.7054                11.1903

                     67                     68                     69
                      A                      A                      A
 Frequencies --   1415.2232              1421.0681              1464.2679
 Red. masses --      1.2337                 1.6917                 1.0919
 Frc consts  --      1.4559                 2.0128                 1.3794
 IR Inten    --      3.5582                 6.3754                15.4135

                     70                     71                     72
                      A                      A                      A
 Frequencies --   1485.0839              1489.4801              1490.0268
 Red. masses --      1.0861                 1.0668                 1.0610
 Frc consts  --      1.4112                 1.3945                 1.3879
 IR Inten    --      2.2653                 0.9413                 1.1884

                     73                     74                     75
                      A                      A                      A
 Frequencies --   1498.2980              1499.8858              1500.2880
 Red. masses --      1.0679                 1.0568                 1.0542
 Frc consts  --      1.4124                 1.4008                 1.3981
 IR Inten    --      0.1287                 6.2664                 4.2716

                     76                     77                     78
                      A                      A                      A
 Frequencies --   1500.4384              1511.7700              1512.0824
 Red. masses --      1.0396                 1.0906                 1.0929
 Frc consts  --      1.3790                 1.4685                 1.4722
 IR Inten    --      8.4556                 6.2455                11.7225

                     79                     80                     81
                      A                      A                      A
 Frequencies --   1625.1027              1687.1502              1731.8049
 Red. masses --      7.9701                 6.2540                12.4272
 Frc consts  --     12.4016                10.4886                21.9594
 IR Inten    --     50.7790                24.2061               337.8219

                     82                     83                     84
                      A                      A                      A
 Frequencies --   1757.1494              2997.6221              3005.0696
 Red. masses --     12.7948                 1.0576                 1.0584
 Frc consts  --     23.2756                 5.5990                 5.6315
 IR Inten    --     76.0400                 5.9277                 8.5594

                     85                     86                     87
                      A                      A                      A
 Frequencies --   3005.8191              3009.7684              3015.7638
 Red. masses --      1.0635                 1.0595                 1.0615
 Frc consts  --      5.6615                 5.6546                 5.6878
 IR Inten    --      1.2953                11.9159                40.5790

                     88                     89                     90
                      A                      A                      A
 Frequencies --   3017.0722              3018.1924              3018.9498
 Red. masses --      1.0531                 1.0992                 1.0433
 Frc consts  --      5.6479                 5.8998                 5.6024
 IR Inten    --     11.4917                 0.5141                57.3624

                     91                     92                     93
                      A                      A                      A
 Frequencies --   3020.8828              3027.3988              3033.1777
 Red. masses --      1.0401                 1.0966                 1.1014
 Frc consts  --      5.5923                 5.9218                 5.9705
 IR Inten    --     45.6315                 8.4706                 0.0162

                     94                     95                     96
                      A                      A                      A
 Frequencies --   3048.9494              3050.7736              3072.8570
 Red. masses --      1.1007                 1.1040                 1.1000
 Frc consts  --      6.0288                 6.0541                 6.1196
 IR Inten    --     13.7074                32.6917                18.2882

                     97                     98                     99
                      A                      A                      A
 Frequencies --   3078.9279              3082.3395              3086.1619
 Red. masses --      1.1027                 1.1025                 1.1006
 Frc consts  --      6.1590                 6.1717                 6.1762
 IR Inten    --     66.5065                74.3942                40.4408

                    100                    101                    102
                      A                      A                      A
 Frequencies --   3087.3802              3164.7508              3174.0255
 Red. masses --      1.1010                 1.0888                 1.0919
 Frc consts  --      6.1834                 6.4250                 6.4813
 IR Inten    --     39.1362                11.5857                 3.4910

 - Thermochemistry -
 -------------------
 Temperature   298.150 Kelvin.  Pressure   1.00000 Atm.
 Atom     1 has atomic number  6 and mass  12.00000

 Molecular mass:   220.14633 amu.
 Principal axes and moments of inertia in atomic units:
                           1         2         3
     Eigenvalues --  4127.925115856.889469577.51972
           X            0.99729  -0.06411  -0.03607
           Y            0.06872   0.98688   0.14609
           Z            0.02623  -0.14817   0.98861
 This molecule is an asymmetric top.
 Rotational symmetry number  1.
 Warning -- assumption of classical behavior for rotation
           may cause significant error
 Rotational temperatures (Kelvin)      0.02098     0.01479     0.00904
 Rotational constants (GHZ):           0.43720     0.30814     0.18844
 Zero-point vibrational energy     813591.0 (Joules/Mol)
                                  194.45291 (Kcal/Mol)
 Warning -- explicit consideration of  25 degrees of freedom as
           vibrations may cause significant error
 Vibrational temperatures:     37.83    51.86    72.18    83.01    93.77
          (Kelvin)            121.23   127.10   178.97   183.59   251.98
                              280.98   316.14   343.16   354.20   362.40
                              373.13   454.88   465.16   525.19   570.28
                              614.74   662.06   759.78   769.91   843.44
                              934.69   966.10  1056.07  1060.70  1102.84
                             1118.49  1152.74  1176.56  1257.82  1307.57
                             1308.63  1319.82  1342.10  1371.62  1381.40
                             1401.26  1447.51  1490.93  1516.19  1536.39
                             1593.43  1609.91  1615.26  1627.05  1648.34
                             1738.18  1773.58  1788.51  1801.93  1842.31
                             1851.81  1877.00  1888.74  1915.42  1920.51
                             1934.18  1953.40  1975.33  2000.79  2003.63
                             2032.83  2036.19  2044.60  2106.75  2136.70
                             2143.03  2143.82  2155.72  2158.00  2158.58
                             2158.80  2175.10  2175.55  2338.16  2427.43
                             2491.68  2528.15  4312.91  4323.62  4324.70
                             4330.39  4339.01  4340.89  4342.51  4343.60
                             4346.38  4355.75  4364.07  4386.76  4389.38
                             4421.16  4429.89  4434.80  4440.30  4442.05
                             4553.37  4566.71

 Zero-point correction=                           0.309880 (Hartree/Particle)
 Thermal correction to Energy=                    0.327683
 Thermal correction to Enthalpy=                  0.328628
 Thermal correction to Gibbs Free Energy=         0.261955
 Sum of electronic and zero-point Energies=           -695.847374
 Sum of electronic and thermal Energies=              -695.829571
 Sum of electronic and thermal Enthalpies=            -695.828627
 Sum of electronic and thermal Free Energies=         -695.895300

                     E (Thermal)             CV                S
                      KCal/Mol        Cal/Mol-Kelvin    Cal/Mol-Kelvin
 Total                  205.624             64.423            140.324
 Electronic               0.000              0.000              0.000
 Translational            0.889              2.981             42.070
 Rotational               0.889              2.981             33.804
 Vibrational            203.847             58.462             64.451
 Vibration     1          0.593              1.985              6.091
 Vibration     2          0.594              1.982              5.466
 Vibration     3          0.595              1.978              4.811
 Vibration     4          0.596              1.974              4.535
 Vibration     5          0.597              1.971              4.294
 Vibration     6          0.601              1.960              3.789
 Vibration     7          0.601              1.957              3.696
 Vibration     8          0.610              1.929              3.031
 Vibration     9          0.611              1.926              2.982
 Vibration    10          0.627              1.873              2.380
 Vibration    11          0.636              1.846              2.177
 Vibration    12          0.647              1.811              1.961
 Vibration    13          0.656              1.782              1.814
 Vibration    14          0.661              1.769              1.758
 Vibration    15          0.664              1.760              1.717
 Vibration    16          0.668              1.747              1.666
 Vibration    17          0.703              1.643              1.330
 Vibration    18          0.708              1.629              1.293
 Vibration    19          0.738              1.544              1.101
 Vibration    20          0.763              1.478              0.976
 Vibration    21          0.789              1.411              0.868
 Vibration    22          0.818              1.338              0.766
 Vibration    23          0.883              1.188              0.592
 Vibration    24          0.890              1.172              0.576
 Vibration    25          0.943              1.061              0.474

 Optimization completed on the basis of negligible forces.
    -- Stationary point found.
 Normal termination of Gaussian 16 at Wed Jan 10 00:48:24 2024.
