 Q-Chem 5.4, Q-Chem, Inc., Pleasanton, CA (2021)
 Q-Chem 5.4.0 for Intel X86 EM64T Linux

User input:
--------------------------------------------------------------
$molecule
-1 2
C                 -1.8809450000      4.5421360000      5.2842050000
C                 -3.1511370000      4.0084250000      5.3966950000
C                 -3.6182170000      3.0943610000      4.4318820000
C                 -1.0397510000      4.1783480000      4.2111850000
C                 -1.5064710000      3.2560200000      3.2365890000
C                 -2.8042570000      2.7318200000      3.3708400000
C                  0.2857490000      4.7396700000      4.0805150000
C                  1.0737960000      4.2840120000      2.9597420000
C                  0.6763800000      3.3512300000      2.0126340000
C                 -0.6750120000      2.8338340000      2.0820310000
O                  0.8030450000      5.5964460000      4.8673550000
O                 -1.1774890000      2.0655970000      1.2172300000
O                  2.2992900000      4.8691110000      2.8947820000
H                 -1.4980810000      5.2503580000      6.0101890000
H                 -3.7898670000      4.2940330000      6.2273330000
H                 -4.6161510000      2.6755350000      4.5197130000
H                 -3.1407890000      2.0342680000      2.6128670000
H                  2.2884780000      5.4607890000      3.6804890000
C                  2.9674430000      2.3759320000      1.3596460000
C                  3.0281550000      1.5833290000      2.5066030000
C                  4.1300530000      2.5279000000      0.5959610000
C                  5.3192000000      1.9029190000      0.9629840000
C                  5.3670300000      1.1094780000      2.1101970000
C                  4.2159900000      0.9542500000      2.8801550000
H                  2.1393160000      1.4693590000      3.1163950000
H                  4.0922000000      3.1412120000     -0.2985720000
H                  6.2106440000      2.0387890000      0.3583090000
H                  4.2414990000      0.3453770000      3.7783590000
H                  6.2928200000      0.6248220000      2.4033710000
C                  1.6777610000      3.0510600000      0.8831920000
H                  1.9937360000      4.0372950000      0.5201510000
N                  1.1667880000      2.3448740000     -0.3180950000
C                  1.1065680000      0.8793470000     -0.2453940000
C                  0.3829210000      0.3288080000     -1.4739930000
C                  0.3239160000     -1.2021230000     -1.4992350000
C                 -0.4100500000     -1.7676340000     -2.7205820000
C                 -0.4732580000     -3.2990790000     -2.7484740000
C                 -1.2081320000     -3.8655050000     -3.9688290000
C                 -1.2715030000     -5.3969660000     -3.9956730000
C                 -2.0059850000     -5.9632950000     -5.2162690000
C                 -2.0688440000     -7.4947860000     -5.2425690000
C                 -2.8023820000     -8.0613090000     -6.4633630000
C                 -2.8657780000     -9.5927260000     -6.4901360000
C                 -3.6002520000    -10.1490110000     -7.7137470000
H                  0.2079970000      2.6576450000     -0.4413710000
H                  0.5841390000      0.5289760000      0.6551090000
H                  2.1280130000      0.4865390000     -0.2198100000
H                  0.8827730000      0.6986420000     -2.3782310000
H                 -0.6379530000      0.7299920000     -1.4868840000
H                 -0.1689840000     -1.5587310000     -0.5861090000
H                  1.3446640000     -1.6070950000     -1.4735900000
H                  0.0803720000     -1.4097020000     -3.6357980000
H                 -1.4303830000     -1.3634790000     -2.7455680000
H                 -0.9640190000     -3.6560480000     -1.8336160000
H                  0.5473060000     -3.7036880000     -2.7217390000
H                 -0.7177060000     -3.5082840000     -4.8840960000
H                 -2.2285680000     -3.4613040000     -3.9951600000
H                 -1.7625220000     -5.7539290000     -3.0809250000
H                 -0.2510430000     -5.8013680000     -3.9685090000
H                 -1.5151460000     -5.6061760000     -6.1311930000
H                 -3.0264740000     -5.5593420000     -5.2432040000
H                 -2.5603640000     -7.8517820000     -4.3280890000
H                 -1.0483150000     -7.8988200000     -5.2148600000
H                 -2.3112300000     -7.7051890000     -7.3786420000
H                 -3.8232930000     -7.6580870000     -6.4917730000
H                 -3.3574110000     -9.9489510000     -5.5765440000
H                 -1.8460480000     -9.9961370000     -6.4622440000
H                 -4.6342310000     -9.7910710000     -7.7504770000
H                 -3.6278580000    -11.2425860000     -7.7025840000
H                 -3.1115670000     -9.8385570000     -8.6429790000
$end
$rem
MAX_SCF_CYCLES=200
SCF_Guess=core
BASIS  =  6-311++G(d,p)
GUI  =  2
JOB_TYPE  =  SP
METHOD  =  B3LYP
THRESH = 14
SCF_CONVERGENCE = 8
SOLVENT_METHOD = COSMO
$end
$solvent
dielectric 37.219
opticaldielectric 1.43
$end

--------------------------------------------------------------

             Standard Nuclear Orientation (Angstroms)
    I     Atom           X                Y                Z
 ----------------------------------------------------------------
    1      C       6.3524170741     3.3587853160     0.6548659917
    2      C       5.7651464588     4.5902596246     0.8772921592
    3      C       4.3804377944     4.7557059648     0.6779174600
    4      C       5.5777608207     2.2577980520     0.2317162444
    5      C       4.1807845181     2.4200431869     0.0305009681
    6      C       3.6087544235     3.6841241495     0.2584008665
    7      C       6.1856861220     0.9695434033    -0.0130981235
    8      C       5.3011438455    -0.0963748787    -0.4207469698
    9      C       3.9270188960     0.0053661608    -0.5834266682
   10      C       3.3093111962     1.3051635516    -0.4168768482
   11      O       7.4265149390     0.7079311227     0.0995087720
   12      O       2.0902912515     1.5368024623    -0.6424556207
   13      O       5.9480296502    -1.2702744816    -0.6485509717
   14      H       7.4160879455     3.2048812176     0.7967596770
   15      H       6.3703187588     5.4307003510     1.2042987376
   16      H       3.9190755346     5.7231050956     0.8519449239
   17      H       2.5425362982     3.7856527051     0.0933962906
   18      H       6.8821964758    -1.0339731301    -0.4509927318
   19      C       3.2361203409    -2.4186252332    -0.0604600387
   20      C       3.3576623445    -2.2236185740     1.3159903841
   21      C       3.1085097508    -3.7283326395    -0.5362258545
   22      C       3.0974719387    -4.8133972684     0.3366376161
   23      C       3.2159820157    -4.6059150901     1.7117159790
   24      C       3.3473018534    -3.3059522285     2.1961494565
   25      H       3.4729862916    -1.2156592627     1.6975511605
   26      H       3.0119158023    -3.8898230560    -1.6050402451
   27      H       3.0024614769    -5.8215749442    -0.0549178763
   28      H       3.4470937446    -3.1314004141     3.2627893711
   29      H       3.2134500157    -5.4487056586     2.3955487095
   30      C       3.1974361353    -1.2617756488    -1.0635993426
   31      H       3.7836384876    -1.6136830782    -1.9219852738
   32      N       1.8151982018    -1.1041725919    -1.5807667249
   33      C       0.7358621340    -1.0948492247    -0.5849615235
   34      C      -0.5873336429    -0.7314804802    -1.2582592032
   35      C      -1.7768053741    -0.7511018340    -0.2925260732
   36      C      -3.1089160354    -0.3766139111    -0.9524027710
   37      C      -4.3012545209    -0.3928672118     0.0110087555
   38      C      -5.6336247292    -0.0172929179    -0.6476854930
   39      C      -6.8253578787    -0.0331243994     0.3164881133
   40      C      -8.1577261506     0.3420145686    -0.3423840158
   41      C      -9.3490432386     0.3258244832     0.6222968143
   42      C     -10.6814943452     0.6999921883    -0.0364420371
   43      C     -11.8731550291     0.6842048416     0.9277516408
   44      C     -13.1997668086     1.0590345726     0.2601194093
   45      H       1.7860532553    -0.1944125318    -2.0321978463
   46      H       0.9246490253    -0.3783218973     0.2259303617
   47      H       0.6561027612    -2.0935370982    -0.1438679646
   48      H      -0.7681392408    -1.4262405768    -2.0882551755
   49      H      -0.4932326690     0.2702499272    -1.6952714472
   50      H      -1.5790704641    -0.0602055015     0.5366192282
   51      H      -1.8658987546    -1.7496589518     0.1563976601
   52      H      -3.3074331895    -1.0655832682    -1.7843652376
   53      H      -3.0199519304     0.6216713080    -1.4002386835
   54      H      -4.1022955597     0.2963834179     0.8420245721
   55      H      -4.3894329915    -1.3909542005     0.4604762198
   56      H      -5.8327124278    -0.7063116688    -1.4792234866
   57      H      -5.5454800887     0.9807538139    -1.0965670402
   58      H      -6.6265137299     0.6563480204     1.1473761515
   59      H      -6.9131338421    -1.0309928916     0.7661227700
   60      H      -8.3565967029    -0.3473212475    -1.1735335006
   61      H      -8.0701547812     1.3399483921    -0.7915617741
   62      H      -9.1504896610     1.0157117830     1.4529253204
   63      H      -9.4361882494    -0.6719559766     1.0721085559
   64      H     -10.8812812783     0.0102182628    -0.8671552863
   65      H     -10.5954761200     1.6979272726    -0.4863095861
   66      H     -11.6745891967     1.3740121626     1.7572015006
   67      H     -11.9598721008    -0.3127285890     1.3771640971
   68      H     -13.1558720323     2.0654164200    -0.1686597117
   69      H     -14.0284452798     1.0383475817     0.9740220807
   70      H     -13.4433591751     0.3660203863    -0.5517062627
 ----------------------------------------------------------------

   35   -1408.2701086570      7.98e-09  Convergence criterion met
 Total energy in the final basis set =    -1408.2701086570
   13   -1408.3493881495      5.84e-09  Convergence criterion met
 Total energy in the final basis set =    -1408.3493881495

                    Orbital Energies (a.u.)
 --------------------------------------------------------------

 Alpha MOs
 -- Occupied --
-19.1452 -19.0898 -19.0742 -14.2865 -10.2294 -10.2250 -10.2238 -10.2035
-10.1777 -10.1756 -10.1739 -10.1724 -10.1715 -10.1713 -10.1711 -10.1711
-10.1710 -10.1703 -10.1691 -10.1682 -10.1681 -10.1674 -10.1578 -10.1555
-10.1553 -10.1552 -10.1550 -10.1549 -10.1548 -10.1547 -10.1545 -10.1522
-10.1513  -1.0678  -1.0022  -1.0006  -0.8986  -0.8598  -0.8525  -0.8096
 -0.8067  -0.7961  -0.7784  -0.7650  -0.7515  -0.7465  -0.7442  -0.7381
 -0.7165  -0.6891  -0.6745  -0.6565  -0.6343  -0.6175  -0.6092  -0.6039
 -0.5986  -0.5789  -0.5737  -0.5729  -0.5685  -0.5663  -0.5629  -0.5388
 -0.5134  -0.5053  -0.4866  -0.4822  -0.4751  -0.4664  -0.4658  -0.4597
 -0.4548  -0.4485  -0.4427  -0.4382  -0.4362  -0.4303  -0.4282  -0.4261
 -0.4196  -0.4169  -0.4164  -0.4120  -0.4054  -0.3979  -0.3972  -0.3917
 -0.3909  -0.3872  -0.3791  -0.3762  -0.3719  -0.3676  -0.3620  -0.3574
 -0.3555  -0.3497  -0.3451  -0.3428  -0.3394  -0.3386  -0.3340  -0.3323
 -0.3287  -0.3229  -0.3211  -0.3204  -0.3175  -0.3166  -0.3152  -0.3145
 -0.2908  -0.2692  -0.2650  -0.2587  -0.2548  -0.2492  -0.2458  -0.2321
 -0.2156  -0.1545

 Beta MOs
 -- Occupied --
-19.1445 -19.0837 -19.0690 -14.2865 -10.2281 -10.2238 -10.2207 -10.2036
-10.1776 -10.1756 -10.1728 -10.1725 -10.1715 -10.1711 -10.1710 -10.1706
-10.1704 -10.1703 -10.1694 -10.1682 -10.1674 -10.1674 -10.1578 -10.1555
-10.1553 -10.1552 -10.1550 -10.1549 -10.1548 -10.1547 -10.1545 -10.1522
-10.1513  -1.0652  -0.9931  -0.9902  -0.8984  -0.8576  -0.8525  -0.8092
 -0.8041  -0.7956  -0.7779  -0.7642  -0.7493  -0.7464  -0.7441  -0.7370
 -0.7163  -0.6870  -0.6691  -0.6538  -0.6339  -0.6164  -0.6073  -0.6037
 -0.5977  -0.5786  -0.5737  -0.5716  -0.5683  -0.5662  -0.5618  -0.5369
 -0.5123  -0.5040  -0.4843  -0.4817  -0.4746  -0.4661  -0.4649  -0.4584
 -0.4546  -0.4481  -0.4421  -0.4364  -0.4327  -0.4288  -0.4253  -0.4236
 -0.4166  -0.4153  -0.4149  -0.4103  -0.4044  -0.3969  -0.3957  -0.3906
 -0.3867  -0.3811  -0.3773  -0.3752  -0.3687  -0.3622  -0.3600  -0.3551
 -0.3511  -0.3486  -0.3428  -0.3387  -0.3381  -0.3338  -0.3322  -0.3299
 -0.3280  -0.3228  -0.3211  -0.3203  -0.3175  -0.3166  -0.3151  -0.3145
 -0.2908  -0.2597  -0.2547  -0.2528  -0.2505  -0.2481  -0.2416  -0.2242
 -0.2129

          Ground-State Mulliken Net Atomic Charges

     Atom                 Charge (a.u.)    Spin (a.u.)
  --------------------------------------------------------
      1 C                    -0.041130       0.078942
      2 C                    -0.470895      -0.006294
      3 C                    -0.570310       0.072923
      4 C                     0.079626      -0.009238
      5 C                     0.431616       0.060566
      6 C                    -0.029971      -0.004190
      7 C                    -0.704596       0.189978
      8 C                    -0.485696       0.050358
      9 C                     0.993945       0.069291
     10 C                    -0.541722       0.067871
     11 O                    -0.552609       0.224257
     12 O                    -0.446528       0.198052
     13 O                    -0.254650       0.021061
     14 H                     0.197399      -0.004140
     15 H                     0.199935      -0.000064
     16 H                     0.203383      -0.005339
     17 H                     0.194792       0.000333
     18 H                     0.318755      -0.003654
     19 C                     0.115016      -0.016897
     20 C                    -0.276378      -0.016846
     21 C                     0.176941       0.008582
     22 C                    -0.343279      -0.001859
     23 C                    -0.464709      -0.002085
     24 C                    -0.251635       0.005095
     25 H                     0.172806      -0.000055
     26 H                     0.194932       0.000587
     27 H                     0.222051      -0.000030
     28 H                     0.224817       0.000242
     29 H                     0.190910      -0.000021
     30 C                     0.227084       0.018711
     31 H                     0.235490       0.001292
     32 N                     0.024199      -0.006510
     33 C                    -0.691542       0.003106
     34 C                    -0.269898       0.004973
     35 C                    -0.043493      -0.001198
     36 C                    -0.236255      -0.000497
     37 C                    -0.427658      -0.000023
     38 C                    -0.357213       0.000026
     39 C                    -0.219785      -0.000015
     40 C                    -0.071615      -0.000006
     41 C                    -0.127266       0.000000
     42 C                    -0.293512       0.000000
     43 C                    -0.240176       0.000000
     44 C                    -0.705677      -0.000000
     45 H                     0.272090       0.001472
     46 H                     0.210902       0.000989
     47 H                     0.107976       0.000716
     48 H                     0.156501      -0.000076
     49 H                     0.147450      -0.000661
     50 H                     0.119929       0.000345
     51 H                     0.135229      -0.000083
     52 H                     0.122837       0.000031
     53 H                     0.131323       0.000014
     54 H                     0.136902      -0.000034
     55 H                     0.136369       0.000001
     56 H                     0.136431      -0.000002
     57 H                     0.136485      -0.000000
     58 H                     0.133459       0.000001
     59 H                     0.133407       0.000000
     60 H                     0.132921       0.000000
     61 H                     0.132637      -0.000000
     62 H                     0.130772      -0.000000
     63 H                     0.130658      -0.000000
     64 H                     0.127310       0.000000
     65 H                     0.127964       0.000000
     66 H                     0.136285       0.000000
     67 H                     0.136270      -0.000000
     68 H                     0.145499       0.000000
     69 H                     0.151452      -0.000000
     70 H                     0.145447      -0.000000
  --------------------------------------------------------
  Sum of atomic charges =    -1.000000

                    Cartesian Multipole Moments
 -----------------------------------------------------------------
    Charge (ESU x 10^10)
                -4.8032
    Dipole Moment (Debye)
         X     -21.5777      Y      -2.3978      Z       2.5340
       Tot      21.8579
    Quadrupole Moments (Debye-Ang)
        XX    -341.6610     XY     -10.1024     YY    -210.1416
        XZ       4.0834     YZ       0.1914     ZZ    -210.0897

 Total job time:  3545.40s(wall), 22667.29s(cpu)
        *  Thank you very much for using Q-Chem.  Have a nice day.  *
