 Gaussian 16, Revision A.03,
 Gaussian 16:  ES64L-G16RevA.03 25-Dec-2016

 ----------------------------------------------------------------------
 #P UB3LYP/6-311++G(d,p) nosym opt freq SCRF=(PCM,Solvent=n,n-DiMethylF
 ormamide)
 ----------------------------------------------------------------------

 -------
 Radical
 -------
 Symbolic Z-matrix:
 Charge = -1 Multiplicity = 2

 SCF Done:  E(UB3LYP) =  -3108.95348018     A.U. after   20 cycles
 SCF Done:  E(UB3LYP) =  -3108.95393764     A.U. after   16 cycles
 SCF Done:  E(UB3LYP) =  -3108.95400735     A.U. after   15 cycles
 SCF Done:  E(UB3LYP) =  -3108.95399397     A.U. after   13 cycles
 SCF Done:  E(UB3LYP) =  -3108.95400877     A.U. after   13 cycles
 SCF Done:  E(UB3LYP) =  -3108.95401272     A.U. after   13 cycles
 Optimization completed.
    -- Stationary point found.
 Normal termination of Gaussian 16 at Sun Feb 11 15:22:32 2024.

 ----------------------------------------------------------------------
 #P Geom=AllCheck Guess=TCheck SCRF=Check GenChk UB3LYP/6-311++G(d,p) F
 req
 ----------------------------------------------------------------------

 Structure from the checkpoint file:  "321-rad.chk"
 -------
 Radical
 -------
 Charge = -1 Multiplicity = 2

                          Input orientation:
 ---------------------------------------------------------------------
 Center     Atomic      Atomic             Coordinates (Angstroms)
 Number     Number       Type             X           Y           Z
 ---------------------------------------------------------------------
      1         35           0        3.729742   -2.172933    0.620440
      2          6           0        2.237741   -0.990111    0.273442
      3          6           0        0.975327   -1.506651    0.315991
      4          6           0       -0.159671   -0.666607    0.068276
      5          6           0       -1.473129   -1.184422    0.107756
      6          6           0       -2.565590   -0.369071   -0.130499
      7          6           0       -2.374659    0.996047   -0.416456
      8          6           0       -1.095052    1.522576   -0.460074
      9          6           0        0.034122    0.712612   -0.221708
     10          6           0        1.381865    1.288119   -0.273590
     11          8           0        1.569397    2.502027   -0.528014
     12          6           0        2.553952    0.393556   -0.015294
     13          8           0        3.726394    0.842196   -0.053436
     14          1           0        0.811901   -2.554380    0.537163
     15          1           0       -1.616244   -2.237170    0.329080
     16          1           0       -3.567793   -0.781524   -0.096600
     17          1           0       -3.231584    1.634025   -0.602350
     18          1           0       -0.936723    2.571711   -0.679028
 ---------------------------------------------------------------------

 SCF Done:  E(UB3LYP) =  -3108.95401272     A.U. after    1 cycles

 Alpha  occ. eigenvalues -- -482.82389 -62.47669 -56.29688 -56.29331 -56.29309
 Alpha  occ. eigenvalues --  -19.08576 -19.08331 -10.22904 -10.22876 -10.21888
 Alpha  occ. eigenvalues --  -10.18819 -10.18397 -10.17880 -10.17733 -10.17709
 Alpha  occ. eigenvalues --  -10.17543 -10.17469  -8.68630  -6.51716  -6.50527
 Alpha  occ. eigenvalues --   -6.50463  -2.62818  -2.62487  -2.62440  -2.61494
 Alpha  occ. eigenvalues --   -2.61494  -1.02109  -0.99218  -0.87268  -0.83053
 Alpha  occ. eigenvalues --   -0.78085  -0.76103  -0.71813  -0.69332  -0.61316
 Alpha  occ. eigenvalues --   -0.60176  -0.57796  -0.51969  -0.49395  -0.48542
 Alpha  occ. eigenvalues --   -0.44916  -0.43626  -0.42900  -0.42396  -0.42022
 Alpha  occ. eigenvalues --   -0.40726  -0.38417  -0.37678  -0.36152  -0.35751
 Alpha  occ. eigenvalues --   -0.34275  -0.32461  -0.29325  -0.28985  -0.26381
 Alpha  occ. eigenvalues --   -0.26250  -0.23545  -0.22919  -0.16548
 Alpha virt. eigenvalues --   -0.04228  -0.01158  -0.00959  -0.00180   0.01021
 Alpha virt. eigenvalues --    0.01635   0.01710   0.03263   0.03425   0.04757
 Alpha virt. eigenvalues --    0.04917   0.05818   0.05902   0.06343   0.07394

  Beta  occ. eigenvalues -- -482.82390 -62.47670 -56.29689 -56.29333 -56.29310
  Beta  occ. eigenvalues --  -19.07969 -19.07688 -10.22750 -10.22718 -10.21922
  Beta  occ. eigenvalues --  -10.18783 -10.18140 -10.17873 -10.17692 -10.17650
  Beta  occ. eigenvalues --  -10.17514 -10.17432  -8.68631  -6.51717  -6.50529
  Beta  occ. eigenvalues --   -6.50464  -2.62820  -2.62489  -2.62441  -2.61496
  Beta  occ. eigenvalues --   -2.61496  -1.01041  -0.98053  -0.87014  -0.82845
  Beta  occ. eigenvalues --   -0.77908  -0.75822  -0.71626  -0.68456  -0.61125
  Beta  occ. eigenvalues --   -0.59854  -0.57425  -0.51788  -0.49140  -0.48305
  Beta  occ. eigenvalues --   -0.44751  -0.43457  -0.42250  -0.41543  -0.41226
  Beta  occ. eigenvalues --   -0.40289  -0.38261  -0.36615  -0.35628  -0.34342
  Beta  occ. eigenvalues --   -0.34173  -0.30481  -0.28925  -0.28779  -0.25665
  Beta  occ. eigenvalues --   -0.25382  -0.22972  -0.22116
  Beta virt. eigenvalues --   -0.09835  -0.03282  -0.01149  -0.00169   0.00459
  Beta virt. eigenvalues --    0.01028   0.01658   0.02623   0.03274   0.03443
  Beta virt. eigenvalues --    0.04959   0.05125   0.05819   0.05932   0.06364

 Mulliken charges and spin densities:
               1          2
     1  Br  -0.188215   0.000011
     2  C    0.687663  -0.018771
     3  C   -0.349140   0.170502
     4  C   -0.461344   0.005144
     5  C   -0.120215   0.019805
     6  C   -0.372980   0.051200
     7  C   -0.332902   0.018787
     8  C    0.175175   0.057110
     9  C    0.781664   0.027040
    10  C   -0.466697   0.093557
    11  O   -0.453465   0.229408
    12  C   -0.350210   0.134093
    13  O   -0.450841   0.236887
    14  H    0.212661  -0.015476
    15  H    0.153039   0.000578
    16  H    0.188163  -0.003741
    17  H    0.186317  -0.001805
    18  H    0.161327  -0.004330
 Sum of Mulliken charges =  -1.00000   1.00000

 Dipole moment (field-independent basis, Debye):
    X=            -14.9297    Y=             -6.3013    Z=              0.8916  Tot=             16.2296
 Quadrupole moment (field-independent basis, Debye-Ang):
   XX=           -136.5059   YY=           -106.4951   ZZ=            -93.5740
   XY=            -11.5026   XZ=              1.1812   YZ=              2.7836

  Exact polarizability: 356.341 -17.574 248.108  17.474 -31.283 117.721
 Approx polarizability: 385.466  -3.968 287.209  15.242 -35.712 133.818

                      1                      2                      3
                      A                      A                      A
 Frequencies --     74.9223                80.7038               146.7149
 Red. masses --     12.5237                 5.5415                 5.5420
 Frc consts  --      0.0414                 0.0213                 0.0703
 IR Inten    --      0.8601                 0.4642                 2.3339

                      4                      5                      6
                      A                      A                      A
 Frequencies --    159.9212               233.0211               277.4066
 Red. masses --     10.3816                19.2965                 5.6705
 Frc consts  --      0.1564                 0.6173                 0.2571
 IR Inten    --      5.3362                 0.0897                 0.5971

                      7                      8                      9
                      A                      A                      A
 Frequencies --    295.9921               335.0048               391.8512
 Red. masses --      6.5363                 5.2038                15.5335
 Frc consts  --      0.3374                 0.3441                 1.4053
 IR Inten    --      5.2560                 1.3558                 3.1123

                     10                     11                     12
                      A                      A                      A
 Frequencies --    416.7894               438.6871               507.4556
 Red. masses --      8.9721                 3.5112                 9.1389
 Frc consts  --      0.9183                 0.3981                 1.3866
 IR Inten    --     29.7909                 1.7938                 1.7380

                     13                     14                     15
                      A                      A                      A
 Frequencies --    538.3818               565.4030               587.6432
 Red. masses --      3.2394                 5.7579                 7.1064
 Frc consts  --      0.5532                 1.0845                 1.4459
 IR Inten    --     12.6436                31.1930                24.1837

                     16                     17                     18
                      A                      A                      A
 Frequencies --    655.4460               714.7342               721.2656
 Red. masses --      6.6009                 5.1037                 7.2056
 Frc consts  --      1.6708                 1.5361                 2.2086
 IR Inten    --     17.3063                 1.2884                 1.8737

                     19                     20                     21
                      A                      A                      A
 Frequencies --    755.2501               780.1944               782.7232
 Red. masses --      1.4275                 3.8036                 8.3020
 Frc consts  --      0.4797                 1.3641                 2.9968
 IR Inten    --     71.2521                 5.3307               201.2779

                     22                     23                     24
                      A                      A                      A
 Frequencies --    845.9879               879.2351               899.2959
 Red. masses --      1.4452                 1.4123                 5.4433
 Frc consts  --      0.6094                 0.6432                 2.5937
 IR Inten    --     44.9733                 3.7976                28.6868

                     25                     26                     27
                      A                      A                      A
 Frequencies --    974.4833               988.6443               997.4473
 Red. masses --      1.3689                 7.2434                 1.2939
 Frc consts  --      0.7659                 4.1713                 0.7584
 IR Inten    --      3.7111                14.4384                 0.1854

                     28                     29                     30
                      A                      A                      A
 Frequencies --   1045.9458              1122.4244              1140.5244
 Red. masses --      2.0652                 2.1063                 2.9029
 Frc consts  --      1.3312                 1.5635                 2.2248
 IR Inten    --     16.9452                 2.0545               122.2194

                     31                     32                     33
                      A                      A                      A
 Frequencies --   1171.7430              1222.7858              1249.0824
 Red. masses --      1.1821                 2.1143                 2.1856
 Frc consts  --      0.9562                 1.8626                 2.0091
 IR Inten    --      9.0281                79.3378                 1.2276

                     34                     35                     36
                      A                      A                      A
 Frequencies --   1285.0475              1356.1748              1358.4733
 Red. masses --      2.3301                 2.2596                 8.5968
 Frc consts  --      2.2671                 2.4485                 9.3474
 IR Inten    --     11.3802                82.4096                 2.6437

                     37                     38                     39
                      A                      A                      A
 Frequencies --   1451.6533              1491.6170              1511.0551
 Red. masses --      2.5439                 3.5957                 5.0589
 Frc consts  --      3.1585                 4.7135                 6.8056
 IR Inten    --    145.8771               172.1303               331.8674

                     40                     41                     42
                      A                      A                      A
 Frequencies --   1522.6292              1567.3735              1593.8984
 Red. masses --      5.7106                 8.5421                 6.0410
 Frc consts  --      7.8005                12.3641                 9.0423
 IR Inten    --    705.4624               486.1959                25.4204

                     43                     44                     45
                      A                      A                      A
 Frequencies --   1627.4806              3158.3618              3167.6093
 Red. masses --      5.7470                 1.0865                 1.0892
 Frc consts  --      8.9685                 6.3854                 6.4388
 IR Inten    --     13.3124                 2.5770                21.2019

                     46                     47                     48
                      A                      A                      A
 Frequencies --   3181.7313              3184.7035              3192.5734
 Red. masses --      1.0937                 1.0911                 1.0943
 Frc consts  --      6.5236                 6.5204                 6.5713
 IR Inten    --     31.7037                 7.2079                31.4364

 - Thermochemistry -
 -------------------
 Temperature   298.150 Kelvin.  Pressure   1.00000 Atm.
 Atom     1 has atomic number 35 and mass  78.91834

 Molecular mass:   235.94729 amu.
 Principal axes and moments of inertia in atomic units:
                           1         2         3
     Eigenvalues --  1468.042144968.549956436.57669
           X            0.88837   0.45591  -0.05426
           Y           -0.43551   0.87419   0.21478
           Z            0.14535  -0.16717   0.97515
 This molecule is an asymmetric top.
 Rotational symmetry number  1.
 Warning -- assumption of classical behavior for rotation
           may cause significant error
 Rotational temperatures (Kelvin)      0.05900     0.01743     0.01346
 Rotational constants (GHZ):           1.22935     0.36323     0.28039
 Zero-point vibrational energy     314901.9 (Joules/Mol)
                                   75.26337 (Kcal/Mol)
 Warning -- explicit consideration of  15 degrees of freedom as
           vibrations may cause significant error
 Vibrational temperatures:    107.80   116.11   211.09   230.09   335.27
          (Kelvin)            399.13   425.87   482.00   563.79   599.67
                              631.17   730.12   774.61   813.49   845.49
                              943.04  1028.34  1037.74  1086.64  1122.53
                             1126.16  1217.19  1265.02  1293.89  1402.06
                             1422.44  1435.10  1504.88  1614.92  1640.96
                             1685.88  1759.32  1797.15  1848.90  1951.23
                             1954.54  2088.61  2146.10  2174.07  2190.72
                             2255.10  2293.26  2341.58  4544.18  4557.48
                             4577.80  4582.08  4593.40

 Zero-point correction=                           0.119940 (Hartree/Particle)
 Thermal correction to Energy=                    0.130095
 Thermal correction to Enthalpy=                  0.131039
 Thermal correction to Gibbs Free Energy=         0.082163
 Sum of electronic and zero-point Energies=          -3108.834073
 Sum of electronic and thermal Energies=             -3108.823918
 Sum of electronic and thermal Enthalpies=           -3108.822974
 Sum of electronic and thermal Free Energies=        -3108.871850

                     E (Thermal)             CV                S
                      KCal/Mol        Cal/Mol-Kelvin    Cal/Mol-Kelvin
 Total                   81.636             39.027            102.869
 Electronic               0.000              0.000              1.377
 Translational            0.889              2.981             42.277
 Rotational               0.889              2.981             32.218
 Vibrational             79.858             33.066             26.996
 Vibration     1          0.599              1.966              4.020
 Vibration     2          0.600              1.962              3.874
 Vibration     3          0.617              1.906              2.714
 Vibration     4          0.622              1.891              2.551
 Vibration     5          0.654              1.790              1.856
 Vibration     6          0.678              1.715              1.550
 Vibration     7          0.690              1.681              1.439
 Vibration     8          0.716              1.606              1.236
 Vibration     9          0.759              1.488              0.993
 Vibration    10          0.780              1.434              0.903
 Vibration    11          0.799              1.386              0.831
 Vibration    12          0.863              1.233              0.640
 Vibration    13          0.893              1.165              0.569
 Vibration    14          0.921              1.106              0.513
 Vibration    15          0.945              1.058              0.471

 Optimization completed.
    -- Stationary point found.
 Normal termination of Gaussian 16 at Sun Feb 11 15:40:52 2024.
