 Gaussian 16, Revision A.03,
 Gaussian 16:  ES64L-G16RevA.03 25-Dec-2016

 --------------------------------------
 #P UB3LYP/6-311++G(d,p) nosym opt freq
 --------------------------------------

 -------
 Reduced
 -------
 Symbolic Z-matrix:
 Charge = -2 Multiplicity = 1

 SCF Done:  E(UB3LYP) =  -2994.38067087     A.U. after   35 cycles
 SCF Done:  E(UB3LYP) =  -2994.41320969     A.U. after   30 cycles
 SCF Done:  E(UB3LYP) =  -2994.42161332     A.U. after   22 cycles
 SCF Done:  E(UB3LYP) =  -2994.42208615     A.U. after   19 cycles
 SCF Done:  E(UB3LYP) =  -2994.42211752     A.U. after   22 cycles
 SCF Done:  E(UB3LYP) =  -2994.42230538     A.U. after   20 cycles
 SCF Done:  E(UB3LYP) =  -2994.42241301     A.U. after   20 cycles
 SCF Done:  E(UB3LYP) =  -2994.42271451     A.U. after   22 cycles
 SCF Done:  E(UB3LYP) =  -2994.42298901     A.U. after   19 cycles
 SCF Done:  E(UB3LYP) =  -2994.42333986     A.U. after   20 cycles
 SCF Done:  E(UB3LYP) =  -2994.42341737     A.U. after   19 cycles
 SCF Done:  E(UB3LYP) =  -2994.42343488     A.U. after   19 cycles
 SCF Done:  E(UB3LYP) =  -2994.42343702     A.U. after   19 cycles
 SCF Done:  E(UB3LYP) =  -2994.42343743     A.U. after   17 cycles
 Optimization completed.
    -- Stationary point found.
 Normal termination of Gaussian 16 at Sun Dec 17 21:21:58 2023.

 ----------------------------------------------------------------------
 #P Geom=AllCheck Guess=TCheck SCRF=Check GenChk UB3LYP/6-311++G(d,p) F
 req
 ----------------------------------------------------------------------

 Structure from the checkpoint file:  "005-an.chk"
 -------
 Reduced
 -------
 Charge = -2 Multiplicity = 1

                          Input orientation:
 ---------------------------------------------------------------------
 Center     Atomic      Atomic             Coordinates (Angstroms)
 Number     Number       Type             X           Y           Z
 ---------------------------------------------------------------------
      1          6           0        2.235457   -0.072636    0.077268
      2          6           0        0.729383    0.006396    0.026965
      3          6           0        0.081508    1.244039    0.082164
      4          6           0       -1.341025    1.418832    0.041200
      5          8           0       -1.931260    2.576362    0.093204
      6          6           0       -2.045675    0.175717   -0.063701
      7          6           0       -1.368367   -1.045283   -0.116829
      8         35           0       -2.504664   -2.684667   -0.262374
      9          6           0        0.037240   -1.259526   -0.078908
     10          8           0        0.658962   -2.392838   -0.128058
     11          1           0        2.576711   -0.682399    0.926731
     12          1           0        2.678689    0.928486    0.158114
     13          1           0        2.640802   -0.570310   -0.815937
     14          1           0        0.681929    2.152655    0.161921
     15          1           0       -3.129690    0.205172   -0.101760
 ---------------------------------------------------------------------

 SCF Done:  E(UB3LYP) =  -2994.42343743     A.U. after    1 cycles

 Alpha  occ. eigenvalues -- -482.54498 -62.19769 -56.01745 -56.01456 -56.01436
 Alpha  occ. eigenvalues --  -18.74529 -18.74000  -9.91564  -9.90958  -9.90533
 Alpha  occ. eigenvalues --   -9.90475  -9.87687  -9.86365  -9.86064  -8.40703
 Alpha  occ. eigenvalues --   -6.23645  -6.22677  -6.22614  -2.34771  -2.34505
 Alpha  occ. eigenvalues --   -2.34457  -2.33687  -2.33687  -0.65966  -0.64839
 Alpha  occ. eigenvalues --   -0.53435  -0.50598  -0.45901  -0.39887  -0.37691
 Alpha  occ. eigenvalues --   -0.28019  -0.25963  -0.18352  -0.16459  -0.15081
 Alpha  occ. eigenvalues --   -0.13307  -0.12337  -0.10105  -0.08641  -0.08264
 Alpha  occ. eigenvalues --   -0.05898  -0.05242  -0.04158  -0.02175  -0.01104
 Alpha  occ. eigenvalues --    0.04849   0.05495   0.07525   0.08171   0.15094
 Alpha virt. eigenvalues --    0.18170   0.20537   0.20871   0.22113   0.22364
 Alpha virt. eigenvalues --    0.23175   0.24967   0.25698   0.26254   0.27973
 Alpha virt. eigenvalues --    0.28306   0.28362   0.29610   0.30124   0.30828

  Beta  occ. eigenvalues -- -482.54498 -62.19769 -56.01745 -56.01456 -56.01436
  Beta  occ. eigenvalues --  -18.74529 -18.74000  -9.91564  -9.90958  -9.90533
  Beta  occ. eigenvalues --   -9.90475  -9.87687  -9.86365  -9.86064  -8.40703
  Beta  occ. eigenvalues --   -6.23645  -6.22677  -6.22614  -2.34771  -2.34505
  Beta  occ. eigenvalues --   -2.34457  -2.33687  -2.33687  -0.65966  -0.64839
  Beta  occ. eigenvalues --   -0.53435  -0.50598  -0.45901  -0.39887  -0.37691
  Beta  occ. eigenvalues --   -0.28019  -0.25963  -0.18352  -0.16459  -0.15081
  Beta  occ. eigenvalues --   -0.13307  -0.12337  -0.10105  -0.08641  -0.08264
  Beta  occ. eigenvalues --   -0.05898  -0.05242  -0.04158  -0.02175  -0.01104
  Beta  occ. eigenvalues --    0.04849   0.05495   0.07525   0.08171   0.15094
  Beta virt. eigenvalues --    0.18170   0.20537   0.20871   0.22113   0.22364
  Beta virt. eigenvalues --    0.23175   0.24967   0.25698   0.26254   0.27973
  Beta virt. eigenvalues --    0.28306   0.28362   0.29610   0.30124   0.30828

 Mulliken charges and spin densities:
               1          2
     1  C   -0.492525   0.000000
     2  C    1.930186  -0.000000
     3  C   -0.525264  -0.000000
     4  C   -0.915012  -0.000000
     5  O   -0.593579   0.000000
     6  C    0.078620   0.000000
     7  C    1.138539  -0.000000
     8  Br  -0.470798   0.000000
     9  C   -2.039340   0.000000
    10  O   -0.515520   0.000000
    11  H    0.092926   0.000000
    12  H    0.089775  -0.000000
    13  H    0.092905   0.000000
    14  H    0.012821   0.000000
    15  H    0.116263  -0.000000
 Sum of Mulliken charges =  -2.00000  -0.00000

 Dipole moment (field-independent basis, Debye):
    X=              8.3933    Y=              2.6549    Z=              0.4752  Tot=              8.8160
 Quadrupole moment (field-independent basis, Debye-Ang):
   XX=           -114.3526   YY=           -139.7606   ZZ=            -82.6290
   XY=             10.7121   XZ=             -0.4879   YZ=             -3.2556

  Exact polarizability: 225.181  11.508 198.475   3.518   3.158 155.708
 Approx polarizability: 304.771   5.546 299.713   5.823   9.235 158.277

                      1                      2                      3
                      A                      A                      A
 Frequencies --     88.7146               109.5152               154.0795
 Red. masses --      2.3368                 1.4094                 8.6574
 Frc consts  --      0.0108                 0.0100                 0.1211
 IR Inten    --      8.4655                 0.0165                 7.8088

                      4                      5                      6
                      A                      A                      A
 Frequencies --    159.7145               213.1377               225.0615
 Red. masses --     10.2131                 3.4918                18.6543
 Frc consts  --      0.1535                 0.0935                 0.5567
 IR Inten    --      5.7506                 0.0325                 0.4215

                      7                      8                      9
                      A                      A                      A
 Frequencies --    289.8645               301.5788               377.3899
 Red. masses --      3.2746                 9.4600                 9.2380
 Frc consts  --      0.1621                 0.5069                 0.7752
 IR Inten    --      1.3927                21.8792                 2.6700

                     10                     11                     12
                      A                      A                      A
 Frequencies --    460.0505               463.9414               532.9582
 Red. masses --      4.8442                 9.6787                 5.4693
 Frc consts  --      0.6041                 1.2274                 0.9153
 IR Inten    --      2.6187                 3.9671                15.9508

                     13                     14                     15
                      A                      A                      A
 Frequencies --    577.1992               619.0360               716.6121
 Red. masses --      1.7738                 4.6274                 7.0426
 Frc consts  --      0.3482                 1.0448                 2.1308
 IR Inten    --     52.4764                 2.2333                 1.1433

                     16                     17                     18
                      A                      A                      A
 Frequencies --    739.6375               753.1729               806.4582
 Red. masses --      9.0849                 1.4483                 1.7996
 Frc consts  --      2.9282                 0.4841                 0.6896
 IR Inten    --    165.7145                 1.2071                64.0541

                     19                     20                     21
                      A                      A                      A
 Frequencies --    810.9001               956.5614               998.1555
 Red. masses --      5.7366                 2.6619                 1.9381
 Frc consts  --      2.2225                 1.4350                 1.1377
 IR Inten    --     45.9893                20.1848                23.8657

                     22                     23                     24
                      A                      A                      A
 Frequencies --   1033.9383              1064.6970              1156.9831
 Red. masses --      1.4379                 2.6511                 4.2866
 Frc consts  --      0.9056                 1.7706                 3.3808
 IR Inten    --      8.9450               109.2620               137.0054

                     25                     26                     27
                      A                      A                      A
 Frequencies --   1205.1733              1276.0115              1350.4095
 Red. masses --      1.5874                 2.3619                 5.0643
 Frc consts  --      1.3585                 2.2658                 5.4412
 IR Inten    --     75.5762               174.0298                 3.9361

                     28                     29                     30
                      A                      A                      A
 Frequencies --   1370.8462              1397.6657              1428.6618
 Red. masses --      1.4545                 5.5851                 5.8493
 Frc consts  --      1.6104                 6.4282                 7.0342
 IR Inten    --     30.9262               135.3438                84.7317

                     31                     32                     33
                      A                      A                      A
 Frequencies --   1442.9820              1456.3337              1484.5358
 Red. masses --      1.0517                 3.9525                 1.1657
 Frc consts  --      1.2903                 4.9391                 1.5137
 IR Inten    --      9.6021               813.1716               143.8458

                     34                     35                     36
                      A                      A                      A
 Frequencies --   1600.7724              2953.8229              2963.9411
 Red. masses --      6.8942                 1.0338                 1.0983
 Frc consts  --     10.4086                 5.3143                 5.6848
 IR Inten    --     46.0289               296.7312               498.0909

                     37                     38                     39
                      A                      A                      A
 Frequencies --   3020.4883              3071.0999              3151.9270
 Red. masses --      1.1000                 1.0865                 1.0885
 Frc consts  --      5.9127                 6.0377                 6.3714
 IR Inten    --     52.4412               133.0721                33.4385

 - Thermochemistry -
 -------------------
 Temperature   298.150 Kelvin.  Pressure   1.00000 Atm.
 Atom     1 has atomic number  6 and mass  12.00000

 Molecular mass:   199.94729 amu.
 Principal axes and moments of inertia in atomic units:
                           1         2         3
     Eigenvalues --  1313.931132742.609134045.55044
           X            0.54133   0.84002  -0.03649
           Y            0.83763  -0.54255  -0.06343
           Z            0.07308  -0.00377   0.99732
 This molecule is an asymmetric top.
 Rotational symmetry number  1.
 Warning -- assumption of classical behavior for rotation
           may cause significant error
 Rotational temperatures (Kelvin)      0.06592     0.03158     0.02141
 Rotational constants (GHZ):           1.37354     0.65804     0.44611
 Zero-point vibrational energy     255905.3 (Joules/Mol)
                                   61.16284 (Kcal/Mol)
 Warning -- explicit consideration of  14 degrees of freedom as
           vibrations may cause significant error
 Vibrational temperatures:    127.64   157.57   221.69   229.79   306.66
          (Kelvin)            323.81   417.05   433.90   542.98   661.91
                              667.51   766.81   830.46   890.65  1031.04
                             1064.17  1083.65  1160.31  1166.70  1376.28
                             1436.12  1487.61  1531.86  1664.64  1733.98
                             1835.90  1942.94  1972.34  2010.93  2055.53
                             2076.13  2095.34  2135.92  2303.15  4249.89
                             4264.45  4345.81  4418.63  4534.92

 Zero-point correction=                           0.097469 (Hartree/Particle)
 Thermal correction to Energy=                    0.107006
 Thermal correction to Enthalpy=                  0.107950
 Thermal correction to Gibbs Free Energy=         0.061549
 Sum of electronic and zero-point Energies=          -2994.325968
 Sum of electronic and thermal Energies=             -2994.316431
 Sum of electronic and thermal Enthalpies=           -2994.315487
 Sum of electronic and thermal Free Energies=        -2994.361889

                     E (Thermal)             CV                S
                      KCal/Mol        Cal/Mol-Kelvin    Cal/Mol-Kelvin
 Total                   67.147             34.442             97.661
 Electronic               0.000              0.000              0.000
 Translational            0.889              2.981             41.783
 Rotational               0.889              2.981             31.056
 Vibrational             65.370             28.481             24.821
 Vibration     1          0.602              1.957              3.688
 Vibration     2          0.606              1.942              3.277
 Vibration     3          0.620              1.898              2.621
 Vibration     4          0.622              1.892              2.553
 Vibration     5          0.644              1.821              2.017
 Vibration     6          0.650              1.803              1.918
 Vibration     7          0.686              1.693              1.475
 Vibration     8          0.694              1.671              1.408
 Vibration     9          0.748              1.518              1.050
 Vibration    10          0.818              1.339              0.766
 Vibration    11          0.821              1.330              0.755
 Vibration    12          0.888              1.177              0.581
 Vibration    13          0.934              1.081              0.491
 Vibration    14          0.979              0.992              0.418

 Optimization completed.
    -- Stationary point found.
 Normal termination of Gaussian 16 at Sun Dec 17 21:30:50 2023.
