 Gaussian 16, Revision A.03,
 Gaussian 16:  ES64L-G16RevA.03 25-Dec-2016

 ----------------------------------------------------------------------
 #P UB3LYP/6-311++G(d,p) nosym opt freq SCRF=(PCM,Solvent=n,n-DiMethylF
 ormamide)
 ----------------------------------------------------------------------

 -------
 Reduced
 -------
 Symbolic Z-matrix:
 Charge = -2 Multiplicity = 1

 SCF Done:  E(UB3LYP) =  -801.508381147     A.U. after   20 cycles
 SCF Done:  E(UB3LYP) =  -801.511160021     A.U. after   16 cycles
 SCF Done:  E(UB3LYP) =  -801.510855960     A.U. after   16 cycles
 SCF Done:  E(UB3LYP) =  -801.511467373     A.U. after   14 cycles
 SCF Done:  E(UB3LYP) =  -801.511776825     A.U. after   14 cycles
 SCF Done:  E(UB3LYP) =  -801.511940099     A.U. after   14 cycles
 SCF Done:  E(UB3LYP) =  -801.512015795     A.U. after   15 cycles
 SCF Done:  E(UB3LYP) =  -801.512068757     A.U. after   16 cycles
 SCF Done:  E(UB3LYP) =  -801.512122539     A.U. after   14 cycles
 SCF Done:  E(UB3LYP) =  -801.512132442     A.U. after   12 cycles
 SCF Done:  E(UB3LYP) =  -801.512137162     A.U. after   14 cycles
 SCF Done:  E(UB3LYP) =  -801.512138487     A.U. after   11 cycles
 SCF Done:  E(UB3LYP) =  -801.512140242     A.U. after   13 cycles
 SCF Done:  E(UB3LYP) =  -801.512140702     A.U. after   13 cycles
 Optimization completed.
    -- Stationary point found.
 Normal termination of Gaussian 16 at Sun Feb 11 17:13:18 2024.

 ----------------------------------------------------------------------
 #P Geom=AllCheck Guess=TCheck SCRF=Check GenChk UB3LYP/6-311++G(d,p) F
 req
 ----------------------------------------------------------------------

 Structure from the checkpoint file:  "336-an.chk"
 -------
 Reduced
 -------
 Charge = -2 Multiplicity = 1

                          Input orientation:
 ---------------------------------------------------------------------
 Center     Atomic      Atomic             Coordinates (Angstroms)
 Number     Number       Type             X           Y           Z
 ---------------------------------------------------------------------
      1          8           0        0.072343    0.638952    2.710869
      2          6           0        0.066858    0.461140    1.359634
      3          6           0       -1.179280    0.253999    0.689652
      4          6           0       -2.425943    0.181804    1.386607
      5          6           0       -3.610178   -0.057103    0.700488
      6          6           0       -3.624263   -0.254494   -0.696069
      7          6           0       -2.406541   -0.202290   -1.390359
      8          6           0       -1.230909    0.053857   -0.705960
      9          8           0       -0.069795    0.211608   -1.469935
     10          6           0        1.162167    0.027284   -0.814806
     11          6           0        2.249270   -0.272492   -1.594264
     12          6           0        3.558257   -0.327479   -1.021769
     13          6           0        3.680368   -0.092616    0.347226
     14          6           0        2.569103    0.179493    1.151345
     15          6           0        1.239558    0.252219    0.604441
     16          8           0       -2.400566    0.372041    2.748206
     17          1           0       -4.539579   -0.095092    1.261255
     18          1           0       -4.547037   -0.439124   -1.232383
     19          8           0       -2.390412   -0.374095   -2.769295
     20          1           0        2.100861   -0.426384   -2.659004
     21          1           0        4.421171   -0.536318   -1.643117
     22          1           0        4.665111   -0.122368    0.808842
     23          1           0        2.694100    0.353284    2.213380
     24          1           0       -1.373774    0.513630    2.938213
     25          1           0       -1.468015   -0.306614   -3.051373
 ---------------------------------------------------------------------

 SCF Done:  E(UB3LYP) =  -801.512140702     A.U. after    1 cycles

 Alpha  occ. eigenvalues --  -19.14149 -19.13451 -19.08418 -19.02319 -10.20216
 Alpha  occ. eigenvalues --  -10.20160 -10.19683 -10.18894 -10.15278 -10.14488
 Alpha  occ. eigenvalues --  -10.14274 -10.14174 -10.14115 -10.13999 -10.13774
 Alpha  occ. eigenvalues --  -10.12859 -10.12554  -1.05786  -1.03165  -0.99615
 Alpha  occ. eigenvalues --   -0.91105  -0.82099  -0.81135  -0.74148  -0.72852
 Alpha  occ. eigenvalues --   -0.70631  -0.69224  -0.62403  -0.61284  -0.57110
 Alpha  occ. eigenvalues --   -0.56003  -0.52544  -0.52302  -0.50565  -0.48483
 Alpha  occ. eigenvalues --   -0.44910  -0.44602  -0.43402  -0.42780  -0.40522
 Alpha  occ. eigenvalues --   -0.39386  -0.38843  -0.37901  -0.37677  -0.36650
 Alpha  occ. eigenvalues --   -0.36587  -0.35639  -0.34560  -0.32929  -0.32687
 Alpha  occ. eigenvalues --   -0.32008  -0.30173  -0.29634  -0.27631  -0.22909
 Alpha  occ. eigenvalues --   -0.21663  -0.21019  -0.20784  -0.17732  -0.07940
 Alpha virt. eigenvalues --   -0.00012   0.00373   0.00828   0.01183   0.01987
 Alpha virt. eigenvalues --    0.02120   0.02737   0.04070   0.04364   0.04685
 Alpha virt. eigenvalues --    0.04751   0.05202   0.06693   0.07061   0.07443

  Beta  occ. eigenvalues --  -19.14149 -19.13451 -19.08418 -19.02319 -10.20216
  Beta  occ. eigenvalues --  -10.20160 -10.19683 -10.18894 -10.15278 -10.14488
  Beta  occ. eigenvalues --  -10.14274 -10.14174 -10.14115 -10.13999 -10.13774
  Beta  occ. eigenvalues --  -10.12859 -10.12554  -1.05786  -1.03165  -0.99615
  Beta  occ. eigenvalues --   -0.91105  -0.82099  -0.81135  -0.74148  -0.72852
  Beta  occ. eigenvalues --   -0.70631  -0.69224  -0.62403  -0.61284  -0.57110
  Beta  occ. eigenvalues --   -0.56003  -0.52544  -0.52302  -0.50565  -0.48483
  Beta  occ. eigenvalues --   -0.44910  -0.44602  -0.43402  -0.42780  -0.40522
  Beta  occ. eigenvalues --   -0.39386  -0.38843  -0.37901  -0.37677  -0.36650
  Beta  occ. eigenvalues --   -0.36587  -0.35639  -0.34560  -0.32929  -0.32687
  Beta  occ. eigenvalues --   -0.32008  -0.30173  -0.29634  -0.27631  -0.22909
  Beta  occ. eigenvalues --   -0.21663  -0.21019  -0.20784  -0.17732  -0.07940
  Beta virt. eigenvalues --   -0.00012   0.00373   0.00828   0.01183   0.01987
  Beta virt. eigenvalues --    0.02120   0.02737   0.04070   0.04364   0.04685
  Beta virt. eigenvalues --    0.04751   0.05202   0.06693   0.07061   0.07443

 Mulliken charges and spin densities:
               1          2
     1  O   -0.756825   0.000000
     2  C    0.104234  -0.000000
     3  C    1.068812  -0.000000
     4  C   -0.240023   0.000000
     5  C   -0.250856  -0.000000
     6  C   -0.057427   0.000000
     7  C   -0.745726   0.000000
     8  C   -0.608104  -0.000000
     9  O   -0.240130   0.000000
    10  C   -0.989980  -0.000000
    11  C   -0.379655  -0.000000
    12  C   -0.470686  -0.000000
    13  C   -0.245336   0.000000
    14  C   -0.192967  -0.000000
    15  C    1.300358   0.000000
    16  O   -0.503149   0.000000
    17  H    0.158537   0.000000
    18  H    0.169336   0.000000
    19  O   -0.338890  -0.000000
    20  H    0.138064   0.000000
    21  H    0.140261  -0.000000
    22  H    0.137676   0.000000
    23  H    0.141649   0.000000
    24  H    0.369211   0.000000
    25  H    0.291614  -0.000000
 Sum of Mulliken charges =  -2.00000   0.00000

 Dipole moment (field-independent basis, Debye):
    X=              2.7962    Y=             -2.3053    Z=             -9.6128  Tot=             10.2732
 Quadrupole moment (field-independent basis, Debye-Ang):
   XX=           -155.8715   YY=           -114.7666   ZZ=           -148.7019
   XY=              0.0549   XZ=              2.5744   YZ=             -6.9825

  Exact polarizability: 733.599  -6.833 171.412 -16.913  26.569 312.638
 Approx polarizability: 790.024  -8.067 185.467 -21.207  36.281 366.390

                      1                      2                      3
                      A                      A                      A
 Frequencies --     47.7154                84.4801               140.3342
 Red. masses --      6.9291                 6.5066                 6.6383
 Frc consts  --      0.0093                 0.0274                 0.0770
 IR Inten    --      2.3207                 1.5200                 1.0098

                      4                      5                      6
                      A                      A                      A
 Frequencies --    150.8661               177.3761               244.9002
 Red. masses --      7.0988                 5.9022                 6.5361
 Frc consts  --      0.0952                 0.1094                 0.2310
 IR Inten    --      0.8000                 3.5662                 4.0973

                      7                      8                      9
                      A                      A                      A
 Frequencies --    254.4061               287.2476               311.3383
 Red. masses --      6.3101                 5.9682                 5.7512
 Frc consts  --      0.2406                 0.2901                 0.3285
 IR Inten    --      1.8199                45.6119                50.1909

                     10                     11                     12
                      A                      A                      A
 Frequencies --    330.5993               361.8063               369.3411
 Red. masses --      4.5925                 8.4127                 1.1772
 Frc consts  --      0.2957                 0.6488                 0.0946
 IR Inten    --     12.2934                 0.5645               149.9584

                     13                     14                     15
                      A                      A                      A
 Frequencies --    385.1101               433.6274               468.7682
 Red. masses --      6.2908                 7.1764                 8.0617
 Frc consts  --      0.5497                 0.7950                 1.0437
 IR Inten    --     23.4934                15.4721                 3.8149

                     16                     17                     18
                      A                      A                      A
 Frequencies --    477.8069               515.0127               519.7739
 Red. masses --      4.5955                 6.0347                 5.7089
 Frc consts  --      0.6181                 0.9431                 0.9087
 IR Inten    --      8.7858                40.6518                24.0912

                     19                     20                     21
                      A                      A                      A
 Frequencies --    530.4797               554.4494               582.4676
 Red. masses --      6.7152                 4.2597                 2.2371
 Frc consts  --      1.1134                 0.7715                 0.4472
 IR Inten    --     27.4947                67.0190                23.4484

                     22                     23                     24
                      A                      A                      A
 Frequencies --    626.7575               632.7644               634.4718
 Red. masses --      6.4554                 1.3017                 4.7053
 Frc consts  --      1.4941                 0.3071                 1.1160
 IR Inten    --     13.3668               113.3910                36.2456

                     25                     26                     27
                      A                      A                      A
 Frequencies --    651.9517               674.0487               685.8724
 Red. masses --      6.4040                 3.9612                 2.8705
 Frc consts  --      1.6037                 1.0604                 0.7956
 IR Inten    --     31.7990                42.9128                13.0131

                     28                     29                     30
                      A                      A                      A
 Frequencies --    704.8884               734.6646               737.7568
 Red. masses --      2.8569                 1.7600                 8.0562
 Frc consts  --      0.8364                 0.5597                 2.5835
 IR Inten    --     20.6217                81.2942               266.2503

                     31                     32                     33
                      A                      A                      A
 Frequencies --    799.7973               833.9480               850.4791
 Red. masses --      6.6036                 1.3817                 1.2997
 Frc consts  --      2.4888                 0.5662                 0.5539
 IR Inten    --    889.7621                42.9778                17.6111

                     34                     35                     36
                      A                      A                      A
 Frequencies --    879.9030               927.2275               970.2541
 Red. masses --      7.0493                 1.2436                 6.4944
 Frc consts  --      3.2156                 0.6299                 3.6021
 IR Inten    --    127.2949                 1.8077               286.0144

                     37                     38                     39
                      A                      A                      A
 Frequencies --    994.8493              1028.6008              1069.5041
 Red. masses --      3.8286                 2.0928                 2.3870
 Frc consts  --      2.2326                 1.3046                 1.6087
 IR Inten    --     92.1134               335.0949               241.1743

                     40                     41                     42
                      A                      A                      A
 Frequencies --   1076.8164              1113.7046              1122.5379
 Red. masses --      1.0476                 1.5639                 2.2422
 Frc consts  --      0.7157                 1.1429                 1.6646
 IR Inten    --    118.3255               123.9054               341.9080

                     43                     44                     45
                      A                      A                      A
 Frequencies --   1138.4533              1144.9137              1192.2754
 Red. masses --      2.1028                 1.7776                 1.9813
 Frc consts  --      1.6058                 1.3729                 1.6594
 IR Inten    --     87.1484               416.3353               239.1435

                     46                     47                     48
                      A                      A                      A
 Frequencies --   1231.1780              1255.2934              1272.7048
 Red. masses --      2.6206                 2.6609                 2.7003
 Frc consts  --      2.3404                 2.4704                 2.5770
 IR Inten    --    269.8479               149.0792               414.9914

                     49                     50                     51
                      A                      A                      A
 Frequencies --   1320.8563              1336.4448              1356.6735
 Red. masses --      3.4953                 3.4035                 2.8920
 Frc consts  --      3.5929                 3.5816                 3.1362
 IR Inten    --    925.1474              2570.0399               753.6486

                     52                     53                     54
                      A                      A                      A
 Frequencies --   1377.7725              1407.9738              1455.7505
 Red. masses --      3.6071                 4.4529                 2.8356
 Frc consts  --      4.0342                 5.2010                 3.5406
 IR Inten    --    116.2379              2396.7543               263.9198

                     55                     56                     57
                      A                      A                      A
 Frequencies --   1470.4513              1500.9095              1507.4830
 Red. masses --      3.8493                 3.5996                 3.6896
 Frc consts  --      4.9038                 4.7777                 4.9401
 IR Inten    --    272.8900               408.8843               589.7550

                     58                     59                     60
                      A                      A                      A
 Frequencies --   1561.6239              1576.9630              1618.3237
 Red. masses --      4.2133                 6.5729                 1.9375
 Frc consts  --      6.0537                 9.6305                 2.9897
 IR Inten    --    474.2570                67.7873               484.7190

                     61                     62                     63
                      A                      A                      A
 Frequencies --   1661.6884              2186.5611              3121.4653
 Red. masses --      4.1349                 1.0893                 1.0864
 Frc consts  --      6.7269                 3.0686                 6.2366
 IR Inten    --     24.6291              1550.0752               114.7643

                     64                     65                     66
                      A                      A                      A
 Frequencies --   3147.8544              3149.0229              3173.3698
 Red. masses --      1.0877                 1.0878                 1.0903
 Frc consts  --      6.3505                 6.3556                 6.4691
 IR Inten    --     32.4629                95.9829                45.2033

                     67                     68                     69
                      A                      A                      A
 Frequencies --   3179.5398              3185.1796              3768.5571
 Red. masses --      1.0922                 1.0918                 1.0655
 Frc consts  --      6.5055                 6.5264                 8.9159
 IR Inten    --     28.9947                 5.7992                87.0010

 - Thermochemistry -
 -------------------
 Temperature   298.150 Kelvin.  Pressure   1.00000 Atm.
 Atom     1 has atomic number  8 and mass  15.99491

 Molecular mass:   228.04226 amu.
 Principal axes and moments of inertia in atomic units:
                           1         2         3
     Eigenvalues --  2194.269764445.041506592.27434
           X            0.99899   0.04492  -0.00267
           Y           -0.00417   0.15147   0.98845
           Z           -0.04481   0.98744  -0.15150
 This molecule is an asymmetric top.
 Rotational symmetry number  1.
 Warning -- assumption of classical behavior for rotation
           may cause significant error
 Rotational temperatures (Kelvin)      0.03947     0.01949     0.01314
 Rotational constants (GHZ):           0.82248     0.40601     0.27377
 Zero-point vibrational energy     456243.7 (Joules/Mol)
                                  109.04486 (Kcal/Mol)
 Warning -- explicit consideration of  21 degrees of freedom as
           vibrations may cause significant error
 Vibrational temperatures:     68.65   121.55   201.91   217.06   255.20
          (Kelvin)            352.36   366.03   413.29   447.95   475.66
                              520.56   531.40   554.09   623.89   674.45
                              687.46   740.99   747.84   763.24   797.73
                              838.04   901.76   910.41   912.86   938.01
                              969.81   986.82  1014.18  1057.02  1061.47
                             1150.73  1199.87  1223.65  1265.98  1334.07
                             1395.98  1431.37  1479.93  1538.78  1549.30
                             1602.37  1615.08  1637.98  1647.28  1715.42
                             1771.39  1806.09  1831.14  1900.42  1922.85
                             1951.95  1982.31  2025.76  2094.50  2115.65
                             2159.47  2168.93  2246.83  2268.90  2328.41
                             2390.80  3145.97  4491.09  4529.06  4530.74
                             4565.77  4574.65  4582.76  5422.11

 Zero-point correction=                           0.173774 (Hartree/Particle)
 Thermal correction to Energy=                    0.186899
 Thermal correction to Enthalpy=                  0.187843
 Thermal correction to Gibbs Free Energy=         0.134624
 Sum of electronic and zero-point Energies=           -801.338367
 Sum of electronic and thermal Energies=              -801.325241
 Sum of electronic and thermal Enthalpies=            -801.324297
 Sum of electronic and thermal Free Energies=         -801.377516

                     E (Thermal)             CV                S
                      KCal/Mol        Cal/Mol-Kelvin    Cal/Mol-Kelvin
 Total                  117.281             53.837            112.009
 Electronic               0.000              0.000              0.000
 Translational            0.889              2.981             42.175
 Rotational               0.889              2.981             32.530
 Vibrational            115.504             47.875             37.304
 Vibration     1          0.595              1.978              4.910
 Vibration     2          0.601              1.960              3.784
 Vibration     3          0.615              1.913              2.799
 Vibration     4          0.618              1.902              2.661
 Vibration     5          0.628              1.870              2.356
 Vibration     6          0.660              1.771              1.767
 Vibration     7          0.665              1.755              1.700
 Vibration     8          0.684              1.697              1.490
 Vibration     9          0.700              1.652              1.355
 Vibration    10          0.713              1.614              1.257
 Vibration    11          0.736              1.551              1.114
 Vibration    12          0.742              1.535              1.083
 Vibration    13          0.754              1.502              1.019
 Vibration    14          0.794              1.397              0.847
 Vibration    15          0.826              1.319              0.741
 Vibration    16          0.834              1.299              0.716
 Vibration    17          0.870              1.217              0.622
 Vibration    18          0.875              1.206              0.610
 Vibration    19          0.885              1.183              0.586
 Vibration    20          0.910              1.130              0.535
 Vibration    21          0.939              1.069              0.481

 Optimization completed.
    -- Stationary point found.
 Normal termination of Gaussian 16 at Sun Feb 11 18:13:23 2024.
