 Q-Chem 5.4, Q-Chem, Inc., Pleasanton, CA (2021)
 Q-Chem 5.4.0 for Intel X86 EM64T Linux

User input:
--------------------------------------------------------------
$molecule
0 1
C                  3.9276500000      1.2700870000     -1.3009740000
N                  2.5310420000      1.0589270000     -0.9840590000
C                  2.0496970000      0.0024160000     -0.2831400000
C                  2.9282310000     -1.0011840000      0.1990080000
C                  2.4534050000     -2.0829020000      0.9139140000
C                  1.0902300000     -2.2237120000      1.1855820000
C                  0.2003730000     -1.2613190000      0.7297220000
C                 -1.2483170000     -1.4623440000      1.0491730000
O                 -1.6280700000     -2.4338720000      1.6840760000
C                 -2.2100590000     -0.4368560000      0.5655120000
C                 -3.5729420000     -0.5862430000      0.8421580000
C                 -4.4826550000      0.3642590000      0.3964370000
C                 -4.0358880000      1.4721940000     -0.3298920000
C                 -2.6831420000      1.6268130000     -0.6083230000
C                 -1.7599740000      0.6744500000     -0.1633690000
C                 -0.3132120000      0.8679020000     -0.4782810000
O                  0.0276030000      1.8672440000     -1.1249890000
C                  0.6470010000     -0.1345500000     -0.0082850000
H                  4.3377240000      0.4590190000     -1.9140450000
H                  4.5441830000      1.3660340000     -0.3995900000
H                  4.0121970000      2.1969310000     -1.8676490000
H                  1.8313980000      1.7276960000     -1.2893780000
H                  3.9885890000     -0.9164990000      0.0023200000
H                  3.1530040000     -2.8322590000      1.2679020000
H                  0.7068690000     -3.0666830000      1.7444340000
H                 -3.8925160000     -1.4535080000      1.4065590000
H                 -5.5386140000      0.2465940000      0.6119260000
H                 -4.7462620000      2.2138460000     -0.6775920000
H                 -2.3175430000      2.4775170000     -1.1691550000
$end
$rem
MAX_SCF_CYCLES=200
BASIS  =  6-311++G(d,p)
GUI  =  2
JOB_TYPE  =  SP
METHOD  =  B3LYP
SOLVENT_METHOD = PCM
$end
$pcm
theory = CPCM
$end
$solvent
dielectric 37.219
opticaldielectric 1.43
$end

--------------------------------------------------------------

             Standard Nuclear Orientation (Angstroms)
    I     Atom           X                Y                Z
 ----------------------------------------------------------------
    1      C       3.9276500000     1.2700870000    -1.3009740000
    2      N       2.5310420000     1.0589270000    -0.9840590000
    3      C       2.0496970000     0.0024160000    -0.2831400000
    4      C       2.9282310000    -1.0011840000     0.1990080000
    5      C       2.4534050000    -2.0829020000     0.9139140000
    6      C       1.0902300000    -2.2237120000     1.1855820000
    7      C       0.2003730000    -1.2613190000     0.7297220000
    8      C      -1.2483170000    -1.4623440000     1.0491730000
    9      O      -1.6280700000    -2.4338720000     1.6840760000
   10      C      -2.2100590000    -0.4368560000     0.5655120000
   11      C      -3.5729420000    -0.5862430000     0.8421580000
   12      C      -4.4826550000     0.3642590000     0.3964370000
   13      C      -4.0358880000     1.4721940000    -0.3298920000
   14      C      -2.6831420000     1.6268130000    -0.6083230000
   15      C      -1.7599740000     0.6744500000    -0.1633690000
   16      C      -0.3132120000     0.8679020000    -0.4782810000
   17      O       0.0276030000     1.8672440000    -1.1249890000
   18      C       0.6470010000    -0.1345500000    -0.0082850000
   19      H       4.3377240000     0.4590190000    -1.9140450000
   20      H       4.5441830000     1.3660340000    -0.3995900000
   21      H       4.0121970000     2.1969310000    -1.8676490000
   22      H       1.8313980000     1.7276960000    -1.2893780000
   23      H       3.9885890000    -0.9164990000     0.0023200000
   24      H       3.1530040000    -2.8322590000     1.2679020000
   25      H       0.7068690000    -3.0666830000     1.7444340000
   26      H      -3.8925160000    -1.4535080000     1.4065590000
   27      H      -5.5386140000     0.2465940000     0.6119260000
   28      H      -4.7462620000     2.2138460000    -0.6775920000
   29      H      -2.3175430000     2.4775170000    -1.1691550000
 ----------------------------------------------------------------

    9    -783.6676202065      2.01e-06  Convergence criterion met
 Total energy in the final basis set =     -783.6676202065

                    Orbital Energies (a.u.)
 --------------------------------------------------------------

 Alpha MOs
 -- Occupied --
-19.1267 -19.1236 -14.3374 -10.2789 -10.2758 -10.2425 -10.2044 -10.2038
-10.2027 -10.2004 -10.1993 -10.1943 -10.1938 -10.1938 -10.1931 -10.1922
-10.1874 -10.1832  -1.0624  -1.0568  -0.9540  -0.8871  -0.8677  -0.8071
 -0.7746  -0.7682  -0.7654  -0.7011  -0.6846  -0.6566  -0.6429  -0.6060
 -0.5879  -0.5573  -0.5501  -0.5240  -0.5013  -0.4923  -0.4823  -0.4698
 -0.4617  -0.4584  -0.4544  -0.4470  -0.4428  -0.4376  -0.4264  -0.4148
 -0.3999  -0.3899  -0.3845  -0.3836  -0.3702  -0.3672  -0.3633  -0.3178
 -0.2867  -0.2842  -0.2752  -0.2726  -0.2709  -0.2188

          Ground-State Mulliken Net Atomic Charges

     Atom                 Charge (a.u.)
  ----------------------------------------
      1 C                    -0.381794
      2 N                    -0.277109
      3 C                     0.098475
      4 C                     0.018578
      5 C                    -0.452801
      6 C                     0.050773
      7 C                     0.576379
      8 C                    -0.558054
      9 O                    -0.295717
     10 C                     0.044631
     11 C                     0.103764
     12 C                    -0.459632
     13 C                    -0.454743
     14 C                     0.153052
     15 C                    -0.021732
     16 C                    -0.252537
     17 O                    -0.330651
     18 C                     0.043115
     19 H                     0.178115
     20 H                     0.177951
     21 H                     0.180582
     22 H                     0.409121
     23 H                     0.213538
     24 H                     0.230970
     25 H                     0.181276
     26 H                     0.189891
     27 H                     0.219159
     28 H                     0.222398
     29 H                     0.193003
  ----------------------------------------
  Sum of atomic charges =     0.000000

                    Cartesian Multipole Moments
 -----------------------------------------------------------------
    Charge (ESU x 10^10)
                 0.0000
    Dipole Moment (Debye)
         X       2.8508      Y       1.8806      Z      -1.5182
       Tot       3.7375
    Quadrupole Moments (Debye-Ang)
        XX     -69.6404     XY      -8.2775     YY    -109.4345
        XZ      -0.3203     YZ       1.8711     ZZ    -109.2969

 Total job time:  182.29s(wall), 361.57s(cpu)
        *  Thank you very much for using Q-Chem.  Have a nice day.  *
