 Gaussian 16, Revision A.03,
 Gaussian 16:  ES64L-G16RevA.03 25-Dec-2016

 ----------------------------------------------------------------
 #P UB3LYP/6-311++G(d,p) SCRF=(PCM,Solvent=n,n-DiMethylFormamide)
 ----------------------------------------------------------------

 ------------------
 Radical PCM in DMF
 ------------------
 Symbolic Z-matrix:
 Charge = -1 Multiplicity = 2

                         Standard orientation:
 ---------------------------------------------------------------------
 Center     Atomic      Atomic             Coordinates (Angstroms)
 Number     Number       Type             X           Y           Z
 ---------------------------------------------------------------------
      1          6           0       -0.792583    1.237429   -0.001223
      2          6           0        0.661783    1.225169   -0.000371
      3          6           0        1.459165    0.108258   -0.000353
      4          6           0        0.820789   -1.214466    0.000186
      5          6           0       -0.628290   -1.230716   -0.000143
      6          6           0       -1.374908   -0.089235   -0.000493
      7         35           0       -3.308980   -0.215740    0.000184
      8          6           0        2.995594    0.199435    0.000239
      9          6           0        3.559176   -0.495377    1.263813
     10          6           0        3.499055    1.655246    0.000118
     11          6           0        3.560146   -0.495468   -1.262977
     12          8           0       -1.448690    2.307759    0.000257
     13          8           0        1.464865   -2.303004   -0.000574
     14          1           0        1.090628    2.220030   -0.000137
     15          1           0       -1.092329   -2.209464    0.000196
     16          1           0        3.196120    0.003728    2.168314
     17          1           0        4.655271   -0.446209    1.266079
     18          1           0        3.250158   -1.539807    1.294036
     19          1           0        3.162273    2.203393    0.884843
     20          1           0        3.163992    2.202709   -0.885700
     21          1           0        4.594426    1.659275    0.001200
     22          1           0        3.252354   -1.540288   -1.292440
     23          1           0        4.656190   -0.444712   -1.265367
     24          1           0        3.196257    0.002547   -2.167719
 ---------------------------------------------------------------------

 SCF Done:  E(UB3LYP) =  -3112.56369290     A.U. after   19 cycles

 The electronic state is 2-A.
 Alpha  occ. eigenvalues -- -482.82340 -62.47620 -56.29636 -56.29285 -56.29261
 Alpha  occ. eigenvalues --  -19.08324 -19.07987 -10.23066 -10.22597 -10.21792
 Alpha  occ. eigenvalues --  -10.18401 -10.17620 -10.17221 -10.16404 -10.15174
 Alpha  occ. eigenvalues --  -10.14694 -10.14694  -8.68579  -6.51654  -6.50483
 Alpha  occ. eigenvalues --   -6.50417  -2.62760  -2.62434  -2.62385  -2.61452
 Alpha  occ. eigenvalues --   -2.61452  -1.00870  -1.00237  -0.84484  -0.81924
 Alpha  occ. eigenvalues --   -0.77785  -0.72486  -0.68572  -0.67681  -0.67642
 Alpha  occ. eigenvalues --   -0.60436  -0.57691  -0.52660  -0.48741  -0.47075
 Alpha  occ. eigenvalues --   -0.44324  -0.43808  -0.43396  -0.42282  -0.41843
 Alpha  occ. eigenvalues --   -0.41009  -0.39299  -0.38467  -0.37137  -0.36949
 Alpha  occ. eigenvalues --   -0.36545  -0.35564  -0.33499  -0.32824  -0.32118
 Alpha  occ. eigenvalues --   -0.32115  -0.28783  -0.27694  -0.24895  -0.24808
 Alpha  occ. eigenvalues --   -0.23857  -0.16652
 Alpha virt. eigenvalues --   -0.01362  -0.01097  -0.00307   0.01006   0.01579
 Alpha virt. eigenvalues --    0.01607   0.02787   0.02876   0.03449   0.04079
 Alpha virt. eigenvalues --    0.04296   0.04869   0.05415   0.05662   0.06451

  Beta  occ. eigenvalues -- -482.82340 -62.47619 -56.29637 -56.29281 -56.29261
  Beta  occ. eigenvalues --  -19.07652 -19.07267 -10.22926 -10.22466 -10.21660
  Beta  occ. eigenvalues --  -10.18407 -10.17512 -10.17079 -10.16338 -10.15174
  Beta  occ. eigenvalues --  -10.14687 -10.14687  -8.68579  -6.51658  -6.50476
  Beta  occ. eigenvalues --   -6.50417  -2.62761  -2.62431  -2.62387  -2.61448
  Beta  occ. eigenvalues --   -2.61448  -0.99699  -0.98973  -0.83994  -0.81798
  Beta  occ. eigenvalues --   -0.77584  -0.72213  -0.68166  -0.67619  -0.67078
  Beta  occ. eigenvalues --   -0.60063  -0.57347  -0.52400  -0.48539  -0.46805
  Beta  occ. eigenvalues --   -0.43980  -0.43633  -0.43233  -0.42206  -0.40413
  Beta  occ. eigenvalues --   -0.40394  -0.38170  -0.38144  -0.37051  -0.36360
  Beta  occ. eigenvalues --   -0.36088  -0.34357  -0.33345  -0.32640  -0.32069
  Beta  occ. eigenvalues --   -0.31203  -0.28754  -0.24917  -0.24276  -0.24104
  Beta  occ. eigenvalues --   -0.23242
  Beta virt. eigenvalues --   -0.09434  -0.00971  -0.00291   0.00001   0.01021
  Beta virt. eigenvalues --    0.01603   0.01984   0.02890   0.03473   0.04101
  Beta virt. eigenvalues --    0.04321   0.04741   0.04985   0.05451   0.05678

 Mulliken charges and spin densities:
               1          2
     1  C   -0.725167   0.107152
     2  C   -0.419850   0.019124
     3  C    1.043393   0.120852
     4  C   -0.703556   0.078052
     5  C   -0.412475   0.096030
     6  C    0.728847   0.104238
     7  Br  -0.178248   0.004628
     8  C    0.627829  -0.030731
     9  C   -0.681184   0.010782
    10  C   -0.502119  -0.000454
    11  C   -0.681401   0.010777
    12  O   -0.450441   0.240298
    13  O   -0.429248   0.257606
    14  H    0.203828  -0.006278
    15  H    0.228602  -0.010538
    16  H    0.133138   0.000871
    17  H    0.149075   0.000071
    18  H    0.175290  -0.001522
    19  H    0.132764  -0.000224
    20  H    0.132869  -0.000226
    21  H    0.170597   0.000068
    22  H    0.175231  -0.001519
    23  H    0.149107   0.000072
    24  H    0.133119   0.000871
 Sum of Mulliken charges =  -1.00000   1.00000

 Dipole moment (field-independent basis, Debye):
    X=              3.3380    Y=             -0.2534    Z=              0.0009  Tot=              3.3476
 Quadrupole moment (field-independent basis, Debye-Ang):
   XX=           -112.0455   YY=           -121.0472   ZZ=            -95.9582
   XY=             17.8369   XZ=              0.0044   YZ=             -0.0071

 Normal termination of Gaussian 16 at Sun Jan 21 07:08:15 2024.
