 Q-Chem 5.4, Q-Chem, Inc., Pleasanton, CA (2021)
 Q-Chem 5.4.0 for Intel X86 EM64T Linux

User input:
--------------------------------------------------------------
$molecule
-1 2
C                 -1.9779430000     -2.0988730000      1.2899360000
C                 -2.2624570000     -2.1654740000     -0.1497610000
C                 -1.4812800000     -1.4441240000     -1.0350650000
C                 -0.3869100000     -0.5870650000     -0.6467130000
C                 -0.1339550000     -0.5198190000      0.7789970000
C                 -0.8812280000     -1.2287340000      1.6741790000
O                 -2.6328240000     -2.7337220000      2.1623430000
O                  0.3055190000      0.0538820000     -1.4898170000
C                 -3.3819060000     -2.9934000000     -0.6594670000
C                 -3.7461200000     -4.2130770000     -0.0569010000
C                 -4.1174890000     -2.5893120000     -1.7899040000
C                 -5.1456450000     -3.3710090000     -2.3105280000
C                 -4.7734690000     -4.9948390000     -0.5790860000
C                 -5.4807710000     -4.5844650000     -1.7099600000
H                 -1.6544440000     -1.5204670000     -2.1042830000
H                  0.6839210000      0.1177500000      1.1042320000
H                 -0.6825240000     -1.1743050000      2.7410970000
H                 -3.2211170000     -4.5260770000      0.8340840000
H                 -3.8864060000     -1.6376580000     -2.2546420000
H                 -5.6937710000     -3.0247880000     -3.1818020000
H                 -5.0258210000     -5.9336010000     -0.0947230000
H                 -6.2842790000     -5.1945640000     -2.1104940000
$end

$rem
BASIS  =  6-311++G(d,p)
GUI  =  2
JOB_TYPE  =  SP
METHOD  =  B3LYP
SCF_CONVERGENCE  = 8
SOLVENT_METHOD = sm12
$end

$smx
solvent dimethylformamide
charges CM5
$end

--------------------------------------------------------------

             Standard Nuclear Orientation (Angstroms)
    I     Atom           X                Y                Z
 ----------------------------------------------------------------
    1      C      -1.9779430000    -2.0988730000     1.2899360000
    2      C      -2.2624570000    -2.1654740000    -0.1497610000
    3      C      -1.4812800000    -1.4441240000    -1.0350650000
    4      C      -0.3869100000    -0.5870650000    -0.6467130000
    5      C      -0.1339550000    -0.5198190000     0.7789970000
    6      C      -0.8812280000    -1.2287340000     1.6741790000
    7      O      -2.6328240000    -2.7337220000     2.1623430000
    8      O       0.3055190000     0.0538820000    -1.4898170000
    9      C      -3.3819060000    -2.9934000000    -0.6594670000
   10      C      -3.7461200000    -4.2130770000    -0.0569010000
   11      C      -4.1174890000    -2.5893120000    -1.7899040000
   12      C      -5.1456450000    -3.3710090000    -2.3105280000
   13      C      -4.7734690000    -4.9948390000    -0.5790860000
   14      C      -5.4807710000    -4.5844650000    -1.7099600000
   15      H      -1.6544440000    -1.5204670000    -2.1042830000
   16      H       0.6839210000     0.1177500000     1.1042320000
   17      H      -0.6825240000    -1.1743050000     2.7410970000
   18      H      -3.2211170000    -4.5260770000     0.8340840000
   19      H      -3.8864060000    -1.6376580000    -2.2546420000
   20      H      -5.6937710000    -3.0247880000    -3.1818020000
   21      H      -5.0258210000    -5.9336010000    -0.0947230000
   22      H      -6.2842790000    -5.1945640000    -2.1104940000
 ----------------------------------------------------------------

   17    -612.7533766486      6.18e-09  Convergence criterion met
 Total energy in the final basis set =     -612.8415597529

                    Orbital Energies (a.u.)
 --------------------------------------------------------------

 Alpha MOs
 -- Occupied --
-19.0806 -19.0787 -10.2284 -10.2230 -10.1944 -10.1856 -10.1847 -10.1839
-10.1831 -10.1831 -10.1787 -10.1739 -10.1732 -10.1710  -1.0038  -0.9977
 -0.8694  -0.8307  -0.7823  -0.7557  -0.7325  -0.6872  -0.6308  -0.6178
 -0.5910  -0.5687  -0.5202  -0.4850  -0.4773  -0.4684  -0.4536  -0.4424
 -0.4305  -0.4258  -0.4116  -0.4048  -0.3872  -0.3806  -0.3738  -0.3684
 -0.3570  -0.3511  -0.2976  -0.2817  -0.2664  -0.2442  -0.2425  -0.2386
 -0.1670

 Beta MOs
 -- Occupied --
-19.0734 -19.0711 -10.2273 -10.2222 -10.1946 -10.1847 -10.1844 -10.1838
-10.1832 -10.1829 -10.1785 -10.1729 -10.1722 -10.1697  -0.9915  -0.9845
 -0.8687  -0.8253  -0.7804  -0.7555  -0.7304  -0.6775  -0.6282  -0.6171
 -0.5883  -0.5662  -0.5191  -0.4833  -0.4743  -0.4659  -0.4523  -0.4404
 -0.4301  -0.4243  -0.3977  -0.3970  -0.3825  -0.3751  -0.3663  -0.3567
 -0.3506  -0.3461  -0.2885  -0.2658  -0.2545  -0.2359  -0.2352  -0.2313

          Ground-State Mulliken Net Atomic Charges

     Atom                 Charge (a.u.)    Spin (a.u.)
  --------------------------------------------------------
      1 C                    -1.610296       0.025465
      2 C                     0.576427       0.120504
      3 C                    -1.183440       0.056044
      4 C                    -1.215187       0.094235
      5 C                     0.178370       0.076836
      6 C                     0.085413       0.100910
      7 O                    -0.307882       0.261458
      8 O                    -0.383841       0.269574
      9 C                     0.100263      -0.015922
     10 C                    -1.044581       0.006968
     11 C                    -0.296800       0.024164
     12 C                     0.602550      -0.008863
     13 C                     0.601890      -0.000193
     14 C                     0.887158       0.016499
     15 H                     0.105864      -0.009711
     16 H                     0.233563      -0.006146
     17 H                     0.239928      -0.007465
     18 H                     0.132588      -0.002674
     19 H                     0.278495      -0.001531
     20 H                     0.331221       0.000550
     21 H                     0.313348       0.000375
     22 H                     0.374949      -0.001075
  --------------------------------------------------------
  Sum of atomic charges =    -1.000000

                    Cartesian Multipole Moments
 -----------------------------------------------------------------
    Charge (ESU x 10^10)
                -4.8032
    Dipole Moment (Debye)
         X       6.1658      Y       6.8346      Z      -0.7148
       Tot       9.2326
    Quadrupole Moments (Debye-Ang)
        XX    -105.5608     XY     -18.2428     YY    -104.2183
        XZ      15.8780     YZ      10.3412     ZZ    -100.2937

 Total job time:  355.67s(wall), 2760.27s(cpu)
        *  Thank you very much for using Q-Chem.  Have a nice day.  *
