 Gaussian 16, Revision A.03,
 Gaussian 16:  ES64L-G16RevA.03 25-Dec-2016

 ----------------------------------------------------------------------
 #P UB3LYP/6-311++G(d,p) nosym opt freq SCRF=(PCM,Solvent=n,n-DiMethylF
 ormamide)
 ----------------------------------------------------------------------

 --------
 Oxidized
 --------
 Symbolic Z-matrix:
 Charge =  0 Multiplicity = 1

 SCF Done:  E(UB3LYP) =  -846.248013064     A.U. after   14 cycles
 SCF Done:  E(UB3LYP) =  -846.248201037     A.U. after   12 cycles
 SCF Done:  E(UB3LYP) =  -846.247971284     A.U. after   13 cycles
 SCF Done:  E(UB3LYP) =  -846.248214532     A.U. after   12 cycles
 SCF Done:  E(UB3LYP) =  -846.248257900     A.U. after   11 cycles
 SCF Done:  E(UB3LYP) =  -846.248259248     A.U. after   10 cycles
 SCF Done:  E(UB3LYP) =  -846.248259964     A.U. after   10 cycles
 SCF Done:  E(UB3LYP) =  -846.248260744     A.U. after   10 cycles
 SCF Done:  E(UB3LYP) =  -846.248261105     A.U. after   10 cycles
 SCF Done:  E(UB3LYP) =  -846.248261686     A.U. after   11 cycles
 SCF Done:  E(UB3LYP) =  -846.248261204     A.U. after   11 cycles
 SCF Done:  E(UB3LYP) =  -846.248261837     A.U. after   11 cycles
 SCF Done:  E(UB3LYP) =  -846.248261866     A.U. after    9 cycles
 SCF Done:  E(UB3LYP) =  -846.248261897     A.U. after    9 cycles
 SCF Done:  E(UB3LYP) =  -846.248261896     A.U. after    9 cycles
 Optimization completed.
    -- Stationary point found.
 Normal termination of Gaussian 16 at Sun Feb 11 17:00:09 2024.

 ----------------------------------------------------------------------
 #P Geom=AllCheck Guess=TCheck SCRF=Check GenChk UB3LYP/6-311++G(d,p) F
 req
 ----------------------------------------------------------------------

 Structure from the checkpoint file:  "330.chk"
 --------
 Oxidized
 --------
 Charge =  0 Multiplicity = 1

                          Input orientation:
 ---------------------------------------------------------------------
 Center     Atomic      Atomic             Coordinates (Angstroms)
 Number     Number       Type             X           Y           Z
 ---------------------------------------------------------------------
      1          6           0        4.721543    0.124298    1.005716
      2          6           0        3.966110   -0.611070   -0.116745
      3          6           0        4.613304   -0.346913   -1.488681
      4          6           0        2.485869   -0.266580   -0.117510
      5          6           0        2.029931    1.039688   -0.355827
      6          6           0        0.676534    1.354905   -0.359361
      7          6           0       -0.303866    0.379709   -0.119769
      8          6           0        0.152737   -0.928122    0.141853
      9          6           0        1.520834   -1.236026    0.130630
     10          6           0       -0.810821   -1.990225    0.458137
     11          8           0       -0.521189   -3.170761    0.536912
     12          6           0       -2.275427   -1.568745    0.753473
     13          8           0       -2.971161   -2.367754    1.355736
     14          6           0       -2.729532   -0.248610    0.277672
     15          6           0       -4.113436    0.069934    0.244301
     16          6           0       -5.202061   -0.872916    0.690667
     17          6           0       -4.493701    1.322509   -0.244589
     18          6           0       -3.547623    2.241800   -0.680546
     19          6           0       -2.193243    1.931640   -0.639300
     20          6           0       -1.755805    0.692534   -0.161960
     21          1           0        4.285763   -0.092908    1.984381
     22          1           0        4.698158    1.208099    0.857878
     23          1           0        5.769699   -0.187125    1.023330
     24          1           0        4.040619   -1.685065    0.083002
     25          1           0        4.099605   -0.897087   -2.281334
     26          1           0        5.660532   -0.661759   -1.479660
     27          1           0        4.587501    0.716753   -1.743568
     28          1           0        2.743330    1.835040   -0.541572
     29          1           0        0.397495    2.382925   -0.544241
     30          1           0        1.814053   -2.259479    0.334867
     31          1           0       -5.153259   -1.056785    1.766141
     32          1           0       -6.178134   -0.446886    0.453575
     33          1           0       -5.116958   -1.849361    0.209418
     34          1           0       -5.547182    1.573785   -0.287143
     35          1           0       -3.864795    3.206052   -1.060906
     36          1           0       -1.485223    2.664908   -0.997635
 ---------------------------------------------------------------------

 SCF Done:  E(UB3LYP) =  -846.248261896     A.U. after    1 cycles

 Alpha  occ. eigenvalues --  -19.13892 -19.13724 -10.28096 -10.28057 -10.21775
 Alpha  occ. eigenvalues --  -10.21510 -10.21292 -10.20615 -10.20239 -10.19794
 Alpha  occ. eigenvalues --  -10.19717 -10.19565 -10.19462 -10.19415 -10.19216
 Alpha  occ. eigenvalues --  -10.18828 -10.18739 -10.17027 -10.16284 -10.16282
 Alpha  occ. eigenvalues --   -1.08268  -1.05416  -0.90217  -0.87757  -0.82935
 Alpha  occ. eigenvalues --   -0.79922  -0.79226  -0.77763  -0.74376  -0.71994
 Alpha  occ. eigenvalues --   -0.68934  -0.68659  -0.65372  -0.63618  -0.61726
 Alpha  occ. eigenvalues --   -0.59799  -0.58493  -0.55035  -0.52754  -0.51070
 Alpha  occ. eigenvalues --   -0.49739  -0.48544  -0.47833  -0.46805  -0.46143
 Alpha  occ. eigenvalues --   -0.45614  -0.45047  -0.44458  -0.43594  -0.42905
 Alpha  occ. eigenvalues --   -0.42736  -0.42093  -0.40983  -0.40092  -0.39497
 Alpha  occ. eigenvalues --   -0.39007  -0.38975  -0.37970  -0.36988  -0.36534
 Alpha  occ. eigenvalues --   -0.36247  -0.34858  -0.34244  -0.33623  -0.31035
 Alpha  occ. eigenvalues --   -0.30056  -0.27923  -0.27168  -0.26150  -0.24392
 Alpha virt. eigenvalues --   -0.12440  -0.05673  -0.04965  -0.01104  -0.00881
 Alpha virt. eigenvalues --   -0.00192   0.00309   0.00562   0.01336   0.01500
 Alpha virt. eigenvalues --    0.01641   0.03093   0.03157   0.03392   0.03728

  Beta  occ. eigenvalues --  -19.13892 -19.13724 -10.28096 -10.28057 -10.21775
  Beta  occ. eigenvalues --  -10.21510 -10.21292 -10.20615 -10.20239 -10.19794
  Beta  occ. eigenvalues --  -10.19717 -10.19565 -10.19462 -10.19415 -10.19216
  Beta  occ. eigenvalues --  -10.18828 -10.18739 -10.17027 -10.16284 -10.16282
  Beta  occ. eigenvalues --   -1.08268  -1.05416  -0.90217  -0.87757  -0.82935
  Beta  occ. eigenvalues --   -0.79922  -0.79226  -0.77763  -0.74376  -0.71994
  Beta  occ. eigenvalues --   -0.68934  -0.68659  -0.65372  -0.63618  -0.61726
  Beta  occ. eigenvalues --   -0.59799  -0.58493  -0.55035  -0.52754  -0.51070
  Beta  occ. eigenvalues --   -0.49739  -0.48544  -0.47833  -0.46805  -0.46143
  Beta  occ. eigenvalues --   -0.45614  -0.45047  -0.44458  -0.43594  -0.42905
  Beta  occ. eigenvalues --   -0.42736  -0.42093  -0.40983  -0.40092  -0.39497
  Beta  occ. eigenvalues --   -0.39007  -0.38975  -0.37970  -0.36988  -0.36534
  Beta  occ. eigenvalues --   -0.36247  -0.34858  -0.34244  -0.33623  -0.31035
  Beta  occ. eigenvalues --   -0.30056  -0.27923  -0.27168  -0.26150  -0.24392
  Beta virt. eigenvalues --   -0.12440  -0.05673  -0.04965  -0.01104  -0.00881
  Beta virt. eigenvalues --   -0.00192   0.00309   0.00562   0.01336   0.01500
  Beta virt. eigenvalues --    0.01641   0.03093   0.03157   0.03392   0.03728

 Mulliken charges and spin densities:
               1          2
     1  C   -0.695854   0.000000
     2  C    0.171543  -0.000000
     3  C   -0.693026   0.000000
     4  C    0.817005   0.000000
     5  C   -0.699891  -0.000000
     6  C   -0.072619   0.000000
     7  C    0.408140   0.000000
     8  C    1.044686   0.000000
     9  C   -0.562239  -0.000000
    10  C   -0.629456   0.000000
    11  O   -0.286063  -0.000000
    12  C   -0.701789   0.000000
    13  O   -0.257659   0.000000
    14  C    0.649165  -0.000000
    15  C    0.683026  -0.000000
    16  C   -0.410091   0.000000
    17  C   -0.716566   0.000000
    18  C   -0.760268   0.000000
    19  C   -0.338134   0.000000
    20  C    0.381753  -0.000000
    21  H    0.143389  -0.000000
    22  H    0.159986  -0.000000
    23  H    0.159955  -0.000000
    24  H    0.201372  -0.000000
    25  H    0.143455   0.000000
    26  H    0.161853  -0.000000
    27  H    0.160923  -0.000000
    28  H    0.204076   0.000000
    29  H    0.133679  -0.000000
    30  H    0.184501   0.000000
    31  H    0.192013   0.000000
    32  H    0.159133  -0.000000
    33  H    0.169239   0.000000
    34  H    0.145965   0.000000
    35  H    0.223335   0.000000
    36  H    0.125464   0.000000
 Sum of Mulliken charges =  -0.00000  -0.00000

 Dipole moment (field-independent basis, Debye):
    X=              2.0428    Y=              8.0087    Z=             -2.6523  Tot=              8.6802
 Quadrupole moment (field-independent basis, Debye-Ang):
   XX=            -96.0959   YY=           -130.7577   ZZ=           -122.6771
   XY=            -14.7177   XZ=              5.4959   YZ=              3.0875

  Exact polarizability: 428.992 -10.823 339.562 -14.246 -52.330 189.983
 Approx polarizability: 447.715  -6.322 421.141 -15.568 -69.119 220.936

                      1                      2                      3
                      A                      A                      A
 Frequencies --     23.2285                35.7356                42.0913
 Red. masses --      5.0321                 3.9261                 3.6462
 Frc consts  --      0.0016                 0.0030                 0.0038
 IR Inten    --      0.2050                 0.2472                 2.5898

                      4                      5                      6
                      A                      A                      A
 Frequencies --     64.2258               125.5108               130.0388
 Red. masses --      4.0235                 3.9714                 4.1373
 Frc consts  --      0.0098                 0.0369                 0.0412
 IR Inten    --      0.6460                 1.6202                 0.8257

                      7                      8                      9
                      A                      A                      A
 Frequencies --    150.2523               199.6220               226.5478
 Red. masses --      4.5968                 2.3833                 1.4343
 Frc consts  --      0.0611                 0.0560                 0.0434
 IR Inten    --      0.8166                 0.6603                 0.4293

                     10                     11                     12
                      A                      A                      A
 Frequencies --    230.4236               231.2115               243.6913
 Red. masses --      1.5599                 1.2955                 2.0719
 Frc consts  --      0.0488                 0.0408                 0.0725
 IR Inten    --      0.2961                 0.1580                 0.6024

                     13                     14                     15
                      A                      A                      A
 Frequencies --    254.7870               268.9057               315.4735
 Red. masses --      2.0321                 2.7790                 4.5649
 Frc consts  --      0.0777                 0.1184                 0.2677
 IR Inten    --      1.1607                 4.1239                 4.7686

                     16                     17                     18
                      A                      A                      A
 Frequencies --    354.3705               372.7868               383.9526
 Red. masses --      3.9058                 4.4041                 6.2958
 Frc consts  --      0.2890                 0.3606                 0.5468
 IR Inten    --      4.3610                 6.2937                 3.8773

                     19                     20                     21
                      A                      A                      A
 Frequencies --    388.5927               417.6426               437.0958
 Red. masses --      5.4163                 4.2409                 4.0124
 Frc consts  --      0.4819                 0.4358                 0.4517
 IR Inten    --      2.7758                 2.0741                 4.7442

                     22                     23                     24
                      A                      A                      A
 Frequencies --    443.9980               461.9136               499.3752
 Red. masses --      4.0483                 6.6673                 3.7297
 Frc consts  --      0.4702                 0.8382                 0.5480
 IR Inten    --     12.8379                 2.4991                 1.3823

                     25                     26                     27
                      A                      A                      A
 Frequencies --    526.0921               557.5760               567.4834
 Red. masses --      4.1469                 5.2572                 4.3914
 Frc consts  --      0.6762                 0.9630                 0.8332
 IR Inten    --     11.4535                 0.9203                 7.2208

                     28                     29                     30
                      A                      A                      A
 Frequencies --    595.8909               624.7407               655.7134
 Red. masses --      3.2419                 3.2381                 5.8638
 Frc consts  --      0.6782                 0.7446                 1.4854
 IR Inten    --      1.8307                 5.7989                10.9857

                     31                     32                     33
                      A                      A                      A
 Frequencies --    694.1088               725.1354               734.9297
 Red. masses --      7.0467                 4.3124                 3.3144
 Frc consts  --      2.0003                 1.3360                 1.0547
 IR Inten    --      6.4188                 9.0370                12.3791

                     34                     35                     36
                      A                      A                      A
 Frequencies --    744.9077               800.7542               808.2741
 Red. masses --      4.0759                 1.4656                 5.1775
 Frc consts  --      1.3325                 0.5537                 1.9929
 IR Inten    --     13.9415                64.4994                 2.9582

                     37                     38                     39
                      A                      A                      A
 Frequencies --    843.5247               856.6761               873.2974
 Red. masses --      6.1090                 1.6036                 4.9902
 Frc consts  --      2.5611                 0.6934                 2.2423
 IR Inten    --      1.3212                32.6921                16.8109

                     40                     41                     42
                      A                      A                      A
 Frequencies --    893.8777               920.6409               931.3216
 Red. masses --      3.1247                 1.3703                 1.2260
 Frc consts  --      1.4710                 0.6843                 0.6265
 IR Inten    --     29.3025                 0.6053                 0.4777

                     43                     44                     45
                      A                      A                      A
 Frequencies --    940.8130               959.9867               962.5298
 Red. masses --      1.4434                 4.3552                 1.5266
 Frc consts  --      0.7527                 2.3648                 0.8333
 IR Inten    --     13.2098                22.4062                 0.0173

                     46                     47                     48
                      A                      A                      A
 Frequencies --    996.6950              1010.2767              1020.2463
 Red. masses --      1.3706                 1.3379                 1.7420
 Frc consts  --      0.8022                 0.8045                 1.0683
 IR Inten    --      0.3611                 0.3917                 2.1359

                     49                     50                     51
                      A                      A                      A
 Frequencies --   1046.1196              1053.4685              1067.9857
 Red. masses --      3.8233                 1.5830                 1.7133
 Frc consts  --      2.4652                 1.0351                 1.1514
 IR Inten    --      5.8151                 7.4325                17.8426

                     52                     53                     54
                      A                      A                      A
 Frequencies --   1087.6798              1116.5185              1129.6617
 Red. masses --      3.3375                 2.3595                 1.8680
 Frc consts  --      2.3264                 1.7330                 1.4045
 IR Inten    --     14.2319                 2.0796                 8.4208

                     55                     56                     57
                      A                      A                      A
 Frequencies --   1162.2277              1180.4787              1204.3386
 Red. masses --      1.7972                 1.5683                 1.6495
 Frc consts  --      1.4303                 1.2876                 1.4096
 IR Inten    --      8.0464                14.2286                19.0011

                     58                     59                     60
                      A                      A                      A
 Frequencies --   1211.9197              1249.6303              1255.3453
 Red. masses --      1.7506                 3.5845                 1.8442
 Frc consts  --      1.5149                 3.2979                 1.7123
 IR Inten    --     37.7209               116.9613                26.6515

                     61                     62                     63
                      A                      A                      A
 Frequencies --   1277.5991              1292.8680              1310.6993
 Red. masses --      2.2227                 3.4989                 3.8451
 Frc consts  --      2.1376                 3.4458                 3.8920
 IR Inten    --     70.5913                48.0984                23.1472

                     64                     65                     66
                      A                      A                      A
 Frequencies --   1318.4910              1332.6607              1342.6151
 Red. masses --      3.2546                 2.5298                 1.3172
 Frc consts  --      3.3335                 2.6471                 1.3989
 IR Inten    --    141.8420                62.9350                 2.1627

                     67                     68                     69
                      A                      A                      A
 Frequencies --   1373.8797              1394.2775              1408.8922
 Red. masses --      2.1621                 1.2135                 1.2193
 Frc consts  --      2.4045                 1.3900                 1.4260
 IR Inten    --     15.3070                 6.3773                24.5261

                     70                     71                     72
                      A                      A                      A
 Frequencies --   1413.4628              1436.1796              1461.1630
 Red. masses --      1.2254                 2.5430                 2.2540
 Frc consts  --      1.4425                 3.0904                 2.8353
 IR Inten    --     10.1709                78.2617                31.7540

                     73                     74                     75
                      A                      A                      A
 Frequencies --   1468.8909              1478.4452              1480.0295
 Red. masses --      1.0777                 1.0435                 1.5659
 Frc consts  --      1.3701                 1.3438                 2.0209
 IR Inten    --     10.7982                 0.0927                25.5752

                     76                     77                     78
                      A                      A                      A
 Frequencies --   1484.4291              1492.5114              1493.7643
 Red. masses --      1.0466                 1.2731                 1.3064
 Frc consts  --      1.3587                 1.6709                 1.7175
 IR Inten    --      4.7073                66.2258                33.7404

                     79                     80                     81
                      A                      A                      A
 Frequencies --   1499.0139              1532.5404              1591.1423
 Red. masses --      1.1327                 2.7474                 5.8299
 Frc consts  --      1.4996                 3.8019                 8.6962
 IR Inten    --     44.0422                13.1368                40.5891

                     82                     83                     84
                      A                      A                      A
 Frequencies --   1603.5823              1625.4477              1634.4117
 Red. masses --      5.4733                 5.6392                 5.9696
 Frc consts  --      8.2924                 8.7783                 9.3955
 IR Inten    --    172.6631                75.4844                90.6809

                     85                     86                     87
                      A                      A                      A
 Frequencies --   1705.6237              1729.5913              3019.5316
 Red. masses --     12.5223                12.6181                 1.0341
 Frc consts  --     21.4636                22.2398                 5.5551
 IR Inten    --    957.0101                85.7191                45.8922

                     88                     89                     90
                      A                      A                      A
 Frequencies --   3023.0808              3028.0120              3040.2662
 Red. masses --      1.0368                 1.0823                 1.0353
 Frc consts  --      5.5829                 5.8468                 5.6380
 IR Inten    --     46.2741                24.6138                23.7883

                     91                     92                     93
                      A                      A                      A
 Frequencies --   3082.4480              3087.5291              3089.7137
 Red. masses --      1.1024                 1.1012                 1.1028
 Frc consts  --      6.1713                 6.1848                 6.2028
 IR Inten    --      1.4436               129.6961                35.2856

                     94                     95                     96
                      A                      A                      A
 Frequencies --   3090.7820              3095.5687              3112.8022
 Red. masses --      1.1022                 1.0993                 1.1038
 Frc consts  --      6.2039                 6.2062                 6.3016
 IR Inten    --     63.1301                14.3318                41.6862

                     97                     98                     99
                      A                      A                      A
 Frequencies --   3173.3607              3174.5183              3182.7050
 Red. masses --      1.0877                 1.0892                 1.0902
 Frc consts  --      6.4535                 6.4673                 6.5064
 IR Inten    --      1.8154                21.9977                 8.3513

                    100                    101                    102
                      A                      A                      A
 Frequencies --   3187.9216              3206.2411              3222.4171
 Red. masses --      1.0941                 1.0934                 1.0899
 Frc consts  --      6.5511                 6.6228                 6.6679
 IR Inten    --     30.8826                 0.9273                18.0798

 - Thermochemistry -
 -------------------
 Temperature   298.150 Kelvin.  Pressure   1.00000 Atm.
 Atom     1 has atomic number  6 and mass  12.00000

 Molecular mass:   264.11503 amu.
 Principal axes and moments of inertia in atomic units:
                           1         2         3
     Eigenvalues --  2441.426068967.70945**********
           X            0.99790   0.00629   0.06447
           Y           -0.02591   0.95098   0.30817
           Z           -0.05937  -0.30920   0.94914
 This molecule is an asymmetric top.
 Rotational symmetry number  1.
 Warning -- assumption of classical behavior for rotation
           may cause significant error
 Rotational temperatures (Kelvin)      0.03548     0.00966     0.00791
 Rotational constants (GHZ):           0.73922     0.20125     0.16483
 Zero-point vibrational energy     761491.6 (Joules/Mol)
                                  182.00085 (Kcal/Mol)
 Warning -- explicit consideration of  28 degrees of freedom as
           vibrations may cause significant error
 Vibrational temperatures:     33.42    51.42    60.56    92.41   180.58
          (Kelvin)            187.10   216.18   287.21   325.95   331.53
                              332.66   350.62   366.58   386.90   453.90
                              509.86   536.36   552.42   559.10   600.89
                              628.88   638.81   664.59   718.49   756.93
                              802.23   816.48   857.35   898.86   943.43
                              998.67  1043.31  1057.40  1071.76  1152.11
                             1162.93  1213.64  1232.57  1256.48  1286.09
                             1324.60  1339.96  1353.62  1381.21  1384.87
                             1434.02  1453.56  1467.91  1505.13  1515.71
                             1536.59  1564.93  1606.42  1625.33  1672.19
                             1698.45  1732.77  1743.68  1797.94  1806.16
                             1838.18  1860.15  1885.80  1897.01  1917.40
                             1931.72  1976.71  2006.05  2027.08  2033.66
                             2066.34  2102.29  2113.41  2127.15  2129.43
                             2135.76  2147.39  2149.19  2156.75  2204.98
                             2289.30  2307.20  2338.66  2351.55  2454.01
                             2488.50  4344.43  4349.54  4356.63  4374.27
                             4434.96  4442.27  4445.41  4446.95  4453.83
                             4478.63  4565.76  4567.42  4579.20  4586.71
                             4613.07  4636.34

 Zero-point correction=                           0.290037 (Hartree/Particle)
 Thermal correction to Energy=                    0.307473
 Thermal correction to Enthalpy=                  0.308418
 Thermal correction to Gibbs Free Energy=         0.243936
 Sum of electronic and zero-point Energies=           -845.958225
 Sum of electronic and thermal Energies=              -845.940788
 Sum of electronic and thermal Enthalpies=            -845.939844
 Sum of electronic and thermal Free Energies=         -846.004326

                     E (Thermal)             CV                S
                      KCal/Mol        Cal/Mol-Kelvin    Cal/Mol-Kelvin
 Total                  192.942             68.243            135.713
 Electronic               0.000              0.000              0.000
 Translational            0.889              2.981             42.613
 Rotational               0.889              2.981             33.838
 Vibrational            191.165             62.282             59.262
 Vibration     1          0.593              1.985              6.337
 Vibration     2          0.594              1.982              5.482
 Vibration     3          0.595              1.980              5.158
 Vibration     4          0.597              1.971              4.323
 Vibration     5          0.610              1.928              3.014
 Vibration     6          0.612              1.923              2.945
 Vibration     7          0.618              1.902              2.669
 Vibration     8          0.638              1.840              2.137
 Vibration     9          0.650              1.801              1.906
 Vibration    10          0.652              1.795              1.876
 Vibration    11          0.653              1.793              1.870
 Vibration    12          0.659              1.773              1.776
 Vibration    13          0.665              1.755              1.697
 Vibration    14          0.673              1.730              1.603
 Vibration    15          0.703              1.644              1.333
 Vibration    16          0.730              1.566              1.147
 Vibration    17          0.744              1.528              1.068
 Vibration    18          0.753              1.504              1.024
 Vibration    19          0.757              1.495              1.006
 Vibration    20          0.781              1.432              0.900
 Vibration    21          0.797              1.389              0.836
 Vibration    22          0.804              1.374              0.814
 Vibration    23          0.820              1.335              0.761
 Vibration    24          0.855              1.251              0.660
 Vibration    25          0.881              1.192              0.596
 Vibration    26          0.913              1.123              0.529
 Vibration    27          0.923              1.102              0.509
 Vibration    28          0.954              1.041              0.457

 Optimization completed.
    -- Stationary point found.
 Normal termination of Gaussian 16 at Sun Feb 11 18:55:18 2024.
