 Q-Chem 5.4, Q-Chem, Inc., Pleasanton, CA (2021)
 Q-Chem 5.4.0 for Intel X86 EM64T Linux

User input:
--------------------------------------------------------------
$molecule
0 1
C                  2.6869040000      0.3681620000      0.4922800000
O                  1.7298450000     -0.6666000000      0.2562920000
C                  0.4478260000     -0.3256040000      0.1189170000
C                 -0.0712460000      0.9230290000      0.1784320000
C                 -1.5083210000      1.1608650000      0.0089150000
O                 -1.9873930000      2.2853410000      0.0606500000
C                 -2.3863630000     -0.0184760000     -0.2317090000
C                 -1.8877110000     -1.2581760000     -0.2931340000
C                 -0.4402530000     -1.5247590000     -0.1249960000
O                  0.0139060000     -2.6486870000     -0.1795770000
H                  2.4653250000      0.8952410000      1.4248340000
H                  3.6482310000     -0.1341380000      0.5697410000
H                  2.7029260000      1.0778770000     -0.3399560000
H                  0.5324610000      1.8040430000      0.3510340000
H                 -3.4425580000      0.1952480000     -0.3520630000
H                 -2.5035790000     -2.1333660000     -0.4671000000
$end

$rem
BASIS  =  6-311++G(d,p)
GUI  =  2
JOB_TYPE  =  SP
METHOD  =  B3LYP
SCF_CONVERGENCE  = 8
SOLVENT_METHOD = sm12
$end

$smx
solvent dimethylformamide
charges CM5
$end

--------------------------------------------------------------

             Standard Nuclear Orientation (Angstroms)
    I     Atom           X                Y                Z
 ----------------------------------------------------------------
    1      C       2.6869040000     0.3681620000     0.4922800000
    2      O       1.7298450000    -0.6666000000     0.2562920000
    3      C       0.4478260000    -0.3256040000     0.1189170000
    4      C      -0.0712460000     0.9230290000     0.1784320000
    5      C      -1.5083210000     1.1608650000     0.0089150000
    6      O      -1.9873930000     2.2853410000     0.0606500000
    7      C      -2.3863630000    -0.0184760000    -0.2317090000
    8      C      -1.8877110000    -1.2581760000    -0.2931340000
    9      C      -0.4402530000    -1.5247590000    -0.1249960000
   10      O       0.0139060000    -2.6486870000    -0.1795770000
   11      H       2.4653250000     0.8952410000     1.4248340000
   12      H       3.6482310000    -0.1341380000     0.5697410000
   13      H       2.7029260000     1.0778770000    -0.3399560000
   14      H       0.5324610000     1.8040430000     0.3510340000
   15      H      -3.4425580000     0.1952480000    -0.3520630000
   16      H      -2.5035790000    -2.1333660000    -0.4671000000
 ----------------------------------------------------------------

   15    -496.1213791755      7.22e-09  Convergence criterion met
 Total energy in the final basis set =     -496.1386479250

                    Orbital Energies (a.u.)
 --------------------------------------------------------------

 Alpha MOs
 -- Occupied --
-19.1823 -19.1429 -19.1285 -10.2893 -10.2786 -10.2721 -10.2252 -10.2106
-10.2091 -10.1935  -1.1054  -1.0702  -1.0590  -0.8589  -0.7905  -0.7411
 -0.6932  -0.6264  -0.6063  -0.5409  -0.5290  -0.5005  -0.4896  -0.4764
 -0.4478  -0.4473  -0.4423  -0.4248  -0.4175  -0.4094  -0.3626  -0.3584
 -0.3088  -0.2884  -0.2770  -0.2666

          Ground-State Mulliken Net Atomic Charges

     Atom                 Charge (a.u.)
  ----------------------------------------
      1 C                    -0.124875
      2 O                    -0.191615
      3 C                    -0.151276
      4 C                     1.040781
      5 C                    -1.265683
      6 O                    -0.367719
      7 C                     0.461296
      8 C                     0.511519
      9 C                    -1.201193
     10 O                    -0.329076
     11 H                     0.228708
     12 H                     0.246861
     13 H                     0.228705
     14 H                     0.296346
     15 H                     0.303563
     16 H                     0.313658
  ----------------------------------------
  Sum of atomic charges =     0.000000

                    Cartesian Multipole Moments
 -----------------------------------------------------------------
    Charge (ESU x 10^10)
                 0.0000
    Dipole Moment (Debye)
         X       1.8732      Y       0.6271      Z       0.3154
       Tot       2.0003
    Quadrupole Moments (Debye-Ang)
        XX     -47.4034     XY      13.7542     YY     -74.5061
        XZ       2.9530     YZ       0.1528     ZZ     -57.0235

 Total job time:  120.44s(wall), 911.84s(cpu)
        *  Thank you very much for using Q-Chem.  Have a nice day.  *
