 Q-Chem 5.4, Q-Chem, Inc., Pleasanton, CA (2021)
 Q-Chem 5.4.0 for Intel X86 EM64T Linux

User input:
--------------------------------------------------------------
$molecule
-1 2
C                  2.0319030000      3.8977990000      5.6069780000
C                  2.8432840000      3.3596440000      4.5178840000
C                  2.4070000000      2.4004270000      3.6567880000
C                  1.0766920000      1.8241500000      3.7546710000
C                  0.2660680000      2.3348010000      4.8289430000
C                  0.6986010000      3.2954400000      5.7325360000
O                  2.4665010000      4.8239020000      6.3261340000
O                  0.6656690000      0.9344170000      2.9542160000
H                  3.8360620000      3.7914310000      4.4258610000
H                  3.0416260000      2.0300330000      2.8556800000
H                 -0.7265130000      1.9117230000      4.9253830000
C                 -0.1823360000      3.6945420000      6.8471450000
O                  0.1367930000      4.1187070000      7.9354090000
O                 -1.5188070000      3.5046660000      6.5378290000
C                 -2.4307840000      3.7877130000      7.5949400000
H                 -3.4234780000      3.5856290000      7.1911210000
H                 -2.3568830000      4.8314050000      7.9114990000
H                 -2.2403760000      3.1514220000      8.4638230000
$end
$rem
MAX_SCF_CYCLES=200
BASIS  =  6-311++G(d,p)
GUI  =  2
JOB_TYPE  =  SP
METHOD  =  B3LYP
SOLVENT_METHOD = COSMO
$end
$solvent
dielectric 37.219
opticaldielectric 1.43
$end

--------------------------------------------------------------

             Standard Nuclear Orientation (Angstroms)
    I     Atom           X                Y                Z
 ----------------------------------------------------------------
    1      C      -0.6478342630    -1.4507887922    -0.0869823147
    2      C      -2.1029799473    -1.3219239155    -0.0915158647
    3      C      -2.7534309638    -0.1282880064    -0.0276872293
    4      C      -2.0399031553     1.1349571526     0.0528445777
    5      C      -0.6046157324     1.0271599210     0.0691483671
    6      C       0.0789820085    -0.1800831424     0.0285194539
    7      O      -0.1083209480    -2.5720046508    -0.2115933971
    8      O      -2.6405286135     2.2473327950     0.1090799228
    9      H      -2.6484720688    -2.2587626461    -0.1642340986
   10      H      -3.8391759199    -0.0757586593    -0.0383858643
   11      H      -0.0533047714     1.9571134493     0.1381075483
   12      C       1.5511585819    -0.1861029907     0.1302324100
   13      O       2.2656242493    -1.0625113324     0.5632740112
   14      O       2.1012637315     1.0020179601    -0.3210290970
   15      C       3.5145575077     1.1077394061    -0.1770673069
   16      H       3.7792863600     2.0896162017    -0.5710034672
   17      H       4.0285947085     0.3238251224    -0.7393911471
   18      H       3.8131601195     1.0292705629     0.8721029518
 ----------------------------------------------------------------

   10    -609.5872251259      8.93e-06  Convergence criterion met
 Total energy in the final basis set =     -609.5872251259
    5    -609.6793402357      5.00e-06  Convergence criterion met
 Total energy in the final basis set =     -609.6793402357

                    Orbital Energies (a.u.)
 --------------------------------------------------------------

 Alpha MOs
 -- Occupied --
-19.1631 -19.1166 -19.0914 -19.0909 -10.3057 -10.2399 -10.2306 -10.2136
-10.1881 -10.1797 -10.1747 -10.1735  -1.1045  -1.0233  -1.0156  -1.0106
 -0.8378  -0.7748  -0.7174  -0.6947  -0.6312  -0.5919  -0.5541  -0.5145
 -0.4905  -0.4815  -0.4730  -0.4679  -0.4455  -0.4241  -0.4182  -0.4144
 -0.3985  -0.3934  -0.3852  -0.3714  -0.3584  -0.3090  -0.2965  -0.2946
 -0.2718  -0.2566  -0.2461  -0.1776

 Beta MOs
 -- Occupied --
-19.1630 -19.1162 -19.0849 -19.0839 -10.3057 -10.2390 -10.2294 -10.2136
-10.1870 -10.1773 -10.1743 -10.1724  -1.1041  -1.0215  -1.0064  -0.9973
 -0.8317  -0.7725  -0.7149  -0.6853  -0.6276  -0.5886  -0.5525  -0.5118
 -0.4885  -0.4804  -0.4693  -0.4670  -0.4426  -0.4174  -0.4119  -0.4072
 -0.3922  -0.3853  -0.3694  -0.3598  -0.3572  -0.3075  -0.2947  -0.2632
 -0.2624  -0.2499  -0.2407

          Ground-State Mulliken Net Atomic Charges

     Atom                 Charge (a.u.)    Spin (a.u.)
  --------------------------------------------------------
      1 C                    -0.936907       0.037346
      2 C                     0.031371       0.085893
      3 C                     0.073448       0.025581
      4 C                    -0.394267       0.130601
      5 C                    -0.332516       0.149682
      6 C                     1.096899       0.071376
      7 O                    -0.485312       0.217526
      8 O                    -0.524118       0.262019
      9 H                     0.215349      -0.007154
     10 H                     0.219506      -0.002909
     11 H                     0.219626      -0.012377
     12 C                     0.036379       0.026565
     13 O                    -0.343904       0.016186
     14 O                    -0.147840      -0.000211
     15 C                    -0.270453      -0.000364
     16 H                     0.170445       0.000038
     17 H                     0.182948       0.000246
     18 H                     0.189345      -0.000045
  --------------------------------------------------------
  Sum of atomic charges =    -1.000000

                    Cartesian Multipole Moments
 -----------------------------------------------------------------
    Charge (ESU x 10^10)
                -4.8032
    Dipole Moment (Debye)
         X       4.3142      Y       2.3043      Z      -0.5073
       Tot       4.9173
    Quadrupole Moments (Debye-Ang)
        XX     -82.2003     XY      25.5509     YY    -104.4865
        XZ      -1.5331     YZ       0.2897     ZZ     -72.8412

 Total job time:  28.22s(wall), 195.85s(cpu)
        *  Thank you very much for using Q-Chem.  Have a nice day.  *
