 Gaussian 16, Revision A.03,
 Gaussian 16:  ES64L-G16RevA.03 25-Dec-2016

 ----------------------------------------------------------------------
 #P UB3LYP/6-311++G(d,p) nosym opt freq SCRF=(PCM,Solvent=n,n-DiMethylF
 ormamide)
 ----------------------------------------------------------------------

 -------
 Reduced
 -------
 Symbolic Z-matrix:
 Charge = -2 Multiplicity = 1

 SCF Done:  E(UB3LYP) =  -799.940160037     A.U. after   17 cycles
 SCF Done:  E(UB3LYP) =  -799.942962507     A.U. after   13 cycles
 SCF Done:  E(UB3LYP) =  -799.943421516     A.U. after   13 cycles
 SCF Done:  E(UB3LYP) =  -799.943442908     A.U. after   13 cycles
 SCF Done:  E(UB3LYP) =  -799.943480388     A.U. after   11 cycles
 SCF Done:  E(UB3LYP) =  -799.943494115     A.U. after   11 cycles
 SCF Done:  E(UB3LYP) =  -799.943500094     A.U. after   11 cycles
 SCF Done:  E(UB3LYP) =  -799.943501587     A.U. after   10 cycles
 SCF Done:  E(UB3LYP) =  -799.943501999     A.U. after    9 cycles
 Optimization completed.
    -- Stationary point found.
 Normal termination of Gaussian 16 at Sat Feb 10 18:54:42 2024.

 ----------------------------------------------------------------------
 #P Geom=AllCheck Guess=TCheck SCRF=Check GenChk UB3LYP/6-311++G(d,p) F
 req
 ----------------------------------------------------------------------

 Structure from the checkpoint file:  "168-an.chk"
 -------
 Reduced
 -------
 Charge = -2 Multiplicity = 1

                          Input orientation:
 ---------------------------------------------------------------------
 Center     Atomic      Atomic             Coordinates (Angstroms)
 Number     Number       Type             X           Y           Z
 ---------------------------------------------------------------------
      1          7           0       -5.056752   -0.653475   -0.602362
      2          6           0       -3.738212   -0.229020   -0.287998
      3          6           0       -3.560057    1.019654    0.381965
      4          6           0       -2.294238    1.483326    0.648181
      5          6           0       -1.117378    0.775029    0.273713
      6          6           0        0.176320    1.321392    0.585080
      7          8           0        0.321397    2.458519    1.216167
      8          6           0        1.294136    0.531245    0.157958
      9          6           0        2.625561    0.982152    0.416609
     10          6           0        3.738628    0.269089    0.032652
     11          7           0        5.057429    0.760911    0.223227
     12          6           0        3.560427   -0.975201   -0.645435
     13          6           0        2.294447   -1.442411   -0.904577
     14          6           0        1.117715   -0.732474   -0.532833
     15          6           0       -0.175977   -1.279083   -0.843636
     16          8           0       -0.321214   -2.417535   -1.472238
     17          6           0       -1.293747   -0.487915   -0.418439
     18          6           0       -2.625118   -0.944747   -0.666862
     19          1           0       -5.732919   -0.408144    0.111444
     20          1           0       -5.116765   -1.646805   -0.791134
     21          1           0       -4.432837    1.596299    0.676668
     22          1           0       -2.161181    2.429405    1.161216
     23          1           0        2.738029    1.930577    0.932953
     24          1           0        5.730591    0.028069    0.414825
     25          1           0        5.114380    1.464478    0.949635
     26          1           0        4.433119   -1.544749   -0.953893
     27          1           0        2.161168   -2.390216   -1.414371
     28          1           0       -2.736954   -1.898368   -1.173708
 ---------------------------------------------------------------------

 SCF Done:  E(UB3LYP) =  -799.943501999     A.U. after    1 cycles

 Alpha  occ. eigenvalues --  -19.01261 -19.01260 -14.30213 -14.30213 -10.18503
 Alpha  occ. eigenvalues --  -10.18503 -10.16575 -10.16573 -10.14686 -10.14686
 Alpha  occ. eigenvalues --  -10.14621 -10.14621 -10.13518 -10.13518 -10.13213
 Alpha  occ. eigenvalues --  -10.13211 -10.13071 -10.13070  -0.92330  -0.91882
 Alpha  occ. eigenvalues --   -0.89726  -0.89691  -0.81339  -0.80405  -0.74163
 Alpha  occ. eigenvalues --   -0.71852  -0.71369  -0.69191  -0.63224  -0.61125
 Alpha  occ. eigenvalues --   -0.58113  -0.56873  -0.52756  -0.51348  -0.49997
 Alpha  occ. eigenvalues --   -0.48644  -0.47331  -0.46245  -0.43672  -0.41803
 Alpha  occ. eigenvalues --   -0.41754  -0.39730  -0.39585  -0.38414  -0.38053
 Alpha  occ. eigenvalues --   -0.36689  -0.36267  -0.35747  -0.35049  -0.33735
 Alpha  occ. eigenvalues --   -0.31880  -0.31779  -0.31652  -0.29358  -0.28576
 Alpha  occ. eigenvalues --   -0.26483  -0.22537  -0.21895  -0.20032  -0.19525
 Alpha  occ. eigenvalues --   -0.18991  -0.18591  -0.10087
 Alpha virt. eigenvalues --   -0.02293  -0.00200   0.00223   0.01309   0.01396
 Alpha virt. eigenvalues --    0.01875   0.02259   0.02451   0.03776   0.04363
 Alpha virt. eigenvalues --    0.04914   0.05114   0.05806   0.06361   0.06588

  Beta  occ. eigenvalues --  -19.01261 -19.01260 -14.30213 -14.30213 -10.18503
  Beta  occ. eigenvalues --  -10.18503 -10.16575 -10.16573 -10.14686 -10.14686
  Beta  occ. eigenvalues --  -10.14621 -10.14621 -10.13518 -10.13518 -10.13213
  Beta  occ. eigenvalues --  -10.13211 -10.13071 -10.13070  -0.92330  -0.91882
  Beta  occ. eigenvalues --   -0.89726  -0.89691  -0.81339  -0.80405  -0.74163
  Beta  occ. eigenvalues --   -0.71852  -0.71369  -0.69191  -0.63224  -0.61125
  Beta  occ. eigenvalues --   -0.58113  -0.56873  -0.52756  -0.51348  -0.49997
  Beta  occ. eigenvalues --   -0.48644  -0.47331  -0.46245  -0.43672  -0.41803
  Beta  occ. eigenvalues --   -0.41754  -0.39730  -0.39585  -0.38414  -0.38053
  Beta  occ. eigenvalues --   -0.36689  -0.36267  -0.35747  -0.35049  -0.33735
  Beta  occ. eigenvalues --   -0.31880  -0.31779  -0.31652  -0.29358  -0.28576
  Beta  occ. eigenvalues --   -0.26483  -0.22537  -0.21895  -0.20032  -0.19525
  Beta  occ. eigenvalues --   -0.18991  -0.18591  -0.10087
  Beta virt. eigenvalues --   -0.02293  -0.00200   0.00223   0.01309   0.01396
  Beta virt. eigenvalues --    0.01875   0.02259   0.02451   0.03776   0.04363
  Beta virt. eigenvalues --    0.04914   0.05114   0.05806   0.06361   0.06588

 Mulliken charges and spin densities:
               1          2
     1  N   -0.400327  -0.000000
     2  C   -0.531565   0.000000
     3  C   -0.190689  -0.000000
     4  C    0.014288   0.000000
     5  C    0.209147  -0.000000
     6  C   -0.678194  -0.000000
     7  O   -0.693460   0.000000
     8  C    0.456071  -0.000000
     9  C   -0.159928  -0.000000
    10  C   -0.534700   0.000000
    11  N   -0.400299   0.000000
    12  C   -0.187470  -0.000000
    13  C    0.016528   0.000000
    14  C    0.215049   0.000000
    15  C   -0.677129   0.000000
    16  O   -0.693368   0.000000
    17  C    0.454942   0.000000
    18  C   -0.161452  -0.000000
    19  H    0.256288  -0.000000
    20  H    0.262085   0.000000
    21  H    0.171354   0.000000
    22  H    0.149222  -0.000000
    23  H    0.132182   0.000000
    24  H    0.256615  -0.000000
    25  H    0.262274  -0.000000
    26  H    0.171438   0.000000
    27  H    0.149112  -0.000000
    28  H    0.131989   0.000000
 Sum of Mulliken charges =  -2.00000   0.00000

 Dipole moment (field-independent basis, Debye):
    X=             -0.0118    Y=             -1.5920    Z=              3.8179  Tot=              4.1365
 Quadrupole moment (field-independent basis, Debye-Ang):
   XX=           -118.1190   YY=           -155.3356   ZZ=           -131.5280
   XY=             -2.1991   XZ=             -1.2932   YZ=            -19.4689

  Exact polarizability: 620.617   2.015 334.018   4.417  90.241 218.303
 Approx polarizability: 665.817   3.695 388.316   5.576 111.251 245.782

                      1                      2                      3
                      A                      A                      A
 Frequencies --     38.7732                75.9929                97.5430
 Red. masses --      6.9230                 3.8781                 5.0634
 Frc consts  --      0.0061                 0.0132                 0.0284
 IR Inten    --     29.4031                 0.8457                 2.2202

                      4                      5                      6
                      A                      A                      A
 Frequencies --    152.7369               163.4907               185.1292
 Red. masses --      6.8323                 4.7946                 4.8667
 Frc consts  --      0.0939                 0.0755                 0.0983
 IR Inten    --      6.8782                29.0324                 4.7376

                      7                      8                      9
                      A                      A                      A
 Frequencies --    227.4949               244.3115               250.8345
 Red. masses --      3.2477                 1.0884                 1.2242
 Frc consts  --      0.0990                 0.0383                 0.0454
 IR Inten    --      0.1442               141.3649                23.5659

                     10                     11                     12
                      A                      A                      A
 Frequencies --    277.7644               314.9639               328.1320
 Red. masses --      4.9136                 6.3892                 5.3849
 Frc consts  --      0.2234                 0.3734                 0.3416
 IR Inten    --     12.9642                 0.1046                 8.0250

                     13                     14                     15
                      A                      A                      A
 Frequencies --    331.2801               378.3702               383.2777
 Red. masses --      8.8875                 5.2397                 4.0654
 Frc consts  --      0.5747                 0.4420                 0.3519
 IR Inten    --      4.5860                 0.4584                33.1012

                     16                     17                     18
                      A                      A                      A
 Frequencies --    419.1989               447.5050               456.7759
 Red. masses --      3.0649                 6.7824                 4.8953
 Frc consts  --      0.3173                 0.8003                 0.6018
 IR Inten    --     18.4019                19.8324                 0.3599

                     19                     20                     21
                      A                      A                      A
 Frequencies --    465.8208               495.0251               536.4195
 Red. masses --      2.8526                11.0961                 6.0406
 Frc consts  --      0.3647                 1.6020                 1.0241
 IR Inten    --      0.3820                 0.0095                66.5298

                     22                     23                     24
                      A                      A                      A
 Frequencies --    558.8267               638.8468               646.5451
 Red. masses --      3.0157                 6.3759                 2.9444
 Frc consts  --      0.5549                 1.5331                 0.7252
 IR Inten    --     96.5765                 2.7611               181.4970

                     25                     26                     27
                      A                      A                      A
 Frequencies --    652.8082               696.2353               703.4605
 Red. masses --      6.4898                 6.2930                 2.2633
 Frc consts  --      1.6295                 1.7973                 0.6599
 IR Inten    --     22.7609                 0.1429                 8.6690

                     28                     29                     30
                      A                      A                      A
 Frequencies --    709.8373               716.6727               744.6323
 Red. masses --      3.4500                 4.2336                 1.8540
 Frc consts  --      1.0242                 1.2812                 0.6057
 IR Inten    --    639.9272                28.5597               324.8948

                     31                     32                     33
                      A                      A                      A
 Frequencies --    746.7382               771.0849               796.0443
 Red. masses --      2.3077                 1.8529                 1.8713
 Frc consts  --      0.7582                 0.6491                 0.6986
 IR Inten    --    185.7014                97.6773                54.2910

                     34                     35                     36
                      A                      A                      A
 Frequencies --    810.3309               817.9420               870.9515
 Red. masses --      2.9574                 3.3464                 5.4469
 Frc consts  --      1.1441                 1.3191                 2.4344
 IR Inten    --     49.5015                17.5219               127.2691

                     37                     38                     39
                      A                      A                      A
 Frequencies --    878.8565               881.9931               956.7799
 Red. masses --      1.5934                 1.6302                 1.3366
 Frc consts  --      0.7251                 0.7472                 0.7209
 IR Inten    --     41.9117                68.5341                 0.4894

                     40                     41                     42
                      A                      A                      A
 Frequencies --    958.4614               963.0214               973.9869
 Red. masses --      1.3533                 2.2038                 3.3112
 Frc consts  --      0.7325                 1.2042                 1.8507
 IR Inten    --      2.7942                25.8196                 0.0086

                     43                     44                     45
                      A                      A                      A
 Frequencies --   1071.2285              1098.0477              1101.1007
 Red. masses --      3.9055                 1.5718                 1.6459
 Frc consts  --      2.6405                 1.1166                 1.1757
 IR Inten    --    867.2654               206.0416                 1.9997

                     46                     47                     48
                      A                      A                      A
 Frequencies --   1126.3588              1135.4933              1141.5487
 Red. masses --      1.3688                 1.7302                 2.0143
 Frc consts  --      1.0231                 1.3144                 1.5466
 IR Inten    --      0.2148                74.1698                 0.2701

                     49                     50                     51
                      A                      A                      A
 Frequencies --   1176.6629              1185.1353              1228.9932
 Red. masses --      1.8719                 1.7328                 3.1006
 Frc consts  --      1.5270                 1.4339                 2.7593
 IR Inten    --   1575.8569                 3.9542                83.6198

                     52                     53                     54
                      A                      A                      A
 Frequencies --   1246.1249              1271.2621              1306.4972
 Red. masses --      5.2351                 2.4522                 5.9828
 Frc consts  --      4.7896                 2.3350                 6.0169
 IR Inten    --      0.1314               107.7275                 0.1717

                     55                     56                     57
                      A                      A                      A
 Frequencies --   1338.9464              1353.1143              1356.1299
 Red. masses --      4.5013                 1.9437                 6.4831
 Frc consts  --      4.7546                 2.0968                 7.0248
 IR Inten    --   2502.0078                 1.7097               841.0964

                     58                     59                     60
                      A                      A                      A
 Frequencies --   1436.9707              1447.6726              1468.3665
 Red. masses --      3.5247                 9.1190                 3.3784
 Frc consts  --      4.2881                11.2599                 4.2917
 IR Inten    --    118.1889                 0.0358               194.6144

                     61                     62                     63
                      A                      A                      A
 Frequencies --   1489.5318              1507.6823              1536.2188
 Red. masses --      3.6216                 5.8684                 5.5901
 Frc consts  --      4.7342                 7.8595                 7.7727
 IR Inten    --      0.0301                 0.1996                33.6276

                     64                     65                     66
                      A                      A                      A
 Frequencies --   1578.5711              1626.7919              1627.2505
 Red. masses --      7.4791                 4.4958                 4.2759
 Frc consts  --     10.9806                 7.0100                 6.6710
 IR Inten    --      0.0442               629.0100                19.2994

                     67                     68                     69
                      A                      A                      A
 Frequencies --   1643.5825              1643.9060              3136.5047
 Red. masses --      1.1915                 1.2073                 1.0868
 Frc consts  --      1.8963                 1.9223                 6.2994
 IR Inten    --    263.8517                45.4403                58.5283

                     70                     71                     72
                      A                      A                      A
 Frequencies --   3136.7805              3150.6985              3151.0148
 Red. masses --      1.0869                 1.0882                 1.0882
 Frc consts  --      6.3009                 6.3645                 6.3661
 IR Inten    --      6.8171               103.2950                 0.4971

                     73                     74                     75
                      A                      A                      A
 Frequencies --   3162.5143              3163.0083              3520.4156
 Red. masses --      1.0933                 1.0932                 1.0491
 Frc consts  --      6.4422                 6.4437                 7.6601
 IR Inten    --    111.6037                 2.4527                 3.6216

                     76                     77                     78
                      A                      A                      A
 Frequencies --   3520.5529              3607.6361              3607.8442
 Red. masses --      1.0490                 1.0959                 1.0959
 Frc consts  --      7.6605                 8.4034                 8.4043
 IR Inten    --      3.6997                12.9268                11.1965

 - Thermochemistry -
 -------------------
 Temperature   298.150 Kelvin.  Pressure   1.00000 Atm.
 Atom     1 has atomic number  7 and mass  14.00307

 Molecular mass:   238.07423 amu.
 Principal axes and moments of inertia in atomic units:
                           1         2         3
     Eigenvalues --  1814.915666814.637558624.89149
           X            0.99903  -0.04359  -0.00581
           Y            0.03546   0.87682  -0.47951
           Z            0.02600   0.47884   0.87752
 This molecule is an asymmetric top.
 Rotational symmetry number  1.
 Warning -- assumption of classical behavior for rotation
           may cause significant error
 Rotational temperatures (Kelvin)      0.04772     0.01271     0.01004
 Rotational constants (GHZ):           0.99439     0.26483     0.20925
 Zero-point vibrational energy     544690.0 (Joules/Mol)
                                  130.18403 (Kcal/Mol)
 Warning -- explicit consideration of  22 degrees of freedom as
           vibrations may cause significant error
 Vibrational temperatures:     55.79   109.34   140.34   219.75   235.23
          (Kelvin)            266.36   327.31   351.51   360.89   399.64
                              453.16   472.11   476.64   544.39   551.45
                              603.13   643.86   657.20   670.21   712.23
                              771.79   804.03   919.16   930.23   939.25
                             1001.73  1012.12  1021.30  1031.13  1071.36
                             1074.39  1109.42  1145.33  1165.89  1176.84
                             1253.11  1264.48  1268.99  1376.59  1379.01
                             1385.57  1401.35  1541.26  1579.85  1584.24
                             1620.58  1633.72  1642.43  1692.96  1705.15
                             1768.25  1792.90  1829.06  1879.76  1926.45
                             1946.83  1951.17  2067.48  2082.88  2112.65
                             2143.10  2169.22  2210.28  2271.21  2340.59
                             2341.25  2364.75  2365.21  4512.73  4513.13
                             4533.15  4533.61  4550.15  4550.86  5065.09
                             5065.29  5190.58  5190.88

 Zero-point correction=                           0.207461 (Hartree/Particle)
 Thermal correction to Energy=                    0.221976
 Thermal correction to Enthalpy=                  0.222921
 Thermal correction to Gibbs Free Energy=         0.166494
 Sum of electronic and zero-point Energies=           -799.736041
 Sum of electronic and thermal Energies=              -799.721526
 Sum of electronic and thermal Enthalpies=            -799.720581
 Sum of electronic and thermal Free Energies=         -799.777008

                     E (Thermal)             CV                S
                      KCal/Mol        Cal/Mol-Kelvin    Cal/Mol-Kelvin
 Total                  139.292             58.751            118.761
 Electronic               0.000              0.000              0.000
 Translational            0.889              2.981             42.304
 Rotational               0.889              2.981             33.033
 Vibrational            137.515             52.789             43.424
 Vibration     1          0.594              1.981              5.321
 Vibration     2          0.599              1.965              3.992
 Vibration     3          0.603              1.951              3.503
 Vibration     4          0.619              1.900              2.638
 Vibration     5          0.623              1.887              2.509
 Vibration     6          0.631              1.860              2.276
 Vibration     7          0.651              1.799              1.899
 Vibration     8          0.660              1.772              1.771
 Vibration     9          0.663              1.761              1.725
 Vibration    10          0.679              1.715              1.547
 Vibration    11          0.702              1.645              1.336
 Vibration    12          0.711              1.619              1.269
 Vibration    13          0.714              1.613              1.254
 Vibration    14          0.749              1.516              1.046
 Vibration    15          0.752              1.506              1.026
 Vibration    16          0.782              1.429              0.895
 Vibration    17          0.807              1.366              0.803
 Vibration    18          0.815              1.346              0.776
 Vibration    19          0.823              1.326              0.749
 Vibration    20          0.851              1.261              0.671
 Vibration    21          0.891              1.169              0.573
 Vibration    22          0.914              1.120              0.526

 Optimization completed.
    -- Stationary point found.
 Normal termination of Gaussian 16 at Sat Feb 10 20:17:31 2024.
