 Q-Chem 5.4, Q-Chem, Inc., Pleasanton, CA (2021)
 Q-Chem 5.4.0 for Intel X86 EM64T Linux

User input:
--------------------------------------------------------------
$molecule
-2 1
C                  5.9015280000     -5.2058010000      1.0748490000
C                  6.7798620000     -5.0787980000      0.0140960000
C                  6.5479010000     -4.0847070000     -0.9699890000
C                  4.7670600000     -4.3726900000      1.2180960000
C                  4.5314360000     -3.3627320000      0.2183730000
C                  5.4466000000     -3.2559890000     -0.8552630000
C                  3.8908270000     -4.5768910000      2.3713630000
C                  2.8012840000     -3.6698700000      2.3795930000
C                  2.5683650000     -2.6714420000      1.3913090000
C                  3.3934510000     -2.4447620000      0.2609490000
O                  4.1171830000     -5.4819800000      3.2538610000
O                  3.1996530000     -1.5492900000     -0.6389400000
H                  6.0458390000     -5.9547970000      1.8476070000
H                  7.6437510000     -5.7374300000     -0.0652870000
H                  5.2359020000     -2.4834620000     -1.5885990000
Cl                 1.6668330000     -3.8363560000      3.7549920000
H                  7.2325010000     -3.9749170000     -1.8100330000
Cl                 1.1441790000     -1.5958860000      1.5373240000
$end

$rem
BASIS  =  6-311++G(d,p)
GUI  =  2
JOB_TYPE  =  SP
METHOD  =  B3LYP
SCF_CONVERGENCE  = 8
SOLVENT_METHOD = sm12
$end

$smx
solvent dimethylformamide
charges CM5
$end

--------------------------------------------------------------

             Standard Nuclear Orientation (Angstroms)
    I     Atom           X                Y                Z
 ----------------------------------------------------------------
    1      C       5.9015280000    -5.2058010000     1.0748490000
    2      C       6.7798620000    -5.0787980000     0.0140960000
    3      C       6.5479010000    -4.0847070000    -0.9699890000
    4      C       4.7670600000    -4.3726900000     1.2180960000
    5      C       4.5314360000    -3.3627320000     0.2183730000
    6      C       5.4466000000    -3.2559890000    -0.8552630000
    7      C       3.8908270000    -4.5768910000     2.3713630000
    8      C       2.8012840000    -3.6698700000     2.3795930000
    9      C       2.5683650000    -2.6714420000     1.3913090000
   10      C       3.3934510000    -2.4447620000     0.2609490000
   11      O       4.1171830000    -5.4819800000     3.2538610000
   12      O       3.1996530000    -1.5492900000    -0.6389400000
   13      H       6.0458390000    -5.9547970000     1.8476070000
   14      H       7.6437510000    -5.7374300000    -0.0652870000
   15      H       5.2359020000    -2.4834620000    -1.5885990000
   16      Cl      1.6668330000    -3.8363560000     3.7549920000
   17      H       7.2325010000    -3.9749170000    -1.8100330000
   18      Cl      1.1441790000    -1.5958860000     1.5373240000
 ----------------------------------------------------------------

   17   -1454.4966184266      5.95e-09  Convergence criterion met
 Total energy in the final basis set =    -1454.7673760562

                    Orbital Energies (a.u.)
 --------------------------------------------------------------

 Alpha MOs
 -- Occupied --
********-101.5267 -19.0232 -19.0232 -10.1949 -10.1945 -10.1910 -10.1909
-10.1769 -10.1764 -10.1709 -10.1708 -10.1608 -10.1605  -9.4398  -9.4398
 -7.2041  -7.2041  -7.1952  -7.1952  -7.1944  -7.1944  -0.9456  -0.9412
 -0.8532  -0.8465  -0.8119  -0.7696  -0.7455  -0.7035  -0.6569  -0.6005
 -0.5914  -0.5473  -0.5019  -0.4852  -0.4523  -0.4426  -0.4237  -0.4000
 -0.3993  -0.3985  -0.3686  -0.3659  -0.3552  -0.3456  -0.3383  -0.3269
 -0.3056  -0.2969  -0.2965  -0.2722  -0.2491  -0.2373  -0.2170  -0.2046
 -0.2005  -0.1246

          Ground-State Mulliken Net Atomic Charges

     Atom                 Charge (a.u.)
  ----------------------------------------
      1 C                    -0.322787
      2 C                     1.356120
      3 C                     1.356920
      4 C                    -1.850088
      5 C                    -1.847838
      6 C                    -0.325219
      7 C                    -2.610015
      8 C                     1.421383
      9 C                     1.425304
     10 C                    -2.611334
     11 O                    -0.382046
     12 O                    -0.382000
     13 H                     0.079567
     14 H                     0.397427
     15 H                     0.079241
     16 Cl                    0.908447
     17 H                     0.397455
     18 Cl                    0.909463
  ----------------------------------------
  Sum of atomic charges =    -2.000000

                    Cartesian Multipole Moments
 -----------------------------------------------------------------
    Charge (ESU x 10^10)
                -9.6064
    Dipole Moment (Debye)
         X     -34.1958      Y      33.4355      Z     -13.1209
       Tot      49.5928
    Quadrupole Moments (Debye-Ang)
        XX    -247.4598     XY     131.7401     YY    -250.7397
        XZ     -41.7309     YZ      67.7724     ZZ    -155.9540

 Total job time:  356.13s(wall), 2043.71s(cpu)
        *  Thank you very much for using Q-Chem.  Have a nice day.  *
