 Gaussian 16, Revision A.03,
 Gaussian 16:  ES64L-G16RevA.03 25-Dec-2016

 --------------------------------------
 #P UB3LYP/6-311++G(d,p) nosym opt freq
 --------------------------------------

 -------
 Reduced
 -------
 Symbolic Z-matrix:
 Charge = -2 Multiplicity = 1

 SCF Done:  E(UB3LYP) =  -992.160235986     A.U. after   22 cycles
 SCF Done:  E(UB3LYP) =  -992.160235925     A.U. after   10 cycles
 SCF Done:  E(UB3LYP) =  -992.160196544     A.U. after   10 cycles
 SCF Done:  E(UB3LYP) =  -992.160196546     A.U. after    9 cycles
 Optimization completed.
    -- Stationary point found.
 Normal termination of Gaussian 16 at Wed Dec 27 21:32:00 2023.

 ----------------------------------------------------------------------
 #P Geom=AllCheck Guess=TCheck SCRF=Check GenChk UB3LYP/6-311++G(d,p) F
 req
 ----------------------------------------------------------------------

 Structure from the checkpoint file:  "180-an.chk"
 -------
 Reduced
 -------
 Charge = -2 Multiplicity = 1

                          Input orientation:
 ---------------------------------------------------------------------
 Center     Atomic      Atomic             Coordinates (Angstroms)
 Number     Number       Type             X           Y           Z
 ---------------------------------------------------------------------
      1          6           0       -1.585308    1.927491   -4.708242
      2          6           0       -1.518917    0.572916   -4.933782
      3          6           0       -1.200171   -0.316379   -3.866315
      4          6           0       -1.342966    2.484587   -3.413936
      5          6           0       -1.022966    1.582549   -2.329286
      6          6           0       -0.961464    0.196874   -2.607073
      7          6           0       -1.407952    3.864796   -3.179853
      8          6           0       -0.763122    2.051333   -0.982808
      9          6           0       -1.178230    4.382344   -1.882339
     10          6           0       -0.866610    3.489992   -0.781184
     11          6           0       -1.280597    5.839838   -1.675475
     12          6           0       -1.076535    6.322531   -0.375709
     13          6           0       -0.784306    5.450650    0.694710
     14          6           0       -0.679898    4.099051    0.498266
     15          8           0       -1.707195    4.701460   -4.228814
     16          8           0       -0.461076    1.227367   -0.048955
     17          1           0       -1.825121    2.613696   -5.513195
     18          1           0       -1.708275    0.178138   -5.930672
     19          1           0       -1.144457   -1.387899   -4.046191
     20          1           0       -0.712829   -0.449581   -1.771406
     21          1           0       -0.643495    5.838759    1.700466
     22          8           0       -1.557915    6.629945   -2.675743
     23          8           0       -0.510592    3.298626    1.660534
     24          6           0        0.657181    2.659235    1.865794
     25          6           0        0.447775    1.503251    2.817827
     26          8           0        1.732359    2.992732    1.423051
     27          1           0       -1.152982    7.394225   -0.214230
     28          1           0       -1.698073    5.627186   -3.793009
     29          1           0       -0.027376    0.716001    2.227796
     30          1           0       -0.224969    1.787444    3.632066
     31          1           0        1.406943    1.163741    3.212042
 ---------------------------------------------------------------------

 SCF Done:  E(UB3LYP) =  -992.160196546     A.U. after    1 cycles

 Alpha  occ. eigenvalues --  -18.92826 -18.88144 -18.85740 -18.81204 -18.79605
 Alpha  occ. eigenvalues --  -10.07791  -9.96960  -9.96657  -9.96568  -9.96131
 Alpha  occ. eigenvalues --   -9.95680  -9.94395  -9.93782  -9.93645  -9.93296
 Alpha  occ. eigenvalues --   -9.92338  -9.92317  -9.92144  -9.92096  -9.91583
 Alpha  occ. eigenvalues --   -9.90235  -0.87107  -0.79179  -0.77487  -0.71930
 Alpha  occ. eigenvalues --   -0.71664  -0.61357  -0.58993  -0.54581  -0.53239
 Alpha  occ. eigenvalues --   -0.51154  -0.48913  -0.47356  -0.42977  -0.39107
 Alpha  occ. eigenvalues --   -0.37991  -0.37070  -0.33017  -0.30722  -0.29272
 Alpha  occ. eigenvalues --   -0.27173  -0.26337  -0.25438  -0.24647  -0.22865
 Alpha  occ. eigenvalues --   -0.22559  -0.21734  -0.20724  -0.19841  -0.19233
 Alpha  occ. eigenvalues --   -0.18333  -0.17324  -0.16530  -0.15789  -0.15093
 Alpha  occ. eigenvalues --   -0.14230  -0.13868  -0.13177  -0.12679  -0.11210
 Alpha  occ. eigenvalues --   -0.10931  -0.09991  -0.09326  -0.08685  -0.07413
 Alpha  occ. eigenvalues --   -0.05683  -0.04829  -0.02227  -0.01060   0.00544
 Alpha  occ. eigenvalues --    0.01160   0.03081   0.05001   0.10981
 Alpha virt. eigenvalues --    0.15461   0.15575   0.17291   0.17609   0.18666
 Alpha virt. eigenvalues --    0.19441   0.19670   0.20001   0.20605   0.22038
 Alpha virt. eigenvalues --    0.22209   0.23057   0.23560   0.24447   0.24571

  Beta  occ. eigenvalues --  -18.92826 -18.88144 -18.85740 -18.81204 -18.79605
  Beta  occ. eigenvalues --  -10.07791  -9.96960  -9.96657  -9.96568  -9.96131
  Beta  occ. eigenvalues --   -9.95680  -9.94395  -9.93782  -9.93645  -9.93296
  Beta  occ. eigenvalues --   -9.92338  -9.92317  -9.92144  -9.92096  -9.91583
  Beta  occ. eigenvalues --   -9.90235  -0.87107  -0.79179  -0.77487  -0.71930
  Beta  occ. eigenvalues --   -0.71664  -0.61357  -0.58993  -0.54581  -0.53239
  Beta  occ. eigenvalues --   -0.51154  -0.48913  -0.47356  -0.42977  -0.39107
  Beta  occ. eigenvalues --   -0.37991  -0.37070  -0.33017  -0.30722  -0.29272
  Beta  occ. eigenvalues --   -0.27173  -0.26337  -0.25438  -0.24647  -0.22865
  Beta  occ. eigenvalues --   -0.22559  -0.21734  -0.20724  -0.19841  -0.19233
  Beta  occ. eigenvalues --   -0.18333  -0.17324  -0.16530  -0.15789  -0.15093
  Beta  occ. eigenvalues --   -0.14230  -0.13868  -0.13177  -0.12679  -0.11210
  Beta  occ. eigenvalues --   -0.10931  -0.09991  -0.09326  -0.08685  -0.07413
  Beta  occ. eigenvalues --   -0.05683  -0.04829  -0.02227  -0.01060   0.00544
  Beta  occ. eigenvalues --    0.01160   0.03081   0.05001   0.10981
  Beta virt. eigenvalues --    0.15461   0.15575   0.17291   0.17609   0.18666
  Beta virt. eigenvalues --    0.19441   0.19670   0.20001   0.20605   0.22038
  Beta virt. eigenvalues --    0.22209   0.23057   0.23560   0.24447   0.24571

 Mulliken charges and spin densities:
               1          2
     1  C   -0.200668   0.000000
     2  C   -0.432242  -0.000000
     3  C   -0.398667  -0.000000
     4  C    0.394707   0.000000
     5  C    0.410668   0.000000
     6  C   -0.072708   0.000000
     7  C   -0.378361   0.000000
     8  C   -0.389467  -0.000000
     9  C    0.629689   0.000000
    10  C    0.535677   0.000000
    11  C   -0.835514  -0.000000
    12  C   -0.084480  -0.000000
    13  C    0.152707  -0.000000
    14  C   -0.476072  -0.000000
    15  O   -0.486576   0.000000
    16  O   -0.467985   0.000000
    17  H    0.133206   0.000000
    18  H    0.076408  -0.000000
    19  H    0.083751   0.000000
    20  H    0.122262   0.000000
    21  H    0.094726   0.000000
    22  O   -0.556316  -0.000000
    23  O   -0.020726   0.000000
    24  C   -0.034622   0.000000
    25  C   -0.442888  -0.000000
    26  O   -0.255606  -0.000000
    27  H    0.088188  -0.000000
    28  H    0.401089  -0.000000
    29  H    0.200318  -0.000000
    30  H    0.109640   0.000000
    31  H    0.099862   0.000000
 Sum of Mulliken charges =  -2.00000  -0.00000

 Dipole moment (field-independent basis, Debye):
    X=              7.4972    Y=            -33.5004    Z=             16.0878  Tot=             37.9118
 Quadrupole moment (field-independent basis, Debye-Ang):
   XX=           -154.2928   YY=           -304.7792   ZZ=           -202.8928
   XY=             32.5921   XZ=            -30.0918   YZ=             58.3606

  Exact polarizability: 151.885  -9.085 347.564  42.791  53.744 328.791
 Approx polarizability: 240.640 -19.054 600.197  63.963  78.979 546.755

                      1                      2                      3
                      A                      A                      A
 Frequencies --     40.8386                58.1026                78.0255
 Red. masses --      8.1742                 5.7413                 6.8218
 Frc consts  --      0.0080                 0.0114                 0.0245
 IR Inten    --      2.0427                 0.3675                 2.9169

                      4                      5                      6
                      A                      A                      A
 Frequencies --     92.7298               117.0301               132.7472
 Red. masses --      7.6517                 3.3805                 1.0843
 Frc consts  --      0.0388                 0.0273                 0.0113
 IR Inten    --      1.7165                 7.9894                 0.2948

                      7                      8                      9
                      A                      A                      A
 Frequencies --    141.4330               149.6092               181.6520
 Red. masses --      5.1401                 6.7805                 8.1268
 Frc consts  --      0.0606                 0.0894                 0.1580
 IR Inten    --      0.5552                 1.2940                 1.4745

                     10                     11                     12
                      A                      A                      A
 Frequencies --    222.1589               263.0904               295.8464
 Red. masses --      5.9922                 6.3735                 4.3731
 Frc consts  --      0.1742                 0.2599                 0.2255
 IR Inten    --      8.1027                 0.2597                 2.3714

                     13                     14                     15
                      A                      A                      A
 Frequencies --    321.5703               351.5126               369.9662
 Red. masses --      7.4523                 8.5042                 6.8540
 Frc consts  --      0.4540                 0.6191                 0.5527
 IR Inten    --      5.3616                16.6469                 2.5792

                     16                     17                     18
                      A                      A                      A
 Frequencies --    386.0053               386.9398               404.9490
 Red. masses --      8.7359                 7.4567                 6.2417
 Frc consts  --      0.7669                 0.6578                 0.6030
 IR Inten    --      3.1279                 0.2912                14.4300

                     19                     20                     21
                      A                      A                      A
 Frequencies --    438.3292               443.9850               490.9888
 Red. masses --      5.0285                 4.1252                 7.3521
 Frc consts  --      0.5692                 0.4791                 1.0442
 IR Inten    --      3.0550                 4.3223                11.5585

                     22                     23                     24
                      A                      A                      A
 Frequencies --    499.6693               512.1932               532.8616
 Red. masses --      4.6353                 6.5567                 7.4167
 Frc consts  --      0.6818                 1.0134                 1.2408
 IR Inten    --      3.6550                 3.8085                14.7985

                     25                     26                     27
                      A                      A                      A
 Frequencies --    556.8980               580.5892               598.8142
 Red. masses --      3.2997                 3.4339                 5.4766
 Frc consts  --      0.6029                 0.6820                 1.1570
 IR Inten    --     13.9046                34.6735                15.3923

                     28                     29                     30
                      A                      A                      A
 Frequencies --    609.8808               643.1225               668.6841
 Red. masses --      4.3479                 5.8560                 5.6404
 Frc consts  --      0.9528                 1.4270                 1.4859
 IR Inten    --      3.6396                 2.5757                 5.1937

                     31                     32                     33
                      A                      A                      A
 Frequencies --    698.8236               704.7897               719.7070
 Red. masses --      1.7812                 4.5614                 3.6409
 Frc consts  --      0.5125                 1.3350                 1.1111
 IR Inten    --     17.5171                 5.2881                 0.6733

                     34                     35                     36
                      A                      A                      A
 Frequencies --    735.6278               763.1888               783.1083
 Red. masses --      1.9150                 4.5337                 2.2006
 Frc consts  --      0.6106                 1.5558                 0.7951
 IR Inten    --     51.6547                22.4520                 2.1354

                     37                     38                     39
                      A                      A                      A
 Frequencies --    792.0765               814.7241               834.1783
 Red. masses --      3.0353                 3.6751                 2.7919
 Frc consts  --      1.1220                 1.4373                 1.1446
 IR Inten    --     22.3808                 0.0721                22.2320

                     40                     41                     42
                      A                      A                      A
 Frequencies --    852.1455               891.8830               923.6407
 Red. masses --      2.1915                 6.7354                 6.4200
 Frc consts  --      0.9376                 3.1567                 3.2270
 IR Inten    --     17.1953                48.6558                 5.7838

                     43                     44                     45
                      A                      A                      A
 Frequencies --    936.3674               951.1386               963.0894
 Red. masses --      1.2573                 5.3676                 1.3110
 Frc consts  --      0.6495                 2.8610                 0.7165
 IR Inten    --      2.5643                40.5979                 1.5725

                     46                     47                     48
                      A                      A                      A
 Frequencies --   1002.6706              1012.3261              1022.2199
 Red. masses --      1.0515                 2.3166                 1.7813
 Frc consts  --      0.6229                 1.3988                 1.0967
 IR Inten    --     63.9525                44.4609                91.0669

                     49                     50                     51
                      A                      A                      A
 Frequencies --   1043.0189              1057.5257              1086.3135
 Red. masses --      1.7757                 2.1736                 2.9724
 Frc consts  --      1.1382                 1.4322                 2.0667
 IR Inten    --     40.0766               104.0009                54.9379

                     52                     53                     54
                      A                      A                      A
 Frequencies --   1124.7591              1144.6747              1158.8727
 Red. masses --      1.6146                 1.6330                 2.1306
 Frc consts  --      1.2035                 1.2607                 1.6858
 IR Inten    --     77.8470                42.5147                11.0582

                     55                     56                     57
                      A                      A                      A
 Frequencies --   1196.4465              1219.0925              1242.9076
 Red. masses --      2.1907                 3.0476                 3.2364
 Frc consts  --      1.8477                 2.6686                 2.9457
 IR Inten    --     33.9768               205.2515               262.1282

                     58                     59                     60
                      A                      A                      A
 Frequencies --   1248.6918              1284.7744              1312.1413
 Red. masses --      2.4678                 5.4045                 3.4732
 Frc consts  --      2.2671                 5.2560                 3.5232
 IR Inten    --    111.9571                42.0752               102.5249

                     61                     62                     63
                      A                      A                      A
 Frequencies --   1324.1971              1352.8427              1360.2028
 Red. masses --      4.8293                 2.9645                 1.8718
 Frc consts  --      4.9893                 3.1966                 2.0404
 IR Inten    --     19.6284               292.0152               120.5217

                     64                     65                     66
                      A                      A                      A
 Frequencies --   1379.0063              1409.9350              1439.3941
 Red. masses --      3.5092                 3.0739                 4.4127
 Frc consts  --      3.9318                 3.6003                 5.3866
 IR Inten    --     41.8594               235.5234                57.5409

                     67                     68                     69
                      A                      A                      A
 Frequencies --   1454.4265              1464.3496              1482.6793
 Red. masses --      2.6164                 1.1778                 1.2395
 Frc consts  --      3.2609                 1.4881                 1.6054
 IR Inten    --    625.9537                53.9286                67.9504

                     70                     71                     72
                      A                      A                      A
 Frequencies --   1486.1970              1502.7410              1526.0419
 Red. masses --      2.6813                 3.1582                 6.5322
 Frc consts  --      3.4894                 4.2020                 8.9627
 IR Inten    --    385.5233                 5.8505               223.6153

                     73                     74                     75
                      A                      A                      A
 Frequencies --   1568.5117              1597.5405              1610.6916
 Red. masses --      5.6201                 6.3351                 5.8605
 Frc consts  --      8.1465                 9.5260                 8.9579
 IR Inten    --     36.0743                73.6705                12.6729

                     76                     77                     78
                      A                      A                      A
 Frequencies --   1658.2674              1768.9096              2677.4796
 Red. masses --      1.7144                11.2623                 1.0807
 Frc consts  --      2.7776                20.7630                 4.5644
 IR Inten    --     33.5311               312.4474               669.0845

                     79                     80                     81
                      A                      A                      A
 Frequencies --   3025.3938              3096.3981              3097.5160
 Red. masses --      1.0336                 1.0831                 1.0999
 Frc consts  --      5.5742                 6.1185                 6.2179
 IR Inten    --     82.2505                43.0457                25.7643

                     82                     83                     84
                      A                      A                      A
 Frequencies --   3119.2308              3120.9286              3121.7354
 Red. masses --      1.1036                 1.0902                 1.0852
 Frc consts  --      6.3262                 6.2565                 6.2310
 IR Inten    --     14.9538               106.0023                50.0664

                     85                     86                     87
                      A                      A                      A
 Frequencies --   3144.8847              3163.0880              3170.0457
 Red. masses --      1.0925                 1.0907                 1.0912
 Frc consts  --      6.3662                 6.4295                 6.4611
 IR Inten    --     98.0346                31.9755                40.4572

 - Thermochemistry -
 -------------------
 Temperature   298.150 Kelvin.  Pressure   1.00000 Atm.
 Atom     1 has atomic number  6 and mass  12.00000

 Molecular mass:   282.05282 amu.
 Principal axes and moments of inertia in atomic units:
                           1         2         3
     Eigenvalues --  4159.469356172.403599935.18206
           X            0.27475  -0.17827   0.94485
           Y            0.20562   0.97082   0.12338
           Z            0.93927  -0.16038  -0.30339
 This molecule is an asymmetric top.
 Rotational symmetry number  1.
 Warning -- assumption of classical behavior for rotation
           may cause significant error
 Rotational temperatures (Kelvin)      0.02082     0.01403     0.00872
 Rotational constants (GHZ):           0.43389     0.29239     0.18165
 Zero-point vibrational energy     575486.2 (Joules/Mol)
                                  137.54451 (Kcal/Mol)
 Warning -- explicit consideration of  28 degrees of freedom as
           vibrations may cause significant error
 Vibrational temperatures:     58.76    83.60   112.26   133.42   168.38
          (Kelvin)            190.99   203.49   215.25   261.36   319.64
                              378.53   425.66   462.67   505.75   532.30
                              555.38   556.72   582.63   630.66   638.80
                              706.42   718.91   736.93   766.67   801.25
                              835.34   861.56   877.48   925.31   962.09
                             1005.45  1014.04  1035.50  1058.40  1098.06
                             1126.72  1139.62  1172.21  1200.20  1226.05
                             1283.22  1328.91  1347.22  1368.48  1385.67
                             1442.62  1456.51  1470.75  1500.67  1521.54
                             1562.96  1618.28  1646.93  1667.36  1721.42
                             1754.00  1788.27  1796.59  1848.50  1887.88
                             1905.22  1946.44  1957.03  1984.08  2028.58
                             2070.97  2092.60  2106.87  2133.24  2138.31
                             2162.11  2195.63  2256.74  2298.50  2317.43
                             2385.88  2545.07  3852.30  4352.87  4455.03
                             4456.63  4487.88  4490.32  4491.48  4524.79
                             4550.98  4560.99

 Zero-point correction=                           0.219191 (Hartree/Particle)
 Thermal correction to Energy=                    0.235867
 Thermal correction to Enthalpy=                  0.236811
 Thermal correction to Gibbs Free Energy=         0.174928
 Sum of electronic and zero-point Energies=           -991.941005
 Sum of electronic and thermal Energies=              -991.924330
 Sum of electronic and thermal Enthalpies=            -991.923386
 Sum of electronic and thermal Free Energies=         -991.985268

                     E (Thermal)             CV                S
                      KCal/Mol        Cal/Mol-Kelvin    Cal/Mol-Kelvin
 Total                  148.008             66.113            130.242
 Electronic               0.000              0.000              0.000
 Translational            0.889              2.981             42.809
 Rotational               0.889              2.981             33.900
 Vibrational            146.231             60.152             53.534
 Vibration     1          0.594              1.981              5.218
 Vibration     2          0.596              1.974              4.521
 Vibration     3          0.599              1.964              3.940
 Vibration     4          0.602              1.954              3.602
 Vibration     5          0.608              1.935              3.149
 Vibration     6          0.613              1.921              2.906
 Vibration     7          0.615              1.912              2.784
 Vibration     8          0.618              1.903              2.677
 Vibration     9          0.630              1.865              2.311
 Vibration    10          0.648              1.807              1.941
 Vibration    11          0.670              1.740              1.641
 Vibration    12          0.690              1.681              1.440
 Vibration    13          0.707              1.632              1.302
 Vibration    14          0.728              1.572              1.159
 Vibration    15          0.742              1.534              1.080
 Vibration    16          0.755              1.500              1.016
 Vibration    17          0.755              1.498              1.012
 Vibration    18          0.770              1.459              0.945
 Vibration    19          0.798              1.387              0.832
 Vibration    20          0.803              1.374              0.814
 Vibration    21          0.847              1.270              0.681
 Vibration    22          0.855              1.251              0.659
 Vibration    23          0.867              1.223              0.628
 Vibration    24          0.888              1.177              0.581
 Vibration    25          0.912              1.125              0.530
 Vibration    26          0.937              1.073              0.484
 Vibration    27          0.957              1.034              0.452
 Vibration    28          0.969              1.011              0.433

                           ! Non-Optimized Parameters !
 Normal termination of Gaussian 16 at Wed Dec 27 23:19:59 2023.
