 Q-Chem 5.4, Q-Chem, Inc., Pleasanton, CA (2021)
 Q-Chem 5.4.0 for Intel X86 EM64T Linux

User input:
--------------------------------------------------------------
$molecule
-2 1
C                 -1.5853080000      1.9274910000     -4.7082420000
C                 -1.5189170000      0.5729160000     -4.9337820000
C                 -1.2001710000     -0.3163790000     -3.8663150000
C                 -1.3429660000      2.4845870000     -3.4139360000
C                 -1.0229660000      1.5825490000     -2.3292860000
C                 -0.9614640000      0.1968740000     -2.6070730000
C                 -1.4079520000      3.8647960000     -3.1798530000
C                 -0.7631220000      2.0513330000     -0.9828080000
C                 -1.1782300000      4.3823440000     -1.8823390000
C                 -0.8666100000      3.4899920000     -0.7811840000
C                 -1.2805970000      5.8398380000     -1.6754750000
C                 -1.0765350000      6.3225310000     -0.3757090000
C                 -0.7843060000      5.4506500000      0.6947100000
C                 -0.6798980000      4.0990510000      0.4982660000
O                 -1.7071950000      4.7014600000     -4.2288140000
O                 -0.4610760000      1.2273670000     -0.0489550000
H                 -1.8251210000      2.6136960000     -5.5131950000
H                 -1.7082750000      0.1781380000     -5.9306720000
H                 -1.1444570000     -1.3878990000     -4.0461910000
H                 -0.7128290000     -0.4495810000     -1.7714060000
H                 -0.6434950000      5.8387590000      1.7004660000
O                 -1.5579150000      6.6299450000     -2.6757430000
O                 -0.5105920000      3.2986260000      1.6605340000
C                  0.6571810000      2.6592350000      1.8657940000
C                  0.4477750000      1.5032510000      2.8178270000
O                  1.7323590000      2.9927320000      1.4230510000
H                 -1.1529820000      7.3942250000     -0.2142300000
H                 -1.6980730000      5.6271860000     -3.7930090000
H                 -0.0273760000      0.7160010000      2.2277960000
H                 -0.2249690000      1.7874440000      3.6320660000
H                  1.4069430000      1.1637410000      3.2120420000
$end

$rem
BASIS  =  6-311++G(d,p)
GUI  =  2
JOB_TYPE  =  SP
METHOD  =  B3LYP
SCF_CONVERGENCE  = 8
SOLVENT_METHOD = sm12
$end

$smx
solvent dimethylformamide
charges CM5
$end

--------------------------------------------------------------

             Standard Nuclear Orientation (Angstroms)
    I     Atom           X                Y                Z
 ----------------------------------------------------------------
    1      C      -1.5853080000     1.9274910000    -4.7082420000
    2      C      -1.5189170000     0.5729160000    -4.9337820000
    3      C      -1.2001710000    -0.3163790000    -3.8663150000
    4      C      -1.3429660000     2.4845870000    -3.4139360000
    5      C      -1.0229660000     1.5825490000    -2.3292860000
    6      C      -0.9614640000     0.1968740000    -2.6070730000
    7      C      -1.4079520000     3.8647960000    -3.1798530000
    8      C      -0.7631220000     2.0513330000    -0.9828080000
    9      C      -1.1782300000     4.3823440000    -1.8823390000
   10      C      -0.8666100000     3.4899920000    -0.7811840000
   11      C      -1.2805970000     5.8398380000    -1.6754750000
   12      C      -1.0765350000     6.3225310000    -0.3757090000
   13      C      -0.7843060000     5.4506500000     0.6947100000
   14      C      -0.6798980000     4.0990510000     0.4982660000
   15      O      -1.7071950000     4.7014600000    -4.2288140000
   16      O      -0.4610760000     1.2273670000    -0.0489550000
   17      H      -1.8251210000     2.6136960000    -5.5131950000
   18      H      -1.7082750000     0.1781380000    -5.9306720000
   19      H      -1.1444570000    -1.3878990000    -4.0461910000
   20      H      -0.7128290000    -0.4495810000    -1.7714060000
   21      H      -0.6434950000     5.8387590000     1.7004660000
   22      O      -1.5579150000     6.6299450000    -2.6757430000
   23      O      -0.5105920000     3.2986260000     1.6605340000
   24      C       0.6571810000     2.6592350000     1.8657940000
   25      C       0.4477750000     1.5032510000     2.8178270000
   26      O       1.7323590000     2.9927320000     1.4230510000
   27      H      -1.1529820000     7.3942250000    -0.2142300000
   28      H      -1.6980730000     5.6271860000    -3.7930090000
   29      H      -0.0273760000     0.7160010000     2.2277960000
   30      H      -0.2249690000     1.7874440000     3.6320660000
   31      H       1.4069430000     1.1637410000     3.2120420000
 ----------------------------------------------------------------

   18    -992.1533924072      3.88e-09  Convergence criterion met
 Total energy in the final basis set =     -992.4193962132

                    Orbital Energies (a.u.)
 --------------------------------------------------------------

 Alpha MOs
 -- Occupied --
-19.1542 -19.1000 -19.0995 -19.0537 -19.0370 -10.2947 -10.2087 -10.2081
-10.2040 -10.2000 -10.1775 -10.1735 -10.1724 -10.1710 -10.1663 -10.1660
-10.1651 -10.1636 -10.1618 -10.1584 -10.1437  -1.0947  -1.0169  -1.0127
 -0.9613  -0.9583  -0.8520  -0.8286  -0.7817  -0.7506  -0.7481  -0.7287
 -0.7063  -0.6678  -0.6293  -0.6188  -0.6009  -0.5698  -0.5440  -0.5301
 -0.5018  -0.4877  -0.4779  -0.4716  -0.4608  -0.4582  -0.4493  -0.4383
 -0.4290  -0.4201  -0.4099  -0.4070  -0.4015  -0.3850  -0.3836  -0.3765
 -0.3721  -0.3682  -0.3627  -0.3508  -0.3481  -0.3384  -0.3318  -0.3250
 -0.3044  -0.2906  -0.2700  -0.2621  -0.2495  -0.2379  -0.2289  -0.2092
 -0.1915  -0.1317

          Ground-State Mulliken Net Atomic Charges

     Atom                 Charge (a.u.)
  ----------------------------------------
      1 C                     0.249181
      2 C                     1.735525
      3 C                     1.488241
      4 C                    -1.041026
      5 C                    -1.224333
      6 C                     0.341980
      7 C                    -1.609784
      8 C                    -1.841708
      9 C                    -1.102614
     10 C                    -1.119611
     11 C                    -1.113511
     12 C                     0.433575
     13 C                     1.675865
     14 C                    -0.550545
     15 O                    -0.301116
     16 O                    -0.236566
     17 H                     0.186620
     18 H                     0.406747
     19 H                     0.377507
     20 H                     0.141140
     21 H                     0.289694
     22 O                    -0.424935
     23 O                     0.086551
     24 C                    -0.149257
     25 C                     0.326974
     26 O                    -0.265950
     27 H                     0.202752
     28 H                     0.410830
     29 H                     0.166693
     30 H                     0.225324
     31 H                     0.235756
  ----------------------------------------
  Sum of atomic charges =    -2.000000

                    Cartesian Multipole Moments
 -----------------------------------------------------------------
    Charge (ESU x 10^10)
                -9.6064
    Dipole Moment (Debye)
         X       7.7054      Y     -35.0952      Z      16.1742
       Tot      39.4037
    Quadrupole Moments (Debye-Ang)
        XX    -154.5447     XY      34.6760     YY    -310.0583
        XZ     -28.2295     YZ      63.2953     ZZ    -193.6106

 Total job time:  1047.75s(wall), 8031.35s(cpu)
        *  Thank you very much for using Q-Chem.  Have a nice day.  *
