 Gaussian 16, Revision A.03,
 Gaussian 16:  ES64L-G16RevA.03 25-Dec-2016

 ----------------------------------------------------------------
 #P UB3LYP/6-311++G(d,p) SCRF=(PCM,Solvent=n,n-DiMethylFormamide)
 ----------------------------------------------------------------

 ------------------
 Quinone PCM in DMF
 ------------------
 Symbolic Z-matrix:
 Charge =  0 Multiplicity = 1

                         Standard orientation:
 ---------------------------------------------------------------------
 Center     Atomic      Atomic             Coordinates (Angstroms)
 Number     Number       Type             X           Y           Z
 ---------------------------------------------------------------------
      1          6           0       -1.433691   -1.226636   -0.000012
      2          6           0       -0.691987   -2.412691   -0.000337
      3          6           0        0.691957   -2.412685   -0.000392
      4          6           0       -0.713056   -0.011873    0.000005
      5          6           0        0.713031   -0.011850    0.000075
      6          6           0        1.433684   -1.226627   -0.000118
      7          6           0       -1.450598    1.289729   -0.000184
      8          6           0       -0.667370    2.544874   -0.000284
      9          6           0        0.667436    2.544911    0.000025
     10          6           0        1.450616    1.289761    0.000164
     11          8           0       -2.671792    1.365448   -0.000167
     12          8           0        2.671822    1.365429    0.000207
     13          6           0       -2.938490   -1.337976    0.000614
     14          1           0       -1.221941   -3.359192   -0.000505
     15          1           0        1.255703    3.455990    0.000066
     16          6           0        2.938442   -1.338090    0.000142
     17          1           0        1.221911   -3.359184   -0.000626
     18          1           0       -3.226742   -2.391315    0.001607
     19          1           0       -3.381719   -0.851520   -0.870238
     20          1           0       -3.381155   -0.849838    0.870740
     21          1           0       -1.255740    3.455890   -0.000474
     22          1           0        3.381249   -0.851255    0.871004
     23          1           0        3.381698   -0.850238   -0.869862
     24          1           0        3.226647   -2.391432   -0.000216
 ---------------------------------------------------------------------

 SCF Done:  E(UB3LYP) =  -613.913634856     A.U. after   14 cycles

 The electronic state is 1-A.
 Alpha  occ. eigenvalues --  -19.13200 -19.13199 -10.28232 -10.28231 -10.21035
 Alpha  occ. eigenvalues --  -10.21015 -10.20983 -10.20961 -10.20867 -10.20782
 Alpha  occ. eigenvalues --  -10.19280 -10.19222 -10.16923 -10.16923  -1.06652
 Alpha  occ. eigenvalues --   -1.06469  -0.89067  -0.84106  -0.80846  -0.77485
 Alpha  occ. eigenvalues --   -0.73071  -0.70817  -0.66455  -0.64428  -0.63595
 Alpha  occ. eigenvalues --   -0.56089  -0.53464  -0.52953  -0.50502  -0.48889
 Alpha  occ. eigenvalues --   -0.46417  -0.45820  -0.45639  -0.43255  -0.43106
 Alpha  occ. eigenvalues --   -0.42767  -0.41658  -0.41469  -0.40395  -0.40045
 Alpha  occ. eigenvalues --   -0.38190  -0.37645  -0.36635  -0.36178  -0.30743
 Alpha  occ. eigenvalues --   -0.28067  -0.27991  -0.27185  -0.26158
 Alpha virt. eigenvalues --   -0.12443  -0.04991  -0.03580  -0.00632   0.00540
 Alpha virt. eigenvalues --    0.00599   0.01605   0.01838   0.02733   0.03377
 Alpha virt. eigenvalues --    0.03782   0.04087   0.04565   0.05493   0.05807

  Beta  occ. eigenvalues --  -19.13200 -19.13199 -10.28232 -10.28231 -10.21035
  Beta  occ. eigenvalues --  -10.21015 -10.20983 -10.20961 -10.20867 -10.20782
  Beta  occ. eigenvalues --  -10.19280 -10.19222 -10.16923 -10.16923  -1.06652
  Beta  occ. eigenvalues --   -1.06469  -0.89067  -0.84106  -0.80846  -0.77485
  Beta  occ. eigenvalues --   -0.73071  -0.70817  -0.66455  -0.64428  -0.63595
  Beta  occ. eigenvalues --   -0.56089  -0.53464  -0.52953  -0.50502  -0.48889
  Beta  occ. eigenvalues --   -0.46417  -0.45820  -0.45639  -0.43255  -0.43106
  Beta  occ. eigenvalues --   -0.42767  -0.41658  -0.41469  -0.40395  -0.40045
  Beta  occ. eigenvalues --   -0.38190  -0.37645  -0.36635  -0.36178  -0.30743
  Beta  occ. eigenvalues --   -0.28067  -0.27991  -0.27185  -0.26158
  Beta virt. eigenvalues --   -0.12443  -0.04991  -0.03580  -0.00632   0.00540
  Beta virt. eigenvalues --    0.00599   0.01605   0.01838   0.02733   0.03377
  Beta virt. eigenvalues --    0.03782   0.04087   0.04565   0.05493   0.05807

 Mulliken charges and spin densities:
               1          2
     1  C    1.187341  -0.000000
     2  C   -0.629363  -0.000000
     3  C   -0.629429  -0.000000
     4  C    0.255754  -0.000000
     5  C    0.255791   0.000000
     6  C    1.187529   0.000000
     7  C   -0.943500   0.000000
     8  C   -0.191787   0.000000
     9  C   -0.191791  -0.000000
    10  C   -0.943468   0.000000
    11  O   -0.266220   0.000000
    12  O   -0.266233  -0.000000
    13  C   -0.312381   0.000000
    14  H    0.163267   0.000000
    15  H    0.230339   0.000000
    16  C   -0.312374  -0.000000
    17  H    0.163257  -0.000000
    18  H    0.156572  -0.000000
    19  H    0.174970  -0.000000
    20  H    0.174916  -0.000000
    21  H    0.230336  -0.000000
    22  H    0.174972   0.000000
    23  H    0.174922   0.000000
    24  H    0.156580   0.000000
 Sum of Mulliken charges =  -0.00000   0.00000

 Dipole moment (field-independent basis, Debye):
    X=             -0.0001    Y=             -2.5080    Z=              0.0000  Tot=              2.5080
 Quadrupole moment (field-independent basis, Debye-Ang):
   XX=            -95.6638   YY=            -68.4778   ZZ=            -82.8451
   XY=              0.0000   XZ=             -0.0012   YZ=              0.0002

 Normal termination of Gaussian 16 at Sun Jan 21 07:57:37 2024.
