 Q-Chem 5.4, Q-Chem, Inc., Pleasanton, CA (2021)
 Q-Chem 5.4.0 for Intel X86 EM64T Linux

User input:
--------------------------------------------------------------
$molecule
-1 2
N                 -2.9464940000     -1.8443350000     -0.3018860000
C                 -2.5485220000     -0.5290670000     -0.1350480000
C                 -3.5046240000      0.4810400000     -0.0131900000
C                 -3.1221710000      1.8077570000      0.2229290000
C                 -1.7879560000      2.1440020000      0.3449150000
C                 -0.7897110000      1.1579180000      0.2141860000
C                  0.6111680000      1.6006190000      0.3414440000
O                  0.8689200000      2.8023160000      0.5688880000
C                  1.6489440000      0.5742440000      0.1833930000
C                  3.0450110000      0.8258650000      0.2901360000
Cl                 3.7095790000      2.4283170000      0.6603540000
C                  3.9953320000     -0.1620460000      0.1188170000
C                  3.5973280000     -1.4785970000     -0.1738620000
C                  2.2575510000     -1.7745730000     -0.2841990000
C                  1.2723530000     -0.7808170000     -0.1094960000
C                 -0.1240010000     -1.2038740000     -0.2395320000
O                 -0.3871880000     -2.4137840000     -0.5256010000
C                 -1.1524090000     -0.1975830000     -0.0412830000
H                 -3.8522370000     -1.9876230000     -0.7199060000
H                 -2.1828230000     -2.4678890000     -0.5685130000
H                 -4.5568610000      0.2183440000     -0.0860480000
H                 -3.8872550000      2.5733150000      0.3166550000
H                 -1.4682560000      3.1599100000      0.5358450000
H                  5.0437290000      0.0921480000      0.2138730000
H                  4.3495630000     -2.2495390000     -0.3074080000
H                  1.9110290000     -2.7760700000     -0.5054610000
$end
$rem
MAX_SCF_CYCLES=200
BASIS  =  6-311++G(d,p)
GUI  =  2
JOB_TYPE  =  SP
METHOD  =  B3LYP
SOLVENT_METHOD = PCM
$end
$pcm
theory = CPCM
$end
$solvent
dielectric 37.219
opticaldielectric 1.43
$end

--------------------------------------------------------------

             Standard Nuclear Orientation (Angstroms)
    I     Atom           X                Y                Z
 ----------------------------------------------------------------
    1      N      -2.9464940000    -1.8443350000    -0.3018860000
    2      C      -2.5485220000    -0.5290670000    -0.1350480000
    3      C      -3.5046240000     0.4810400000    -0.0131900000
    4      C      -3.1221710000     1.8077570000     0.2229290000
    5      C      -1.7879560000     2.1440020000     0.3449150000
    6      C      -0.7897110000     1.1579180000     0.2141860000
    7      C       0.6111680000     1.6006190000     0.3414440000
    8      O       0.8689200000     2.8023160000     0.5688880000
    9      C       1.6489440000     0.5742440000     0.1833930000
   10      C       3.0450110000     0.8258650000     0.2901360000
   11      Cl      3.7095790000     2.4283170000     0.6603540000
   12      C       3.9953320000    -0.1620460000     0.1188170000
   13      C       3.5973280000    -1.4785970000    -0.1738620000
   14      C       2.2575510000    -1.7745730000    -0.2841990000
   15      C       1.2723530000    -0.7808170000    -0.1094960000
   16      C      -0.1240010000    -1.2038740000    -0.2395320000
   17      O      -0.3871880000    -2.4137840000    -0.5256010000
   18      C      -1.1524090000    -0.1975830000    -0.0412830000
   19      H      -3.8522370000    -1.9876230000    -0.7199060000
   20      H      -2.1828230000    -2.4678890000    -0.5685130000
   21      H      -4.5568610000     0.2183440000    -0.0860480000
   22      H      -3.8872550000     2.5733150000     0.3166550000
   23      H      -1.4682560000     3.1599100000     0.5358450000
   24      H       5.0437290000     0.0921480000     0.2138730000
   25      H       4.3495630000    -2.2495390000    -0.3074080000
   26      H       1.9110290000    -2.7760700000    -0.5054610000
 ----------------------------------------------------------------

    8   -1204.0940529004      7.85e-06  Convergence criterion met
 Total energy in the final basis set =    -1204.0940529004

                    Orbital Energies (a.u.)
 --------------------------------------------------------------

 Alpha MOs
 -- Occupied --
******** -19.0805 -19.0747 -14.3036 -10.2371 -10.2311 -10.2301 -10.2166
-10.1887 -10.1802 -10.1799 -10.1768 -10.1738 -10.1731 -10.1716 -10.1706
-10.1616 -10.1567  -9.4614  -7.2258  -7.2167  -7.2155  -1.0089  -1.0063
 -0.9122  -0.8863  -0.8444  -0.8301  -0.7863  -0.7435  -0.7395  -0.7277
 -0.6677  -0.6387  -0.6270  -0.5816  -0.5548  -0.5490  -0.5290  -0.4974
 -0.4784  -0.4770  -0.4653  -0.4493  -0.4409  -0.4303  -0.4298  -0.4180
 -0.4132  -0.3994  -0.3940  -0.3809  -0.3779  -0.3624  -0.3584  -0.3523
 -0.3451  -0.3290  -0.3149  -0.3092  -0.2718  -0.2521  -0.2518  -0.2494
 -0.2337  -0.2120  -0.1413

 Beta MOs
 -- Occupied --
******** -19.0758 -19.0695 -14.3033 -10.2370 -10.2291 -10.2283 -10.2165
-10.1879 -10.1794 -10.1792 -10.1761 -10.1738 -10.1724 -10.1717 -10.1702
-10.1607 -10.1563  -9.4613  -7.2258  -7.2166  -7.2155  -1.0003  -0.9975
 -0.9113  -0.8850  -0.8422  -0.8290  -0.7826  -0.7417  -0.7368  -0.7258
 -0.6609  -0.6366  -0.6246  -0.5807  -0.5526  -0.5467  -0.5278  -0.4965
 -0.4770  -0.4741  -0.4643  -0.4483  -0.4396  -0.4299  -0.4190  -0.4154
 -0.4095  -0.3972  -0.3883  -0.3767  -0.3629  -0.3598  -0.3528  -0.3499
 -0.3433  -0.3230  -0.3142  -0.3032  -0.2539  -0.2466  -0.2454  -0.2448
 -0.2293  -0.2046

          Ground-State Mulliken Net Atomic Charges

     Atom                 Charge (a.u.)    Spin (a.u.)
  --------------------------------------------------------
      1 N                    -0.431585       0.010573
      2 C                     0.095263       0.027220
      3 C                    -0.230619       0.076830
      4 C                    -0.488637       0.029481
      5 C                     0.054962       0.063155
      6 C                     0.288777       0.044198
      7 C                    -1.467021       0.086733
      8 O                    -0.364717       0.198361
      9 C                    -0.236277       0.045404
     10 C                     0.961205       0.032421
     11 Cl                    0.336451       0.000621
     12 C                    -0.086318       0.039347
     13 C                    -0.685439       0.055882
     14 C                     0.499120       0.032763
     15 C                     0.270062       0.045042
     16 C                    -0.923638       0.095686
     17 O                    -0.458749       0.175876
     18 C                     0.113994      -0.036497
     19 H                     0.279909      -0.000588
     20 H                     0.321261      -0.002741
     21 H                     0.183479      -0.005495
     22 H                     0.199714      -0.002482
     23 H                     0.162365      -0.003932
     24 H                     0.217393      -0.003132
     25 H                     0.201538      -0.004271
     26 H                     0.187507      -0.000452
  --------------------------------------------------------
  Sum of atomic charges =    -1.000000

                    Cartesian Multipole Moments
 -----------------------------------------------------------------
    Charge (ESU x 10^10)
                -4.8032
    Dipole Moment (Debye)
         X      -3.3762      Y      -4.4521      Z      -1.9166
       Tot       5.9071
    Quadrupole Moments (Debye-Ang)
        XX    -110.4224     XY     -13.6906     YY    -145.0966
        XZ       0.9363     YZ      -3.7242     ZZ    -119.2927

 Total job time:  211.13s(wall), 367.28s(cpu)
        *  Thank you very much for using Q-Chem.  Have a nice day.  *
