 Gaussian 16, Revision A.03,
 Gaussian 16:  ES64L-G16RevA.03 25-Dec-2016

 --------------------------------------
 #P UB3LYP/6-311++G(d,p) nosym opt freq
 --------------------------------------

 -------
 Radical
 -------
 Symbolic Z-matrix:
 Charge = -1 Multiplicity = 2

 SCF Done:  E(UB3LYP) =  -1204.01476655     A.U. after   25 cycles
 Optimization completed.
    -- Stationary point found.
 Normal termination of Gaussian 16 at Wed Dec 27 19:54:29 2023.

 ----------------------------------------------------------------------
 #P Geom=AllCheck Guess=TCheck SCRF=Check GenChk UB3LYP/6-311++G(d,p) F
 req
 ----------------------------------------------------------------------

 Structure from the checkpoint file:  "152-rad.chk"
 -------
 Radical
 -------
 Charge = -1 Multiplicity = 2

                          Input orientation:
 ---------------------------------------------------------------------
 Center     Atomic      Atomic             Coordinates (Angstroms)
 Number     Number       Type             X           Y           Z
 ---------------------------------------------------------------------
      1          7           0       -2.946494   -1.844335   -0.301886
      2          6           0       -2.548522   -0.529067   -0.135048
      3          6           0       -3.504624    0.481040   -0.013190
      4          6           0       -3.122171    1.807757    0.222929
      5          6           0       -1.787956    2.144002    0.344915
      6          6           0       -0.789711    1.157918    0.214186
      7          6           0        0.611168    1.600619    0.341444
      8          8           0        0.868920    2.802316    0.568888
      9          6           0        1.648944    0.574244    0.183393
     10          6           0        3.045011    0.825865    0.290136
     11         17           0        3.709579    2.428317    0.660354
     12          6           0        3.995332   -0.162046    0.118817
     13          6           0        3.597328   -1.478597   -0.173862
     14          6           0        2.257551   -1.774573   -0.284199
     15          6           0        1.272353   -0.780817   -0.109496
     16          6           0       -0.124001   -1.203874   -0.239532
     17          8           0       -0.387188   -2.413784   -0.525601
     18          6           0       -1.152409   -0.197583   -0.041283
     19          1           0       -3.852237   -1.987623   -0.719906
     20          1           0       -2.182823   -2.467889   -0.568513
     21          1           0       -4.556861    0.218344   -0.086048
     22          1           0       -3.887255    2.573315    0.316655
     23          1           0       -1.468256    3.159910    0.535845
     24          1           0        5.043729    0.092148    0.213873
     25          1           0        4.349563   -2.249539   -0.307408
     26          1           0        1.911029   -2.776070   -0.505461
 ---------------------------------------------------------------------

 SCF Done:  E(UB3LYP) =  -1204.01476655     A.U. after    2 cycles

 Alpha  occ. eigenvalues -- -101.42612 -18.95533 -18.94676 -14.19409 -10.12010
 Alpha  occ. eigenvalues --  -10.10623 -10.10318 -10.10152 -10.06796 -10.06686
 Alpha  occ. eigenvalues --  -10.06552 -10.06003 -10.05831 -10.05578 -10.05451
 Alpha  occ. eigenvalues --  -10.05270 -10.05077 -10.03936  -9.34085  -7.10541
 Alpha  occ. eigenvalues --   -7.09605  -7.09499  -0.88220  -0.87763  -0.80032
 Alpha  occ. eigenvalues --   -0.76738  -0.72566  -0.71247  -0.66931  -0.62741
 Alpha  occ. eigenvalues --   -0.62057  -0.61120  -0.54866  -0.52296  -0.51103
 Alpha  occ. eigenvalues --   -0.46710  -0.43761  -0.43387  -0.41336  -0.38605
 Alpha  occ. eigenvalues --   -0.36383  -0.35792  -0.35267  -0.33483  -0.32476
 Alpha  occ. eigenvalues --   -0.31259  -0.30621  -0.29885  -0.28684  -0.28088
 Alpha  occ. eigenvalues --   -0.27364  -0.26577  -0.25509  -0.24565  -0.23985
 Alpha  occ. eigenvalues --   -0.23607  -0.22641  -0.20891  -0.19225  -0.19155
 Alpha  occ. eigenvalues --   -0.15009  -0.13446  -0.13216  -0.12426  -0.10567
 Alpha  occ. eigenvalues --   -0.09447  -0.01800
 Alpha virt. eigenvalues --    0.06638   0.07807   0.08298   0.08971   0.09383
 Alpha virt. eigenvalues --    0.10438   0.11176   0.11653   0.12122   0.12826
 Alpha virt. eigenvalues --    0.13594   0.14962   0.15093   0.15530   0.16054

  Beta  occ. eigenvalues -- -101.42611 -18.94998 -18.94068 -14.19391 -10.12024
  Beta  occ. eigenvalues --  -10.10444 -10.10217 -10.10150 -10.06685 -10.06620
  Beta  occ. eigenvalues --  -10.06485 -10.05891 -10.05775 -10.05590 -10.05448
  Beta  occ. eigenvalues --  -10.05165 -10.05006 -10.03933  -9.34084  -7.10541
  Beta  occ. eigenvalues --   -7.09600  -7.09499  -0.87306  -0.86732  -0.79951
  Beta  occ. eigenvalues --   -0.76608  -0.72355  -0.71146  -0.66543  -0.62545
  Beta  occ. eigenvalues --   -0.61808  -0.60967  -0.54186  -0.52116  -0.50860
  Beta  occ. eigenvalues --   -0.46634  -0.43555  -0.43181  -0.41226  -0.38518
  Beta  occ. eigenvalues --   -0.36243  -0.35499  -0.35173  -0.33379  -0.32368
  Beta  occ. eigenvalues --   -0.31227  -0.29746  -0.29632  -0.28247  -0.27794
  Beta  occ. eigenvalues --   -0.26994  -0.26367  -0.24480  -0.23613  -0.23469
  Beta  occ. eigenvalues --   -0.23115  -0.22386  -0.20289  -0.19156  -0.18534
  Beta  occ. eigenvalues --   -0.13106  -0.12714  -0.12429  -0.11944  -0.10028
  Beta  occ. eigenvalues --   -0.08802
  Beta virt. eigenvalues --    0.03944   0.07501   0.07821   0.08292   0.09349
  Beta virt. eigenvalues --    0.10101   0.10438   0.11181   0.11884   0.12156
  Beta virt. eigenvalues --    0.12829   0.13603   0.15003   0.15124   0.15700

 Mulliken charges and spin densities:
               1          2
     1  N   -0.367065   0.007127
     2  C    0.097194   0.028328
     3  C   -0.162513   0.062982
     4  C   -0.453023   0.046348
     5  C    0.062731   0.033294
     6  C    0.423759   0.070837
     7  C   -1.663814   0.033217
     8  O   -0.234169   0.227339
     9  C   -0.235156   0.069807
    10  C    1.031083   0.013997
    11  Cl   0.354746  -0.001320
    12  C   -0.127592   0.053677
    13  C   -0.653669   0.052922
    14  C    0.553213   0.030661
    15  C    0.373861   0.049795
    16  C   -1.133294   0.079004
    17  O   -0.365350   0.198096
    18  C    0.157195  -0.032600
    19  H    0.209315  -0.000814
    20  H    0.304387  -0.003186
    21  H    0.096939  -0.004715
    22  H    0.127869  -0.003520
    23  H    0.155976  -0.002430
    24  H    0.151302  -0.004282
    25  H    0.124543  -0.004331
    26  H    0.171531  -0.000233
 Sum of Mulliken charges =  -1.00000   1.00000

 Dipole moment (field-independent basis, Debye):
    X=             -2.8297    Y=             -3.1904    Z=             -1.4045  Tot=              4.4898
 Quadrupole moment (field-independent basis, Debye-Ang):
   XX=           -129.4246   YY=           -143.1609   ZZ=           -119.3421
   XY=             -9.7372   XZ=              0.3129   YZ=             -3.5365

  Exact polarizability: 348.886  -6.193 248.960   7.345  27.615 108.994
 Approx polarizability: 518.727  -6.887 471.805  10.846  57.806 177.040

                      1                      2                      3
                      A                      A                      A
 Frequencies --     31.5644                52.7885                94.1479
 Red. masses --     11.5205                 6.3631                 6.8845
 Frc consts  --      0.0068                 0.0104                 0.0360
 IR Inten    --      3.2402                 2.5565                 0.3400

                      4                      5                      6
                      A                      A                      A
 Frequencies --    164.4362               176.3509               196.8810
 Red. masses --      6.9801                10.3794                 4.5258
 Frc consts  --      0.1112                 0.1902                 0.1034
 IR Inten    --      1.1899                 3.6330                 0.0904

                      7                      8                      9
                      A                      A                      A
 Frequencies --    218.7482               255.7472               268.9496
 Red. masses --      4.5710                 7.1826                 4.2770
 Frc consts  --      0.1289                 0.2768                 0.1823
 IR Inten    --      2.7481                 2.6957                 9.9303

                     10                     11                     12
                      A                      A                      A
 Frequencies --    348.8211               361.2887               376.9011
 Red. masses --      8.0962                 6.8637                 2.6044
 Frc consts  --      0.5804                 0.5279                 0.2180
 IR Inten    --     13.2694                 1.2955                61.5560

                     13                     14                     15
                      A                      A                      A
 Frequencies --    396.1173               414.7682               419.8794
 Red. masses --      2.4608                 6.3174                 6.4123
 Frc consts  --      0.2275                 0.6403                 0.6661
 IR Inten    --     76.4278                 0.9607                 0.4205

                     16                     17                     18
                      A                      A                      A
 Frequencies --    433.6072               468.9540               492.9207
 Red. masses --      4.5774                 5.3082                 4.1860
 Frc consts  --      0.5071                 0.6878                 0.5992
 IR Inten    --     48.0099                12.3202                 2.7823

                     19                     20                     21
                      A                      A                      A
 Frequencies --    498.0437               516.1252               569.1340
 Red. masses --      7.3861                 5.1989                 5.6920
 Frc consts  --      1.0794                 0.8160                 1.0863
 IR Inten    --      2.6415                 2.4373                 3.7913

                     22                     23                     24
                      A                      A                      A
 Frequencies --    571.3456               610.2588               646.1872
 Red. masses --      4.4990                 6.1259                 4.4058
 Frc consts  --      0.8653                 1.3441                 1.0839
 IR Inten    --      3.3874                18.1137                 1.3261

                     25                     26                     27
                      A                      A                      A
 Frequencies --    701.1123               707.2468               721.6265
 Red. masses --      5.4388                 2.1734                 1.5880
 Frc consts  --      1.5752                 0.6405                 0.4872
 IR Inten    --     16.8660                91.4916                47.0776

                     28                     29                     30
                      A                      A                      A
 Frequencies --    737.6845               757.7643               762.1005
 Red. masses --      7.2294                 2.0565                 2.0481
 Frc consts  --      2.3179                 0.6957                 0.7009
 IR Inten    --     60.5301                 5.0554                29.1973

                     31                     32                     33
                      A                      A                      A
 Frequencies --    788.0163               817.5180               821.6154
 Red. masses --      1.8392                 6.3251                 5.9402
 Frc consts  --      0.6729                 2.4906                 2.3626
 IR Inten    --     50.2725                15.9307                11.2288

                     34                     35                     36
                      A                      A                      A
 Frequencies --    858.7595               888.2101               890.6324
 Red. masses --      1.4644                 1.3707                 6.7470
 Frc consts  --      0.6363                 0.6371                 3.1532
 IR Inten    --      0.6146                 0.0343                10.6498

                     37                     38                     39
                      A                      A                      A
 Frequencies --    935.0156               963.9059               983.4593
 Red. masses --      6.5902                 1.2824                 1.3036
 Frc consts  --      3.3946                 0.7020                 0.7429
 IR Inten    --      5.7214                 1.0406                 1.5260

                     40                     41                     42
                      A                      A                      A
 Frequencies --   1027.7985              1074.2567              1086.2567
 Red. masses --      3.9246                 2.1448                 2.0174
 Frc consts  --      2.4427                 1.4583                 1.4025
 IR Inten    --     20.9495                21.4252                34.4814

                     43                     44                     45
                      A                      A                      A
 Frequencies --   1123.6354              1151.4530              1160.6185
 Red. masses --      2.8031                 1.4982                 1.9066
 Frc consts  --      2.0852                 1.1703                 1.5132
 IR Inten    --      7.9315                63.6301                36.8509

                     46                     47                     48
                      A                      A                      A
 Frequencies --   1179.8798              1188.7626              1219.6376
 Red. masses --      1.1861                 2.7073                 2.5998
 Frc consts  --      0.9728                 2.2541                 2.2785
 IR Inten    --      0.4225                 9.3763                68.1374

                     49                     50                     51
                      A                      A                      A
 Frequencies --   1231.5740              1309.2996              1326.6856
 Red. masses --      2.4102                 2.6748                 6.6064
 Frc consts  --      2.1539                 2.7016                 6.8510
 IR Inten    --     27.3517                 4.4023                21.5882

                     52                     53                     54
                      A                      A                      A
 Frequencies --   1355.8200              1367.7651              1394.2597
 Red. masses --      3.9624                 6.6685                 3.2974
 Frc consts  --      4.2915                 7.3502                 3.7767
 IR Inten    --      0.9462                33.5358               266.2686

                     55                     56                     57
                      A                      A                      A
 Frequencies --   1428.7971              1463.7097              1471.0169
 Red. masses --      2.5662                 2.9769                 3.3931
 Frc consts  --      3.0866                 3.7577                 4.3260
 IR Inten    --     81.2689                 1.8304                12.8478

                     58                     59                     60
                      A                      A                      A
 Frequencies --   1507.9158              1542.4399              1552.2669
 Red. masses --      4.2393                 5.9482                 4.1081
 Frc consts  --      5.6794                 8.3378                 5.8321
 IR Inten    --    239.6094               369.3824               290.5718

                     61                     62                     63
                      A                      A                      A
 Frequencies --   1600.2019              1610.0238              1610.7635
 Red. masses --      2.7378                 3.7138                 2.5849
 Frc consts  --      4.1304                 5.6720                 3.9514
 IR Inten    --     52.8073               173.2913                30.8731

                     64                     65                     66
                      A                      A                      A
 Frequencies --   1624.3416              3126.6807              3148.3241
 Red. masses --      7.2364                 1.0852                 1.0925
 Frc consts  --     11.2494                 6.2507                 6.3799
 IR Inten    --     20.2986                31.7062                65.1313

                     67                     68                     69
                      A                      A                      A
 Frequencies --   3150.5295              3185.1407              3197.5855
 Red. masses --      1.0870                 1.0920                 1.0922
 Frc consts  --      6.3569                 6.5270                 6.5798
 IR Inten    --     25.1229                14.3127                16.2295

                     70                     71                     72
                      A                      A                      A
 Frequencies --   3201.1241              3372.7963              3642.0962
 Red. masses --      1.0914                 1.0619                 1.0870
 Frc consts  --      6.5890                 7.1175                 8.4951
 IR Inten    --     10.7095               125.6979                20.4574

 - Thermochemistry -
 -------------------
 Temperature   298.150 Kelvin.  Pressure   1.00000 Atm.
 Atom     1 has atomic number  7 and mass  14.00307

 Molecular mass:   257.02436 amu.
 Principal axes and moments of inertia in atomic units:
                           1         2         3
     Eigenvalues --  2570.427425993.128788559.79435
           X            0.97827  -0.20472  -0.03293
           Y            0.19476   0.96171  -0.19282
           Z            0.07114   0.18222   0.98068
 This molecule is an asymmetric top.
 Rotational symmetry number  1.
 Warning -- assumption of classical behavior for rotation
           may cause significant error
 Rotational temperatures (Kelvin)      0.03370     0.01445     0.01012
 Rotational constants (GHZ):           0.70212     0.30114     0.21084
 Zero-point vibrational energy     481808.5 (Joules/Mol)
                                  115.15499 (Kcal/Mol)
 Warning -- explicit consideration of  23 degrees of freedom as
           vibrations may cause significant error
 Vibrational temperatures:     45.41    75.95   135.46   236.59   253.73
          (Kelvin)            283.27   314.73   367.96   386.96   501.88
                              519.81   542.28   569.92   596.76   604.11
                              623.86   674.72   709.20   716.57   742.59
                              818.86   822.04   878.03   929.72  1008.74
                             1017.57  1038.26  1061.36  1090.25  1096.49
                             1133.78  1176.23  1182.12  1235.56  1277.94
                             1281.42  1345.28  1386.85  1414.98  1478.77
                             1545.62  1562.88  1616.66  1656.68  1669.87
                             1697.58  1710.36  1754.79  1771.96  1883.79
                             1908.80  1950.72  1967.91  2006.03  2055.72
                             2105.95  2116.47  2169.55  2219.23  2233.37
                             2302.33  2316.47  2317.53  2337.07  4498.60
                             4529.74  4532.91  4582.71  4600.61  4605.70
                             4852.70  5240.16

 Zero-point correction=                           0.183511 (Hartree/Particle)
 Thermal correction to Energy=                    0.197271
 Thermal correction to Enthalpy=                  0.198215
 Thermal correction to Gibbs Free Energy=         0.141814
 Sum of electronic and zero-point Energies=          -1203.831255
 Sum of electronic and thermal Energies=             -1203.817496
 Sum of electronic and thermal Enthalpies=           -1203.816552
 Sum of electronic and thermal Free Energies=        -1203.872953

                     E (Thermal)             CV                S
                      KCal/Mol        Cal/Mol-Kelvin    Cal/Mol-Kelvin
 Total                  123.789             55.521            118.706
 Electronic               0.000              0.000              1.377
 Translational            0.889              2.981             42.532
 Rotational               0.889              2.981             33.244
 Vibrational            122.012             49.560             41.553
 Vibration     1          0.594              1.983              5.729
 Vibration     2          0.596              1.976              4.710
 Vibration     3          0.603              1.953              3.572
 Vibration     4          0.623              1.886              2.498
 Vibration     5          0.628              1.871              2.367
 Vibration     6          0.636              1.844              2.162
 Vibration     7          0.647              1.813              1.969
 Vibration     8          0.666              1.753              1.691
 Vibration     9          0.673              1.730              1.603
 Vibration    10          0.726              1.578              1.172
 Vibration    11          0.735              1.552              1.117
 Vibration    12          0.747              1.519              1.052
 Vibration    13          0.763              1.478              0.977
 Vibration    14          0.778              1.438              0.910
 Vibration    15          0.783              1.427              0.892
 Vibration    16          0.794              1.397              0.847
 Vibration    17          0.826              1.319              0.740
 Vibration    18          0.849              1.266              0.676
 Vibration    19          0.854              1.254              0.663
 Vibration    20          0.871              1.214              0.619
 Vibration    21          0.925              1.098              0.506
 Vibration    22          0.927              1.093              0.502
 Vibration    23          0.969              1.010              0.432

 Optimization completed.
    -- Stationary point found.
 Normal termination of Gaussian 16 at Wed Dec 27 21:04:05 2023.
