 Q-Chem 5.4, Q-Chem, Inc., Pleasanton, CA (2021)
 Q-Chem 5.4.0 for Intel X86 EM64T Linux

User input:
--------------------------------------------------------------
$molecule
0 1
C                  2.1599690000     -2.5208730000     -4.0274120000
C                  1.2756170000     -3.0669170000     -4.9520070000
C                 -0.0436450000     -2.6110810000     -5.0156910000
C                  1.7282310000     -1.5141390000     -3.1602960000
C                  0.4053380000     -1.0563000000     -3.2251070000
C                 -0.4787440000     -1.6083840000     -4.1552610000
C                  2.6767380000     -0.9341090000     -2.1679910000
C                  2.1830180000      0.1364390000     -1.2456420000
C                  0.9098330000      0.5952810000     -1.3274740000
C                 -0.0606480000      0.0197760000     -2.3063180000
O                  3.8337410000     -1.3220000000     -2.1084010000
O                 -1.2131850000      0.4253440000     -2.3479640000
H                  1.6115300000     -3.8482470000     -5.6242970000
H                 -0.7301840000     -3.0391270000     -5.7373170000
C                  3.1802610000      0.6685570000     -0.2529610000
H                  3.1863600000     -2.8597150000     -3.9606880000
H                 -1.4965090000     -1.2397050000     -4.1875270000
H                  3.5016450000      1.6790380000     -0.5291680000
H                  4.0647320000      0.0345270000     -0.2303040000
H                  2.7453570000      0.7221370000      0.7469070000
C                  0.3675790000      1.6846240000     -0.4260810000
C                 -0.2227480000      1.1194330000      0.8475360000
C                  0.0005370000      1.5093820000      2.1101910000
C                 -0.7266890000      0.8241930000      3.2495090000
C                  0.9331230000      2.6257670000      2.5119600000
C                 -1.7658820000      1.7205160000      3.9686150000
C                 -2.4294490000      1.0116860000      5.1168240000
C                 -3.7184410000      0.6752220000      5.2590160000
C                 -4.8026430000      0.9664530000      4.2520420000
C                 -4.1966620000     -0.0473560000      6.4952070000
H                 -0.4233300000      2.2058080000     -0.9737050000
H                  1.1526430000      2.4098560000     -0.2121220000
H                 -0.9318160000      0.3102130000      0.6872690000
H                  0.0070540000      0.4790910000      3.9905830000
H                 -1.2364350000     -0.0679910000      2.8755560000
H                  1.5420410000      2.9947000000      1.6866310000
H                  1.6084770000      2.2934080000      3.3083910000
H                  0.3759210000      3.4799430000      2.9114440000
H                 -2.4960870000      2.0698490000      3.2351540000
H                 -1.2617740000      2.6151800000      4.3540830000
H                 -1.7528260000      0.7326810000      5.9247490000
H                 -4.4387080000      1.4695830000      3.3568380000
H                 -5.5825270000      1.5946160000      4.6986900000
H                 -5.2937450000      0.0373900000      3.9398840000
H                 -3.3809830000     -0.2385330000      7.1953960000
H                 -4.6564030000     -1.0082640000      6.2349770000
H                 -4.9653460000      0.5350260000      7.0172810000
$end
$rem
MAX_SCF_CYCLES=200
BASIS  =  6-311++G(d,p)
GUI  =  2
JOB_TYPE  =  SP
SCF_ALGORITHM = DIIS_GDM
THRESH = 14
METHOD  =  B3LYP
SOLVENT_METHOD = PCM
$end
$pcm
theory = CPCM
$end
$solvent
dielectric 37.219
opticaldielectric 1.43
$end

--------------------------------------------------------------

             Standard Nuclear Orientation (Angstroms)
    I     Atom           X                Y                Z
 ----------------------------------------------------------------
    1      C       2.1599690000    -2.5208730000    -4.0274120000
    2      C       1.2756170000    -3.0669170000    -4.9520070000
    3      C      -0.0436450000    -2.6110810000    -5.0156910000
    4      C       1.7282310000    -1.5141390000    -3.1602960000
    5      C       0.4053380000    -1.0563000000    -3.2251070000
    6      C      -0.4787440000    -1.6083840000    -4.1552610000
    7      C       2.6767380000    -0.9341090000    -2.1679910000
    8      C       2.1830180000     0.1364390000    -1.2456420000
    9      C       0.9098330000     0.5952810000    -1.3274740000
   10      C      -0.0606480000     0.0197760000    -2.3063180000
   11      O       3.8337410000    -1.3220000000    -2.1084010000
   12      O      -1.2131850000     0.4253440000    -2.3479640000
   13      H       1.6115300000    -3.8482470000    -5.6242970000
   14      H      -0.7301840000    -3.0391270000    -5.7373170000
   15      C       3.1802610000     0.6685570000    -0.2529610000
   16      H       3.1863600000    -2.8597150000    -3.9606880000
   17      H      -1.4965090000    -1.2397050000    -4.1875270000
   18      H       3.5016450000     1.6790380000    -0.5291680000
   19      H       4.0647320000     0.0345270000    -0.2303040000
   20      H       2.7453570000     0.7221370000     0.7469070000
   21      C       0.3675790000     1.6846240000    -0.4260810000
   22      C      -0.2227480000     1.1194330000     0.8475360000
   23      C       0.0005370000     1.5093820000     2.1101910000
   24      C      -0.7266890000     0.8241930000     3.2495090000
   25      C       0.9331230000     2.6257670000     2.5119600000
   26      C      -1.7658820000     1.7205160000     3.9686150000
   27      C      -2.4294490000     1.0116860000     5.1168240000
   28      C      -3.7184410000     0.6752220000     5.2590160000
   29      C      -4.8026430000     0.9664530000     4.2520420000
   30      C      -4.1966620000    -0.0473560000     6.4952070000
   31      H      -0.4233300000     2.2058080000    -0.9737050000
   32      H       1.1526430000     2.4098560000    -0.2121220000
   33      H      -0.9318160000     0.3102130000     0.6872690000
   34      H       0.0070540000     0.4790910000     3.9905830000
   35      H      -1.2364350000    -0.0679910000     2.8755560000
   36      H       1.5420410000     2.9947000000     1.6866310000
   37      H       1.6084770000     2.2934080000     3.3083910000
   38      H       0.3759210000     3.4799430000     2.9114440000
   39      H      -2.4960870000     2.0698490000     3.2351540000
   40      H      -1.2617740000     2.6151800000     4.3540830000
   41      H      -1.7528260000     0.7326810000     5.9247490000
   42      H      -4.4387080000     1.4695830000     3.3568380000
   43      H      -5.5825270000     1.5946160000     4.6986900000
   44      H      -5.2937450000     0.0373900000     3.9398840000
   45      H      -3.3809830000    -0.2385330000     7.1953960000
   46      H      -4.6564030000    -1.0082640000     6.2349770000
   47      H      -4.9653460000     0.5350260000     7.0172810000
 ----------------------------------------------------------------

   16    -965.3908875043      3.36e-06  Convergence criterion met
 Total energy in the final basis set =     -965.3908875043

                    Orbital Energies (a.u.)
 --------------------------------------------------------------

 Alpha MOs
 -- Occupied --
-19.1338 -19.1333 -10.2816 -10.2811 -10.2125 -10.2099 -10.2054 -10.2048
-10.1957 -10.1955 -10.1951 -10.1948 -10.1790 -10.1780 -10.1745 -10.1688
-10.1666 -10.1659 -10.1651 -10.1601 -10.1579 -10.1576 -10.1574  -1.0678
 -1.0659  -0.8887  -0.8532  -0.8248  -0.8083  -0.7868  -0.7761  -0.7633
 -0.7398  -0.7083  -0.6890  -0.6846  -0.6784  -0.6588  -0.6300  -0.6148
 -0.5975  -0.5826  -0.5502  -0.5225  -0.5184  -0.5134  -0.4995  -0.4798
 -0.4714  -0.4620  -0.4597  -0.4588  -0.4544  -0.4494  -0.4399  -0.4320
 -0.4291  -0.4242  -0.4190  -0.4144  -0.4085  -0.4071  -0.4004  -0.3917
 -0.3844  -0.3814  -0.3769  -0.3727  -0.3699  -0.3680  -0.3661  -0.3634
 -0.3543  -0.3465  -0.3300  -0.3198  -0.2905  -0.2897  -0.2772  -0.2759
 -0.2704  -0.2471  -0.2316

          Ground-State Mulliken Net Atomic Charges

     Atom                 Charge (a.u.)
  ----------------------------------------
      1 C                     0.170062
      2 C                    -0.489060
      3 C                    -0.430553
      4 C                    -0.056969
      5 C                     0.263140
      6 C                     0.055858
      7 C                    -0.934634
      8 C                     0.864371
      9 C                     1.117706
     10 C                    -0.944651
     11 O                    -0.288717
     12 O                    -0.271810
     13 H                     0.218976
     14 H                     0.222692
     15 C                    -0.512397
     16 H                     0.202328
     17 H                     0.199805
     18 H                     0.223793
     19 H                     0.187937
     20 H                     0.190846
     21 C                    -0.181224
     22 C                    -1.026418
     23 C                     1.276376
     24 C                    -0.842389
     25 C                    -0.769753
     26 C                    -0.311131
     27 C                    -0.074692
     28 C                     0.372398
     29 C                    -0.689573
     30 C                    -0.663484
     31 H                     0.236741
     32 H                     0.213405
     33 H                     0.239654
     34 H                     0.168274
     35 H                     0.165521
     36 H                     0.121290
     37 H                     0.183783
     38 H                     0.184944
     39 H                     0.142709
     40 H                     0.147514
     41 H                     0.195613
     42 H                     0.144690
     43 H                     0.152030
     44 H                     0.155625
     45 H                     0.160139
     46 H                     0.156481
     47 H                     0.152751
  ----------------------------------------
  Sum of atomic charges =     0.000000

                    Cartesian Multipole Moments
 -----------------------------------------------------------------
    Charge (ESU x 10^10)
                -0.0000
    Dipole Moment (Debye)
         X      -0.3691      Y      -0.0763      Z      -0.0613
       Tot       0.3819
    Quadrupole Moments (Debye-Ang)
        XX    -149.5439     XY       9.1301     YY    -130.7015
        XZ       1.2667     YZ      13.5316     ZZ    -122.0513

 Total job time:  406.15s(wall), 2811.43s(cpu)
        *  Thank you very much for using Q-Chem.  Have a nice day.  *
