 Gaussian 16, Revision A.03,
 Gaussian 16:  ES64L-G16RevA.03 25-Dec-2016

 --------------------------------------
 #P UB3LYP/6-311++G(d,p) nosym opt freq
 --------------------------------------

 -------
 Radical
 -------
 Symbolic Z-matrix:
 Charge = -1 Multiplicity = 2

 SCF Done:  E(UB3LYP) =  -574.642791340     A.U. after   23 cycles
 SCF Done:  E(UB3LYP) =  -574.660091095     A.U. after   19 cycles
 SCF Done:  E(UB3LYP) =  -574.660580680     A.U. after   15 cycles
 SCF Done:  E(UB3LYP) =  -574.660627460     A.U. after   14 cycles
 SCF Done:  E(UB3LYP) =  -574.660607114     A.U. after   12 cycles
 SCF Done:  E(UB3LYP) =  -574.660606668     A.U. after   12 cycles
 SCF Done:  E(UB3LYP) =  -574.660608510     A.U. after   11 cycles
 Optimization completed.
    -- Stationary point found.
 Normal termination of Gaussian 16 at Tue Dec 26 20:23:37 2023.

 ----------------------------------------------------------------------
 #P Geom=AllCheck Guess=TCheck SCRF=Check GenChk UB3LYP/6-311++G(d,p) F
 req
 ----------------------------------------------------------------------

 Structure from the checkpoint file:  "236-rad.chk"
 -------
 Radical
 -------
 Charge = -1 Multiplicity = 2

                          Input orientation:
 ---------------------------------------------------------------------
 Center     Atomic      Atomic             Coordinates (Angstroms)
 Number     Number       Type             X           Y           Z
 ---------------------------------------------------------------------
      1          6           0       -3.230876    0.062139    1.003661
      2          6           0       -1.885731   -0.005961    0.329950
      3          6           0       -1.771127   -0.229584   -1.028497
      4          6           0       -0.523568   -0.307762   -1.736649
      5          8           0       -0.456077   -0.513776   -2.979075
      6          6           0        0.685435   -0.130109   -0.911285
      7          6           0        1.959415   -0.188252   -1.508512
      8          6           0        3.109156   -0.024626   -0.756310
      9          6           0        3.012619    0.204378    0.630763
     10          6           0        1.770000    0.264939    1.235957
     11          6           0        0.586608    0.100848    0.487638
     12          6           0       -0.718779    0.171392    1.165988
     13          8           0       -0.810226    0.376289    2.408599
     14          1           0       -4.040552   -0.060299    0.278777
     15          1           0       -3.324759   -0.712388    1.773164
     16          1           0       -3.360251    1.017312    1.524140
     17          1           0       -2.665647   -0.359407   -1.633602
     18          1           0        2.000628   -0.365785   -2.577525
     19          1           0        4.084792   -0.072211   -1.231745
     20          1           0        3.913872    0.333148    1.223608
     21          1           0        1.665067    0.439714    2.300954
 ---------------------------------------------------------------------

 SCF Done:  E(UB3LYP) =  -574.660608510     A.U. after    1 cycles

 Alpha  occ. eigenvalues --  -18.93655 -18.93504 -10.08287 -10.08218 -10.05221
 Alpha  occ. eigenvalues --  -10.05166 -10.04427 -10.04410 -10.04206 -10.04126
 Alpha  occ. eigenvalues --  -10.04040 -10.04012 -10.02647  -0.85994  -0.85655
 Alpha  occ. eigenvalues --   -0.72947  -0.68028  -0.62790  -0.62253  -0.57300
 Alpha  occ. eigenvalues --   -0.52980  -0.48765  -0.46758  -0.42620  -0.38091
 Alpha  occ. eigenvalues --   -0.36886  -0.33433  -0.32304  -0.29924  -0.29885
 Alpha  occ. eigenvalues --   -0.29047  -0.27759  -0.26771  -0.26095  -0.25703
 Alpha  occ. eigenvalues --   -0.24494  -0.23365  -0.21909  -0.21902  -0.20810
 Alpha  occ. eigenvalues --   -0.13693  -0.12841  -0.11884  -0.10369  -0.09685
 Alpha  occ. eigenvalues --   -0.01524
 Alpha virt. eigenvalues --    0.08595   0.09403   0.09481   0.10565   0.11026
 Alpha virt. eigenvalues --    0.11959   0.12251   0.13522   0.14247   0.14353
 Alpha virt. eigenvalues --    0.16180   0.16910   0.17580   0.17616   0.18575

  Beta  occ. eigenvalues --  -18.92993 -18.92838 -10.08179 -10.08074 -10.05187
  Beta  occ. eigenvalues --  -10.05124 -10.04441 -10.04412 -10.04145 -10.04051
  Beta  occ. eigenvalues --  -10.04034 -10.03872 -10.02509  -0.84857  -0.84489
  Beta  occ. eigenvalues --   -0.72757  -0.67535  -0.62586  -0.62103  -0.56974
  Beta  occ. eigenvalues --   -0.52244  -0.48588  -0.46471  -0.42385  -0.37894
  Beta  occ. eigenvalues --   -0.36621  -0.33193  -0.32163  -0.29844  -0.29303
  Beta  occ. eigenvalues --   -0.28825  -0.27396  -0.25971  -0.25912  -0.25256
  Beta  occ. eigenvalues --   -0.24304  -0.21727  -0.21089  -0.20594  -0.20522
  Beta  occ. eigenvalues --   -0.12226  -0.11400  -0.10515  -0.09747  -0.09070
  Beta virt. eigenvalues --    0.05169   0.08589   0.09396   0.10093   0.10559
  Beta virt. eigenvalues --    0.11956   0.12055   0.12251   0.13698   0.14239
  Beta virt. eigenvalues --    0.14347   0.16223   0.16933   0.17575   0.18066

 Mulliken charges and spin densities:
               1          2
     1  C   -0.372340   0.002494
     2  C    0.803892   0.085018
     3  C   -0.314246   0.110454
     4  C   -1.050374   0.053451
     5  O   -0.403413   0.241841
     6  C    0.792251   0.068639
     7  C   -0.038938   0.008496
     8  C   -0.327391   0.033864
     9  C   -0.375561   0.021760
    10  C    0.037904   0.027915
    11  C    0.213970   0.010679
    12  C   -0.663584   0.096388
    13  O   -0.391899   0.247258
    14  H    0.121472  -0.000284
    15  H    0.152096   0.005999
    16  H    0.154151   0.005417
    17  H    0.109729  -0.010191
    18  H    0.152128  -0.002021
    19  H    0.122781  -0.002810
    20  H    0.116793  -0.002125
    21  H    0.160578  -0.002242
 Sum of Mulliken charges =  -1.00000   1.00000

 Dipole moment (field-independent basis, Debye):
    X=              1.4154    Y=              0.2899    Z=              1.4530  Tot=              2.0491
 Quadrupole moment (field-independent basis, Debye-Ang):
   XX=            -85.9243   YY=            -82.8459   ZZ=           -113.5282
   XY=              0.1031   XZ=              1.3931   YZ=             -5.2318

  Exact polarizability: 212.850   3.189  84.206  -7.204  17.118 185.248
 Approx polarizability: 306.978   4.694 131.580  -8.090  35.709 340.793

                      1                      2                      3
                      A                      A                      A
 Frequencies --     80.9476               109.7674               135.4116
 Red. masses --      4.8571                 1.0782                 3.9191
 Frc consts  --      0.0188                 0.0077                 0.0423
 IR Inten    --      8.7050                 0.0212                 0.2610

                      4                      5                      6
                      A                      A                      A
 Frequencies --    168.3350               230.6663               254.7284
 Red. masses --      5.6627                 4.0963                 3.9848
 Frc consts  --      0.0945                 0.1284                 0.1523
 IR Inten    --      1.6716                 0.0439                 4.0663

                      7                      8                      9
                      A                      A                      A
 Frequencies --    295.3332               367.5654               371.6116
 Red. masses --      3.9982                10.9691                 4.8836
 Frc consts  --      0.2055                 0.8732                 0.3973
 IR Inten    --      0.1174                 8.6722                 0.3989

                     10                     11                     12
                      A                      A                      A
 Frequencies --    418.7552               438.0714               474.1645
 Red. masses --      6.2964                 3.4040                 8.8667
 Frc consts  --      0.6505                 0.3849                 1.1745
 IR Inten    --      1.0218                 1.0658                 0.8492

                     13                     14                     15
                      A                      A                      A
 Frequencies --    489.2493               528.0428               646.3972
 Red. masses --      3.8334                 7.8337                 4.8044
 Frc consts  --      0.5406                 1.2869                 1.1827
 IR Inten    --      0.0007                 2.0416                 2.9836

                     16                     17                     18
                      A                      A                      A
 Frequencies --    658.8106               660.0052               689.8668
 Red. masses --      3.0431                 5.4974                 3.3176
 Frc consts  --      0.7782                 1.4109                 0.9303
 IR Inten    --      7.3105                 6.5691                21.8621

                     19                     20                     21
                      A                      A                      A
 Frequencies --    727.5116               770.3223               790.2078
 Red. masses --      6.1100                 1.4610                 4.3580
 Frc consts  --      1.9053                 0.5108                 1.6033
 IR Inten    --     12.4612                52.1878                 0.0192

                     22                     23                     24
                      A                      A                      A
 Frequencies --    815.9675               866.6862               871.0728
 Red. masses --      4.4058                 1.5607                 1.4417
 Frc consts  --      1.7283                 0.6907                 0.6445
 IR Inten    --      2.4321                16.3740                 1.1217

                     25                     26                     27
                      A                      A                      A
 Frequencies --    955.5875               977.7637               980.7619
 Red. masses --      4.7403                 1.3558                 1.2605
 Frc consts  --      2.5503                 0.7637                 0.7144
 IR Inten    --     23.8487                 2.4729                 0.1691

                     28                     29                     30
                      A                      A                      A
 Frequencies --   1020.8518              1037.5743              1046.8666
 Red. masses --      1.6586                 2.1216                 1.4887
 Frc consts  --      1.0184                 1.3457                 0.9613
 IR Inten    --     11.3546                21.1841                 1.0318

                     31                     32                     33
                      A                      A                      A
 Frequencies --   1100.2056              1131.8440              1154.3026
 Red. masses --      2.4041                 2.1551                 1.4513
 Frc consts  --      1.7145                 1.6266                 1.1393
 IR Inten    --      6.1929                 4.8608                 3.3613

                     34                     35                     36
                      A                      A                      A
 Frequencies --   1181.0500              1227.3076              1242.9074
 Red. masses --      2.0804                 3.0774                 1.7784
 Frc consts  --      1.7097                 2.7311                 1.6187
 IR Inten    --     15.3645                15.5586                29.2210

                     37                     38                     39
                      A                      A                      A
 Frequencies --   1295.1775              1352.5971              1391.2811
 Red. masses --      1.8656                10.1613                 1.5026
 Frc consts  --      1.8439                10.9530                 1.7137
 IR Inten    --      5.5989                 7.8263                13.0295

                     40                     41                     42
                      A                      A                      A
 Frequencies --   1405.0768              1462.3273              1464.7289
 Red. masses --      2.3597                 3.3266                 1.0689
 Frc consts  --      2.7448                 4.1913                 1.3512
 IR Inten    --     34.5730               150.3392                 7.8811

                     43                     44                     45
                      A                      A                      A
 Frequencies --   1470.0561              1481.2001              1513.1751
 Red. masses --      2.1555                 1.3888                 5.6799
 Frc consts  --      2.7445                 1.7952                 7.6625
 IR Inten    --     33.7969                 1.9797                 4.9469

                     46                     47                     48
                      A                      A                      A
 Frequencies --   1532.2392              1554.9147              1622.4246
 Red. masses --      4.5635                 4.8466                 6.9450
 Frc consts  --      6.3125                 6.9040                10.7709
 IR Inten    --    447.1806                54.9737                 0.6958

                     49                     50                     51
                      A                      A                      A
 Frequencies --   1628.9745              3005.3817              3046.1004
 Red. masses --      6.3155                 1.0347                 1.0985
 Frc consts  --      9.8738                 5.5062                 6.0056
 IR Inten    --     19.9745                96.3822                35.0897

                     52                     53                     54
                      A                      A                      A
 Frequencies --   3078.2891              3129.4485              3130.7440
 Red. masses --      1.1021                 1.0845                 1.0884
 Frc consts  --      6.1533                 6.2574                 6.2853
 IR Inten    --     26.0615                21.1988                37.9608

                     55                     56                     57
                      A                      A                      A
 Frequencies --   3149.0426              3177.0587              3179.8043
 Red. masses --      1.0910                 1.0912                 1.0928
 Frc consts  --      6.3746                 6.4897                 6.5103
 IR Inten    --     50.9101                13.6116                26.5937

 - Thermochemistry -
 -------------------
 Temperature   298.150 Kelvin.  Pressure   1.00000 Atm.
 Atom     1 has atomic number  6 and mass  12.00000

 Molecular mass:   172.05243 amu.
 Principal axes and moments of inertia in atomic units:
                           1         2         3
     Eigenvalues --  1437.101682312.693323738.79952
           X            0.97033   0.23962  -0.03229
           Y           -0.00865   0.16786   0.98577
           Z           -0.24163   0.95625  -0.16495
 This molecule is an asymmetric top.
 Rotational symmetry number  1.
 Warning -- assumption of classical behavior for rotation
           may cause significant error
 Rotational temperatures (Kelvin)      0.06027     0.03745     0.02317
 Rotational constants (GHZ):           1.25582     0.78036     0.48271
 Zero-point vibrational energy     412631.3 (Joules/Mol)
                                   98.62124 (Kcal/Mol)
 Warning -- explicit consideration of  14 degrees of freedom as
           vibrations may cause significant error
 Vibrational temperatures:    116.47   157.93   194.83   242.20   331.88
          (Kelvin)            366.50   424.92   528.84   534.67   602.50
                              630.29   682.22   703.92   759.74   930.02
                              947.88   949.60   992.56  1046.73  1108.32
                             1136.93  1174.00  1246.97  1253.28  1374.88
                             1406.78  1411.10  1468.78  1492.84  1506.21
                             1582.95  1628.47  1660.78  1699.27  1765.82
                             1788.27  1863.47  1946.09  2001.74  2021.59
                             2103.96  2107.42  2115.08  2131.12  2177.12
                             2204.55  2237.18  2334.31  2343.73  4324.07
                             4382.66  4428.97  4502.58  4504.44  4530.77
                             4571.08  4575.03

 Zero-point correction=                           0.157163 (Hartree/Particle)
 Thermal correction to Energy=                    0.167501
 Thermal correction to Enthalpy=                  0.168445
 Thermal correction to Gibbs Free Energy=         0.120621
 Sum of electronic and zero-point Energies=           -574.503446
 Sum of electronic and thermal Energies=              -574.493108
 Sum of electronic and thermal Enthalpies=            -574.492164
 Sum of electronic and thermal Free Energies=         -574.539987

                     E (Thermal)             CV                S
                      KCal/Mol        Cal/Mol-Kelvin    Cal/Mol-Kelvin
 Total                  105.108             40.734            100.653
 Electronic               0.000              0.000              1.377
 Translational            0.889              2.981             41.335
 Rotational               0.889              2.981             30.897
 Vibrational            103.331             34.772             27.043
 Vibration     1          0.600              1.962              3.868
 Vibration     2          0.606              1.941              3.273
 Vibration     3          0.613              1.918              2.868
 Vibration     4          0.625              1.881              2.454
 Vibration     5          0.652              1.794              1.874
 Vibration     6          0.665              1.755              1.698
 Vibration     7          0.690              1.682              1.443
 Vibration     8          0.740              1.539              1.090
 Vibration     9          0.743              1.530              1.073
 Vibration    10          0.782              1.429              0.896
 Vibration    11          0.798              1.387              0.833
 Vibration    12          0.831              1.307              0.726
 Vibration    13          0.845              1.274              0.686
 Vibration    14          0.883              1.188              0.592

                           ! Non-Optimized Parameters !
 Normal termination of Gaussian 16 at Tue Dec 26 20:46:21 2023.
