 Q-Chem 5.4, Q-Chem, Inc., Pleasanton, CA (2021)
 Q-Chem 5.4.0 for Intel X86 EM64T Linux

User input:
--------------------------------------------------------------
$molecule
-2 1
O                 -5.6016130000      1.1624810000     -1.3802980000
S                 -5.4059070000      0.6310390000     -0.0069720000
O                 -5.3483190000      1.6711030000      1.0479670000
O                 -6.2736030000     -0.5318370000      0.3184300000
C                 -3.7144660000     -0.0784650000     -0.0491230000
C                 -3.5536910000     -1.4474210000     -0.2762210000
C                 -2.2802080000     -1.9962330000     -0.3559380000
C                 -1.1466070000     -1.1898360000     -0.2105320000
C                  0.2010270000     -1.8115510000     -0.2999750000
O                  0.3348130000     -3.0152550000     -0.5060510000
C                  1.3807180000     -0.9230370000     -0.1282450000
C                  2.6645070000     -1.4742500000     -0.1950360000
C                  3.7877060000     -0.6724190000     -0.0374140000
C                  3.6444600000      0.6983690000      0.1902590000
C                  2.3717360000      1.2604850000      0.2627630000
C                  1.2351420000      0.4603430000      0.1036800000
C                 -0.1208530000      1.0865930000      0.1891450000
O                 -0.2537950000      2.2839360000      0.3894500000
C                 -1.3080150000      0.1918580000      0.0208880000
C                 -2.5943480000      0.7362400000      0.1011780000
S                  5.1443610000      1.7448390000      0.3364650000
O                  5.3086360000      2.3207710000     -1.0229630000
O                  4.8057700000      2.7381130000      1.3837230000
O                  6.2143810000      0.7852950000      0.7178270000
H                 -4.4408170000     -2.0620100000     -0.3714100000
H                 -2.1365040000     -3.0563710000     -0.5280470000
H                  2.7564070000     -2.5398450000     -0.3688750000
H                  4.7878060000     -1.0876350000     -0.0714370000
H                  2.2526030000      2.3193710000      0.4540830000
H                 -2.7113260000      1.7953280000      0.2926770000
$end
$rem
MAX_SCF_CYCLES=200
BASIS  =  6-311++G(d,p)
GUI  =  2
JOB_TYPE  =  SP
METHOD  =  B3LYP
SOLVENT_METHOD = COSMO
$end
$solvent
dielectric 37.219
opticaldielectric 1.43
$end

--------------------------------------------------------------

             Standard Nuclear Orientation (Angstroms)
    I     Atom           X                Y                Z
 ----------------------------------------------------------------
    1      O      -5.4904135188    -1.1994115052     1.4510471135
    2      S      -5.3072241619    -0.8695033482     0.0142597223
    3      O      -5.1067128357    -2.0482158372    -0.8623119359
    4      O      -6.2811709996     0.1274579486    -0.5039671889
    5      C      -3.7018275984     0.0175686289    -0.0299044095
    6      C      -3.6930240757     1.4144476539    -0.0192217311
    7      C      -2.4874111754     2.1041333075    -0.0074066270
    8      C      -1.2713415891     1.4130157445    -0.0061701457
    9      C       0.0000091270     2.1838542452     0.0048911318
   10      O       0.0000077556     3.4122785950     0.0204779242
   11      C       1.2713586511     1.4130321225    -0.0061912509
   12      C       2.4873814968     2.1041891836    -0.0073579767
   13      C       3.6930281015     1.4145277719    -0.0190645125
   14      C       3.7018584192     0.0176663248    -0.0297544712
   15      C       2.4981626095    -0.6838800656    -0.0323366152
   16      C       1.2793319744     0.0028935269    -0.0191283766
   17      C       0.0000179934    -0.7726892466    -0.0256757514
   18      O       0.0000040490    -1.9938802895    -0.0365553009
   19      C      -1.2792977833     0.0028898373    -0.0191197967
   20      C      -2.4981292976    -0.6839320061    -0.0323986504
   21      S       5.3072308068    -0.8694762708     0.0142475436
   22      O       5.4869637341    -1.2060908420     1.4499059768
   23      O       5.1088005518    -2.0441242844    -0.8682567911
   24      O       6.2824290835     0.1298066406    -0.4971490222
   25      H      -4.6423570433     1.9362330591    -0.0359558927
   26      H      -2.4613904200     3.1873988517    -0.0025478461
   27      H       2.4612829265     3.1874495996    -0.0024541432
   28      H       4.6424085823     1.9362249946    -0.0355147909
   29      H       2.4970544541    -1.7662271958    -0.0559805748
   30      H      -2.4970684967    -1.7662709845    -0.0561541097
 ----------------------------------------------------------------

   10   -1935.6725534227      4.99e-06  Convergence criterion met
 Total energy in the final basis set =    -1935.6725534227
    5   -1935.9111669600      6.28e-06  Convergence criterion met
 Total energy in the final basis set =    -1935.9111669600

                    Orbital Energies (a.u.)
 --------------------------------------------------------------

 Alpha MOs
 -- Occupied --
-89.0567 -89.0566 -19.1332 -19.1322 -19.1021 -19.1019 -19.1014 -19.1013
-19.1010 -19.1009 -10.2864 -10.2852 -10.2170 -10.2169 -10.2124 -10.2124
-10.2102 -10.2102 -10.2029 -10.2029 -10.2000 -10.1999 -10.1984 -10.1984
 -8.1155  -8.1153  -6.0782  -6.0781  -6.0780  -6.0780  -6.0773  -6.0772
 -1.1212  -1.1211  -1.0673  -1.0629  -0.9863  -0.9861  -0.9843  -0.9841
 -0.8969  -0.8858  -0.8187  -0.7827  -0.7825  -0.7760  -0.6992  -0.6804
 -0.6621  -0.6267  -0.6128  -0.5964  -0.5873  -0.5523  -0.5440  -0.5137
 -0.5050  -0.5043  -0.4877  -0.4663  -0.4662  -0.4651  -0.4639  -0.4612
 -0.4551  -0.4541  -0.4518  -0.4499  -0.4489  -0.4216  -0.4199  -0.4084
 -0.3974  -0.3763  -0.3763  -0.3702  -0.3467  -0.3466  -0.3461  -0.3459
 -0.3211  -0.3202  -0.3085  -0.3083  -0.3024  -0.3015  -0.2892  -0.2851
 -0.2802  -0.2769  -0.2742  -0.2695  -0.2678  -0.2676

          Ground-State Mulliken Net Atomic Charges

     Atom                 Charge (a.u.)
  ----------------------------------------
      1 O                    -0.375251
      2 S                     0.809489
      3 O                    -0.410131
      4 O                    -0.420938
      5 C                    -0.790933
      6 C                    -0.346628
      7 C                     0.057971
      8 C                     0.454462
      9 C                    -0.227217
     10 O                    -0.288112
     11 C                     0.452946
     12 C                     0.060414
     13 C                    -0.344440
     14 C                    -0.789899
     15 C                    -0.154654
     16 C                     0.271645
     17 C                    -0.769374
     18 O                    -0.275626
     19 C                     0.277595
     20 C                    -0.151454
     21 S                     0.808825
     22 O                    -0.375122
     23 O                    -0.409346
     24 O                    -0.420575
     25 H                     0.257311
     26 H                     0.203957
     27 H                     0.203920
     28 H                     0.257572
     29 H                     0.216743
     30 H                     0.216816
  ----------------------------------------
  Sum of atomic charges =    -2.000034

                    Cartesian Multipole Moments
 -----------------------------------------------------------------
    Charge (ESU x 10^10)
                -9.6066
    Dipole Moment (Debye)
         X       0.0037      Y      12.5830      Z      -0.5288
       Tot      12.5941
    Quadrupole Moments (Debye-Ang)
        XX    -469.8364     XY       0.0131     YY    -191.4939
        XZ      -0.0192     YZ      -0.0247     ZZ    -172.5895

 Total job time:  96.05s(wall), 737.09s(cpu)
        *  Thank you very much for using Q-Chem.  Have a nice day.  *
