 Gaussian 16, Revision A.03,
 Gaussian 16:  ES64L-G16RevA.03 25-Dec-2016

 ----------------------------------------------------------------------
 #P UB3LYP/6-311++G(d,p) nosym opt freq SCRF=(PCM,Solvent=n,n-DiMethylF
 ormamide)
 ----------------------------------------------------------------------

 -------
 Radical
 -------
 Symbolic Z-matrix:
 Charge = -1 Multiplicity = 2

 SCF Done:  E(UB3LYP) =  -609.671575439     A.U. after   19 cycles
 SCF Done:  E(UB3LYP) =  -609.672053565     A.U. after   14 cycles
 SCF Done:  E(UB3LYP) =  -609.672045169     A.U. after   14 cycles
 SCF Done:  E(UB3LYP) =  -609.672061407     A.U. after   14 cycles
 SCF Done:  E(UB3LYP) =  -609.672097826     A.U. after   13 cycles
 SCF Done:  E(UB3LYP) =  -609.672100485     A.U. after   13 cycles
 SCF Done:  E(UB3LYP) =  -609.672102459     A.U. after   12 cycles
 SCF Done:  E(UB3LYP) =  -609.672102713     A.U. after   10 cycles
 SCF Done:  E(UB3LYP) =  -609.672102784     A.U. after   10 cycles
 SCF Done:  E(UB3LYP) =  -609.672102806     A.U. after    9 cycles
 Optimization completed.
    -- Stationary point found.
 Normal termination of Gaussian 16 at Sun Feb 11 14:52:25 2024.

 ----------------------------------------------------------------------
 #P Geom=AllCheck Guess=TCheck SCRF=Check GenChk UB3LYP/6-311++G(d,p) F
 req
 ----------------------------------------------------------------------

 Structure from the checkpoint file:  "096-rad.chk"
 -------
 Radical
 -------
 Charge = -1 Multiplicity = 2

                          Input orientation:
 ---------------------------------------------------------------------
 Center     Atomic      Atomic             Coordinates (Angstroms)
 Number     Number       Type             X           Y           Z
 ---------------------------------------------------------------------
      1          6           0        2.009262    3.887786    5.599100
      2          6           0        2.821779    3.394691    4.499767
      3          6           0        2.401457    2.425860    3.637961
      4          6           0        1.094468    1.814447    3.757523
      5          6           0        0.278920    2.289301    4.844871
      6          6           0        0.700562    3.252263    5.741481
      7          8           0        2.419860    4.826666    6.334031
      8          8           0        0.691247    0.914586    2.956274
      9          1           0        3.799494    3.852939    4.386612
     10          1           0        3.039498    2.087024    2.827096
     11          1           0       -0.700349    1.838175    4.957609
     12          6           0       -0.180058    3.611584    6.882549
     13          8           0        0.183036    3.859953    8.015453
     14          8           0       -1.488941    3.604471    6.533104
     15          6           0       -2.437361    3.855972    7.589079
     16          1           0       -3.416065    3.801560    7.118197
     17          1           0       -2.277320    4.845568    8.018402
     18          1           0       -2.349068    3.100608    8.370929
 ---------------------------------------------------------------------

 SCF Done:  E(UB3LYP) =  -609.672102806     A.U. after    1 cycles

 Alpha  occ. eigenvalues --  -19.16867 -19.11317 -19.08425 -19.08392 -10.30442
 Alpha  occ. eigenvalues --  -10.23352 -10.22567 -10.22145 -10.18497 -10.17660
 Alpha  occ. eigenvalues --  -10.17218 -10.17119  -1.10842  -1.02103  -1.00553
 Alpha  occ. eigenvalues --   -1.00113  -0.83575  -0.77411  -0.72387  -0.69229
 Alpha  occ. eigenvalues --   -0.62921  -0.59206  -0.55664  -0.51091  -0.49072
 Alpha  occ. eigenvalues --   -0.48320  -0.47032  -0.46731  -0.44246  -0.42258
 Alpha  occ. eigenvalues --   -0.41451  -0.41066  -0.39749  -0.38645  -0.37870
 Alpha  occ. eigenvalues --   -0.36835  -0.36205  -0.31182  -0.29358  -0.28883
 Alpha  occ. eigenvalues --   -0.26900  -0.24903  -0.24183  -0.17272
 Alpha virt. eigenvalues --   -0.04257  -0.00155   0.00725   0.00807   0.01797
 Alpha virt. eigenvalues --    0.02790   0.03412   0.03773   0.04192   0.04992
 Alpha virt. eigenvalues --    0.05737   0.06104   0.06451   0.07838   0.08264

  Beta  occ. eigenvalues --  -19.16862 -19.11286 -19.07732 -19.07654 -10.30444
  Beta  occ. eigenvalues --  -10.23259 -10.22449 -10.22146 -10.18390 -10.17458
  Beta  occ. eigenvalues --  -10.17160 -10.17014  -1.10816  -1.02023  -0.99436
  Beta  occ. eigenvalues --   -0.98760  -0.82960  -0.77184  -0.72216  -0.68225
  Beta  occ. eigenvalues --   -0.62568  -0.58879  -0.55513  -0.50824  -0.48912
  Beta  occ. eigenvalues --   -0.48244  -0.46673  -0.46592  -0.43997  -0.41985
  Beta  occ. eigenvalues --   -0.40573  -0.40348  -0.38870  -0.38063  -0.36603
  Beta  occ. eigenvalues --   -0.36172  -0.35055  -0.31098  -0.29121  -0.26078
  Beta  occ. eigenvalues --   -0.25465  -0.24207  -0.23589
  Beta virt. eigenvalues --   -0.10019  -0.03066  -0.00125   0.00810   0.01829
  Beta virt. eigenvalues --    0.02032   0.02817   0.03518   0.03819   0.04991
  Beta virt. eigenvalues --    0.05149   0.05811   0.06462   0.06750   0.07899

 Mulliken charges and spin densities:
               1          2
     1  C   -1.009575   0.039160
     2  C    0.076121   0.083437
     3  C    0.126098   0.041819
     4  C   -0.455012   0.121568
     5  C   -0.301957   0.122824
     6  C    1.101185   0.071914
     7  O   -0.469062   0.237912
     8  O   -0.495087   0.270677
     9  H    0.194724  -0.007236
    10  H    0.196838  -0.003743
    11  H    0.196432  -0.011165
    12  C    0.004828   0.022353
    13  O   -0.333139   0.010920
    14  O   -0.107152  -0.000331
    15  C   -0.253174  -0.000367
    16  H    0.165359   0.000090
    17  H    0.178299   0.000180
    18  H    0.184273  -0.000013
 Sum of Mulliken charges =  -1.00000   1.00000

 Dipole moment (field-independent basis, Debye):
    X=             -8.0492    Y=            -14.4297    Z=            -24.8198  Tot=             29.8166
 Quadrupole moment (field-independent basis, Debye-Ang):
   XX=            -77.0479   YY=           -135.7112   ZZ=           -224.6158
   XY=            -33.5972   XZ=            -55.1787   YZ=            -94.8867

  Exact polarizability: 174.175  30.868 167.569 -10.104  74.897 191.812
 Approx polarizability: 182.235  41.469 192.359   6.606  86.173 212.393

                      1                      2                      3
                      A                      A                      A
 Frequencies --     51.5159                90.2767               112.8098
 Red. masses --      5.6948                 4.4888                 3.3198
 Frc consts  --      0.0089                 0.0216                 0.0249
 IR Inten    --      6.5314                 9.1655                 5.7546

                      4                      5                      6
                      A                      A                      A
 Frequencies --    135.1386               150.0254               207.9918
 Red. masses --      4.9368                 1.3340                 5.3837
 Frc consts  --      0.0531                 0.0177                 0.1372
 IR Inten    --      8.3189                 0.6323                 8.7066

                      7                      8                      9
                      A                      A                      A
 Frequencies --    278.9492               305.9050               320.1829
 Red. masses --      7.4402                 6.5604                 4.6945
 Frc consts  --      0.3411                 0.3617                 0.2836
 IR Inten    --      3.0076                 7.4625                18.1575

                     10                     11                     12
                      A                      A                      A
 Frequencies --    375.4329               419.8029               461.6983
 Red. masses --      5.0875                 8.3234                 5.0339
 Frc consts  --      0.4225                 0.8643                 0.6322
 IR Inten    --      9.4862                10.3149                 3.3664

                     13                     14                     15
                      A                      A                      A
 Frequencies --    484.8333               543.6617               587.3736
 Red. masses --     10.5238                 4.0377                 3.3221
 Frc consts  --      1.4575                 0.7031                 0.6753
 IR Inten    --      0.3151                 6.7808                12.7527

                     16                     17                     18
                      A                      A                      A
 Frequencies --    668.9401               740.6908               769.2858
 Red. masses --      6.7670                 5.7098                 2.9172
 Frc consts  --      1.7841                 1.8456                 1.0172
 IR Inten    --      7.4643                 7.5819                21.4525

                     19                     20                     21
                      A                      A                      A
 Frequencies --    790.7979               824.7908               840.5322
 Red. masses --      6.0323                 4.4012                 2.7343
 Frc consts  --      2.2226                 1.7641                 1.1382
 IR Inten    --     36.2137                59.4687                67.2052

                     22                     23                     24
                      A                      A                      A
 Frequencies --    895.0464               911.3125               961.3491
 Red. masses --      1.7208                 4.2241                 4.2984
 Frc consts  --      0.8122                 2.0669                 2.3405
 IR Inten    --     53.4395                 4.0023                16.6193

                     25                     26                     27
                      A                      A                      A
 Frequencies --    974.6321              1064.1322              1124.6240
 Red. masses --      1.2914                 4.5801                 1.8414
 Frc consts  --      0.7227                 3.0558                 1.3722
 IR Inten    --      0.5303               171.9756                71.6531

                     28                     29                     30
                      A                      A                      A
 Frequencies --   1166.6247              1192.5248              1202.4205
 Red. masses --      1.2807                 2.5868                 1.5037
 Frc consts  --      1.0270                 2.1674                 1.2809
 IR Inten    --      2.6031               623.2294                54.8862

                     31                     32                     33
                      A                      A                      A
 Frequencies --   1236.9721              1265.7955              1361.2114
 Red. masses --      2.0132                 2.3846                 2.3360
 Frc consts  --      1.8149                 2.2511                 2.5502
 IR Inten    --    265.5283                24.5373                38.8775

                     34                     35                     36
                      A                      A                      A
 Frequencies --   1430.2259              1464.3240              1471.4732
 Red. masses --      5.4682                 1.2164                 6.2335
 Frc consts  --      6.5903                 1.5368                 7.9522
 IR Inten    --    148.6264                11.3767               155.8487

                     37                     38                     39
                      A                      A                      A
 Frequencies --   1474.1997              1487.3131              1505.5405
 Red. masses --      1.0471                 1.0716                 4.6824
 Frc consts  --      1.3408                 1.3967                 6.2533
 IR Inten    --     12.9793                13.8857               431.5751

                     40                     41                     42
                      A                      A                      A
 Frequencies --   1516.1814              1637.3101              1720.9755
 Red. masses --      6.9110                 6.7654                11.5821
 Frc consts  --      9.3604                10.6857                20.2110
 IR Inten    --    651.7686                40.7595               831.6475

                     43                     44                     45
                      A                      A                      A
 Frequencies --   3049.8119              3123.0633              3149.3290
 Red. masses --      1.0298                 1.1074                 1.0862
 Frc consts  --      5.6437                 6.3638                 6.3475
 IR Inten    --     50.3534                31.7191                25.5488

                     46                     47                     48
                      A                      A                      A
 Frequencies --   3157.6013              3168.0004              3180.7833
 Red. masses --      1.1057                 1.0957                 1.0899
 Frc consts  --      6.4953                 6.4791                 6.4968
 IR Inten    --     20.7347                31.8013                10.3216

 - Thermochemistry -
 -------------------
 Temperature   298.150 Kelvin.  Pressure   1.00000 Atm.
 Atom     1 has atomic number  6 and mass  12.00000

 Molecular mass:   166.02661 amu.
 Principal axes and moments of inertia in atomic units:
                           1         2         3
     Eigenvalues --  1184.161362612.355323670.25565
           X           -0.58107   0.75372  -0.30702
           Y            0.34294   0.56888   0.74751
           Z            0.73807   0.32906  -0.58904
 This molecule is an asymmetric top.
 Rotational symmetry number  1.
 Warning -- assumption of classical behavior for rotation
           may cause significant error
 Rotational temperatures (Kelvin)      0.07314     0.03316     0.02360
 Rotational constants (GHZ):           1.52407     0.69085     0.49172
 Zero-point vibrational energy     329292.5 (Joules/Mol)
                                   78.70281 (Kcal/Mol)
 Warning -- explicit consideration of  15 degrees of freedom as
           vibrations may cause significant error
 Vibrational temperatures:     74.12   129.89   162.31   194.43   215.85
          (Kelvin)            299.25   401.35   440.13   460.67   540.16
                              604.00   664.28   697.57   782.21   845.10
                              962.46  1065.69  1106.83  1137.78  1186.69
                             1209.34  1287.77  1311.18  1383.17  1402.28
                             1531.05  1618.08  1678.51  1715.78  1730.01
                             1779.73  1821.20  1958.48  2057.78  2106.84
                             2117.12  2121.04  2139.91  2166.14  2181.45
                             2355.72  2476.10  4388.00  4493.39  4531.18
                             4543.08  4558.05  4576.44

 Zero-point correction=                           0.125421 (Hartree/Particle)
 Thermal correction to Energy=                    0.136045
 Thermal correction to Enthalpy=                  0.136989
 Thermal correction to Gibbs Free Energy=         0.087727
 Sum of electronic and zero-point Energies=           -609.546682
 Sum of electronic and thermal Energies=              -609.536058
 Sum of electronic and thermal Enthalpies=            -609.535114
 Sum of electronic and thermal Free Energies=         -609.584376

                     E (Thermal)             CV                S
                      KCal/Mol        Cal/Mol-Kelvin    Cal/Mol-Kelvin
 Total                   85.369             38.630            103.681
 Electronic               0.000              0.000              1.377
 Translational            0.889              2.981             41.229
 Rotational               0.889              2.981             30.808
 Vibrational             83.592             32.669             30.267
 Vibration     1          0.596              1.977              4.758
 Vibration     2          0.602              1.956              3.654
 Vibration     3          0.607              1.939              3.220
 Vibration     4          0.613              1.918              2.872
 Vibration     5          0.618              1.903              2.672
 Vibration     6          0.641              1.828              2.061
 Vibration     7          0.679              1.712              1.540
 Vibration     8          0.696              1.662              1.384
 Vibration     9          0.706              1.635              1.309
 Vibration    10          0.746              1.522              1.058
 Vibration    11          0.782              1.427              0.893
 Vibration    12          0.819              1.335              0.761
 Vibration    13          0.841              1.284              0.697
 Vibration    14          0.899              1.154              0.557
 Vibration    15          0.945              1.059              0.472

 Optimization completed.
    -- Stationary point found.
 Normal termination of Gaussian 16 at Sun Feb 11 14:59:54 2024.
