 Gaussian 16, Revision A.03,
 Gaussian 16:  ES64L-G16RevA.03 25-Dec-2016

 --------------------------------------
 #P UB3LYP/6-311++G(d,p) nosym opt freq
 --------------------------------------

 -------
 Radical
 -------
 Symbolic Z-matrix:
 Charge = -1 Multiplicity = 2

 SCF Done:  E(UB3LYP) =  -807.202307336     A.U. after   23 cycles
 SCF Done:  E(UB3LYP) =  -807.212040635     A.U. after   17 cycles
 SCF Done:  E(UB3LYP) =  -807.213150809     A.U. after   16 cycles
 SCF Done:  E(UB3LYP) =  -807.213377775     A.U. after   16 cycles
 SCF Done:  E(UB3LYP) =  -807.213482255     A.U. after   14 cycles
 SCF Done:  E(UB3LYP) =  -807.213974043     A.U. after   20 cycles
 SCF Done:  E(UB3LYP) =  -807.151713090     A.U. after   20 cycles
 SCF Done:  E(UB3LYP) =  -807.215680688     A.U. after   19 cycles
 SCF Done:  E(UB3LYP) =  -807.215810729     A.U. after   20 cycles
 SCF Done:  E(UB3LYP) =  -807.217658304     A.U. after   18 cycles
 SCF Done:  E(UB3LYP) =  -807.219915145     A.U. after   15 cycles
 SCF Done:  E(UB3LYP) =  -807.220214523     A.U. after   17 cycles
 SCF Done:  E(UB3LYP) =  -807.220195480     A.U. after   16 cycles
 SCF Done:  E(UB3LYP) =  -807.219810508     A.U. after   18 cycles
 SCF Done:  E(UB3LYP) =  -807.220272070     A.U. after   17 cycles
 SCF Done:  E(UB3LYP) =  -807.220297408     A.U. after   16 cycles
 SCF Done:  E(UB3LYP) =  -807.220299587     A.U. after   12 cycles
 SCF Done:  E(UB3LYP) =  -807.220301248     A.U. after   13 cycles
 SCF Done:  E(UB3LYP) =  -807.220301482     A.U. after   11 cycles
 Optimization completed.
    -- Stationary point found.
 Normal termination of Gaussian 16 at Tue Dec 26 23:46:55 2023.

 ----------------------------------------------------------------------
 #P Geom=AllCheck Guess=TCheck SCRF=Check GenChk UB3LYP/6-311++G(d,p) F
 req
 ----------------------------------------------------------------------

 Structure from the checkpoint file:  "289-rad.chk"
 -------
 Radical
 -------
 Charge = -1 Multiplicity = 2

                          Input orientation:
 ---------------------------------------------------------------------
 Center     Atomic      Atomic             Coordinates (Angstroms)
 Number     Number       Type             X           Y           Z
 ---------------------------------------------------------------------
      1          6           0       -2.021828    3.043649   -0.245525
      2          6           0       -2.970500    2.501663    0.601611
      3          6           0       -2.680886    1.327933    1.326546
      4          6           0       -0.756721    2.435915   -0.398294
      5          6           0       -0.462006    1.249937    0.333756
      6          6           0       -1.443931    0.719148    1.188346
      7          6           0        0.235801    3.003820   -1.285856
      8          6           0        1.500461    2.310731   -1.374762
      9          6           0        1.816677    1.158899   -0.685684
     10          6           0        0.846620    0.572049    0.213828
     11          8           0        0.077600    4.057248   -1.986576
     12          8           0        1.095796   -0.473687    0.868936
     13          1           0       -2.221107    3.945331   -0.813664
     14          1           0       -3.939799    2.980009    0.709401
     15          1           0       -3.426609    0.902809    1.991765
     16          1           0       -1.193814   -0.183698    1.734011
     17          8           0        2.386083    2.903721   -2.227560
     18          1           0        1.868072    3.672540   -2.554219
     19          6           0        3.162553    0.495664   -0.833038
     20          6           0        4.165000    0.928275    0.256523
     21          6           0        5.514254    0.186162    0.228099
     22          6           0        6.346814    0.526330    1.473136
     23          6           0        6.319284    0.473268   -1.048308
     24          1           0        3.566099    0.721184   -1.823548
     25          1           0        3.018484   -0.587275   -0.756418
     26          1           0        3.692656    0.760205    1.229562
     27          1           0        4.346016    2.008020    0.172474
     28          1           0        5.297775   -0.891064    0.255824
     29          1           0        7.294923   -0.023501    1.485875
     30          1           0        5.802373    0.282773    2.390446
     31          1           0        6.582851    1.596666    1.501711
     32          1           0        7.274076   -0.064827   -1.043573
     33          1           0        6.538644    1.543969   -1.133370
     34          1           0        5.774170    0.177074   -1.947445
 ---------------------------------------------------------------------

 SCF Done:  E(UB3LYP) =  -807.220301482     A.U. after    2 cycles

 Alpha  occ. eigenvalues --  -19.01743 -18.95521 -18.94228 -10.09510 -10.09383
 Alpha  occ. eigenvalues --  -10.09131 -10.07698 -10.07008 -10.06702 -10.05753
 Alpha  occ. eigenvalues --  -10.05577 -10.05148 -10.05090 -10.05036 -10.04964
 Alpha  occ. eigenvalues --  -10.04808 -10.04413 -10.03722  -0.93664  -0.86742
 Alpha  occ. eigenvalues --   -0.86488  -0.73646  -0.71427  -0.68318  -0.64288
 Alpha  occ. eigenvalues --   -0.62963  -0.60001  -0.59460  -0.55078  -0.52294
 Alpha  occ. eigenvalues --   -0.49464  -0.47244  -0.45650  -0.44595  -0.41433
 Alpha  occ. eigenvalues --   -0.38252  -0.36956  -0.35995  -0.34811  -0.34102
 Alpha  occ. eigenvalues --   -0.33285  -0.32084  -0.30684  -0.30563  -0.30431
 Alpha  occ. eigenvalues --   -0.29708  -0.28639  -0.27246  -0.26999  -0.26466
 Alpha  occ. eigenvalues --   -0.26019  -0.25694  -0.24657  -0.23818  -0.23108
 Alpha  occ. eigenvalues --   -0.22189  -0.22053  -0.21775  -0.21020  -0.20707
 Alpha  occ. eigenvalues --   -0.14182  -0.13520  -0.12870  -0.10766  -0.10322
 Alpha  occ. eigenvalues --   -0.02193
 Alpha virt. eigenvalues --    0.06765   0.08308   0.08765   0.08929   0.09437
 Alpha virt. eigenvalues --    0.10196   0.10341   0.11229   0.11508   0.11943
 Alpha virt. eigenvalues --    0.12114   0.12496   0.12993   0.13577   0.14525

  Beta  occ. eigenvalues --  -19.01702 -18.94851 -18.93667 -10.09416 -10.09286
  Beta  occ. eigenvalues --  -10.08867 -10.07696 -10.07008 -10.06702 -10.05749
  Beta  occ. eigenvalues --  -10.05477 -10.05108 -10.05082 -10.05007 -10.05001
  Beta  occ. eigenvalues --  -10.04677 -10.04421 -10.03640  -0.93469  -0.85780
  Beta  occ. eigenvalues --   -0.85358  -0.73418  -0.71406  -0.67979  -0.64069
  Beta  occ. eigenvalues --   -0.62769  -0.59872  -0.59452  -0.54374  -0.52035
  Beta  occ. eigenvalues --   -0.49297  -0.47024  -0.45595  -0.44355  -0.41278
  Beta  occ. eigenvalues --   -0.38043  -0.36919  -0.35778  -0.34735  -0.33981
  Beta  occ. eigenvalues --   -0.33194  -0.32004  -0.30595  -0.30492  -0.29703
  Beta  occ. eigenvalues --   -0.29342  -0.28195  -0.27032  -0.26659  -0.26291
  Beta  occ. eigenvalues --   -0.25559  -0.25171  -0.24279  -0.23550  -0.22686
  Beta  occ. eigenvalues --   -0.21975  -0.21429  -0.20962  -0.20529  -0.19930
  Beta  occ. eigenvalues --   -0.12847  -0.12271  -0.12098  -0.10222  -0.09281
  Beta virt. eigenvalues --    0.04365   0.06768   0.08300   0.08765   0.09433
  Beta virt. eigenvalues --    0.09568   0.10192   0.10351   0.11518   0.11924
  Beta virt. eigenvalues --    0.12079   0.12387   0.12516   0.12995   0.13576

 Mulliken charges and spin densities:
               1          2
     1  C    0.112745   0.068157
     2  C   -0.333605   0.001720
     3  C   -0.362392   0.080680
     4  C    0.336573   0.008093
     5  C    0.114586   0.082032
     6  C    0.114387  -0.008852
     7  C   -1.134995   0.143523
     8  C   -0.707673   0.058211
     9  C    2.320951   0.053666
    10  C   -1.073147   0.046354
    11  O   -0.448330   0.246539
    12  O   -0.358690   0.209277
    13  H    0.157200  -0.003777
    14  H    0.122933  -0.000775
    15  H    0.120656  -0.005957
    16  H    0.157810   0.000164
    17  O   -0.247707   0.014881
    18  H    0.264476  -0.004353
    19  C   -0.296076   0.005153
    20  C   -0.670291   0.000891
    21  C    0.444510   0.003401
    22  C   -0.620074  -0.001898
    23  C   -0.638630  -0.000578
    24  H    0.199433  -0.001371
    25  H    0.203420   0.002731
    26  H    0.169959  -0.002422
    27  H    0.145378   0.002986
    28  H    0.129537   0.000966
    29  H    0.122850   0.000053
    30  H    0.133546  -0.000027
    31  H    0.127826   0.000057
    32  H    0.119209   0.000523
    33  H    0.133332   0.000014
    34  H    0.140295  -0.000061
 Sum of Mulliken charges =  -1.00000   1.00000

 Dipole moment (field-independent basis, Debye):
    X=             -3.6983    Y=             -8.1787    Z=              2.1307  Tot=              9.2254
 Quadrupole moment (field-independent basis, Debye-Ang):
   XX=           -136.1959   YY=           -146.9733   ZZ=           -125.3300
   XY=             -0.6200   XZ=              1.0712   YZ=             15.1675

  Exact polarizability: 279.584 -31.038 195.339 -31.674 -43.102 176.954
 Approx polarizability: 367.589 -37.722 350.399 -51.615 -97.140 290.399

                      1                      2                      3
                      A                      A                      A
 Frequencies --     23.4998                34.9906                42.5726
 Red. masses --      3.6528                 3.1936                 4.8067
 Frc consts  --      0.0012                 0.0023                 0.0051
 IR Inten    --      0.4764                 0.4586                 1.5796

                      4                      5                      6
                      A                      A                      A
 Frequencies --     95.1244               107.9829               126.7099
 Red. masses --      7.3091                 2.1918                 4.2278
 Frc consts  --      0.0390                 0.0151                 0.0400
 IR Inten    --      4.1881                 0.5101                 0.6442

                      7                      8                      9
                      A                      A                      A
 Frequencies --    160.4881               182.5847               196.3205
 Red. masses --      6.5507                 4.1777                 4.5409
 Frc consts  --      0.0994                 0.0821                 0.1031
 IR Inten    --      0.4807                 0.6712                 0.7293

                     10                     11                     12
                      A                      A                      A
 Frequencies --    222.1586               247.1118               252.1548
 Red. masses --      1.0630                 1.2205                 3.0221
 Frc consts  --      0.0309                 0.0439                 0.1132
 IR Inten    --      0.1536                 0.4177                 2.4634

                     13                     14                     15
                      A                      A                      A
 Frequencies --    289.4926               310.7834               347.2160
 Red. masses --      2.9832                 4.0040                 4.9490
 Frc consts  --      0.1473                 0.2279                 0.3515
 IR Inten    --      2.0001                 0.0987                 9.4507

                     16                     17                     18
                      A                      A                      A
 Frequencies --    376.6059               381.4399               394.9470
 Red. masses --      7.4876                 3.5511                 2.6747
 Frc consts  --      0.6257                 0.3044                 0.2458
 IR Inten    --     11.2242                 1.1262                 2.7973

                     19                     20                     21
                      A                      A                      A
 Frequencies --    418.0207               430.7537               444.1416
 Red. masses --      3.2777                 8.4407                 3.3078
 Frc consts  --      0.3375                 0.9228                 0.3844
 IR Inten    --      0.6278                 1.1781                 1.3141

                     22                     23                     24
                      A                      A                      A
 Frequencies --    463.6312               483.3309               531.6381
 Red. masses --      3.2520                 5.9063                 7.1386
 Frc consts  --      0.4119                 0.8129                 1.1888
 IR Inten    --      3.6062                 4.2267                 1.4285

                     25                     26                     27
                      A                      A                      A
 Frequencies --    568.0574               643.2867               676.1908
 Red. masses --      5.2531                 6.1747                 5.8830
 Frc consts  --      0.9987                 1.5055                 1.5848
 IR Inten    --      1.2841                19.9141                 3.1291

                     28                     29                     30
                      A                      A                      A
 Frequencies --    698.5551               704.8667               707.9526
 Red. masses --      3.2420                 3.2815                 5.3375
 Frc consts  --      0.9321                 0.9606                 1.5762
 IR Inten    --      2.9255                18.4272                 2.0401

                     31                     32                     33
                      A                      A                      A
 Frequencies --    734.1409               758.1482               762.2289
 Red. masses --      1.1151                 2.6173                 1.5656
 Frc consts  --      0.3541                 0.8864                 0.5359
 IR Inten    --    121.7585                 5.1770                 4.6817

                     34                     35                     36
                      A                      A                      A
 Frequencies --    780.0636               825.2541               861.9299
 Red. masses --      2.5523                 2.8704                 1.3875
 Frc consts  --      0.9150                 1.1518                 0.6073
 IR Inten    --      7.5515                 1.7138                 0.0618

                     37                     38                     39
                      A                      A                      A
 Frequencies --    871.4647               924.5078               938.6459
 Red. masses --      2.9533                 1.2367                 1.9650
 Frc consts  --      1.3215                 0.6228                 1.0200
 IR Inten    --     18.3763                 1.8861                 6.9210

                     40                     41                     42
                      A                      A                      A
 Frequencies --    950.0808               958.9891               969.3011
 Red. masses --      4.6064                 1.4416                 1.3130
 Frc consts  --      2.4498                 0.7811                 0.7268
 IR Inten    --     17.9115                 0.5246                 1.4040

                     43                     44                     45
                      A                      A                      A
 Frequencies --    978.1825               981.8286              1026.4154
 Red. masses --      1.2941                 2.0695                 3.3378
 Frc consts  --      0.7295                 1.1754                 2.0719
 IR Inten    --      1.0316                 2.0377                18.4760

                     46                     47                     48
                      A                      A                      A
 Frequencies --   1038.5516              1059.3712              1106.8385
 Red. masses --      2.0888                 2.9616                 2.0845
 Frc consts  --      1.3274                 1.9582                 1.5046
 IR Inten    --     13.5217                42.1661                 4.4777

                     49                     50                     51
                      A                      A                      A
 Frequencies --   1128.4253              1139.8024              1150.6589
 Red. masses --      2.1269                 2.0070                 1.3093
 Frc consts  --      1.5956                 1.5363                 1.0214
 IR Inten    --     21.7736                16.6649                 0.7313

                     52                     53                     54
                      A                      A                      A
 Frequencies --   1185.8912              1195.0431              1205.0395
 Red. masses --      1.7517                 2.7408                 2.2797
 Frc consts  --      1.4514                 2.3062                 1.9505
 IR Inten    --      6.9646                10.8603                19.4563

                     55                     56                     57
                      A                      A                      A
 Frequencies --   1234.8976              1258.4087              1286.8500
 Red. masses --      1.8761                 2.1999                 1.6431
 Frc consts  --      1.6857                 2.0526                 1.6032
 IR Inten    --      3.5631                54.2997                 5.6683

                     58                     59                     60
                      A                      A                      A
 Frequencies --   1292.9547              1329.8231              1342.0315
 Red. masses --      1.6319                 1.2133                 1.7826
 Frc consts  --      1.6073                 1.2641                 1.8916
 IR Inten    --     19.5554                23.5142                34.7096

                     61                     62                     63
                      A                      A                      A
 Frequencies --   1351.7451              1357.4184              1364.7274
 Red. masses --      3.3417                 2.0384                 1.3524
 Frc consts  --      3.5976                 2.2129                 1.4841
 IR Inten    --     13.1739                60.5958                 1.9320

                     64                     65                     66
                      A                      A                      A
 Frequencies --   1380.6104              1392.5639              1411.4520
 Red. masses --      1.4604                 1.2656                 1.2392
 Frc consts  --      1.6401                 1.4460                 1.4545
 IR Inten    --      2.3948                12.6469                 9.4024

                     67                     68                     69
                      A                      A                      A
 Frequencies --   1436.5687              1461.1523              1465.2883
 Red. masses --      2.4203                 1.4677                 2.2415
 Frc consts  --      2.9428                 1.8461                 2.8355
 IR Inten    --    346.6302                46.8919                23.4075

                     70                     71                     72
                      A                      A                      A
 Frequencies --   1481.8573              1485.7532              1489.3800
 Red. masses --      1.3051                 1.7059                 1.0802
 Frc consts  --      1.6885                 2.2187                 1.4118
 IR Inten    --     21.9229                53.0303                 1.5120

                     73                     74                     75
                      A                      A                      A
 Frequencies --   1495.2347              1500.8248              1509.8058
 Red. masses --      1.0798                 1.0531                 1.0514
 Frc consts  --      1.4224                 1.3976                 1.4121
 IR Inten    --      6.8174                 2.8567                 9.5814

                     76                     77                     78
                      A                      A                      A
 Frequencies --   1524.6416              1540.3221              1578.2198
 Red. masses --      5.6019                 5.7880                 5.3928
 Frc consts  --      7.6722                 8.0910                 7.9140
 IR Inten    --    412.0193                71.3525                19.4665

                     79                     80                     81
                      A                      A                      A
 Frequencies --   1621.5537              1639.7606              2980.3064
 Red. masses --      5.8283                 6.1924                 1.0811
 Frc consts  --      9.0293                 9.8100                 5.6574
 IR Inten    --     13.4912                 8.0357                 8.2106

                     82                     83                     84
                      A                      A                      A
 Frequencies --   2998.2868              3001.1501              3007.7109
 Red. masses --      1.0414                 1.0534                 1.0439
 Frc consts  --      5.5160                 5.5903                 5.5640
 IR Inten    --     25.4824                24.8227                88.0570

                     85                     86                     87
                      A                      A                      A
 Frequencies --   3025.7238              3049.2647              3051.4394
 Red. masses --      1.0601                 1.0961                 1.1014
 Frc consts  --      5.7179                 6.0045                 6.0421
 IR Inten    --     56.8562                 3.9798                 2.9194

                     88                     89                     90
                      A                      A                      A
 Frequencies --   3059.5863              3072.0168              3077.6115
 Red. masses --      1.1004                 1.1009                 1.1019
 Frc consts  --      6.0689                 6.1212                 6.1492
 IR Inten    --    130.4723                14.9556                58.0280

                     91                     92                     93
                      A                      A                      A
 Frequencies --   3090.5228              3132.9477              3152.2312
 Red. masses --      1.0970                 1.0845                 1.0909
 Frc consts  --      6.1734                 6.2720                 6.3866
 IR Inten    --     35.2174                15.6507                48.7422

                     94                     95                     96
                      A                      A                      A
 Frequencies --   3179.1593              3182.0799              3482.4375
 Red. masses --      1.0915                 1.0929                 1.0635
 Frc consts  --      6.4999                 6.5202                 7.5991
 IR Inten    --     14.2250                25.9849               103.8969

 - Thermochemistry -
 -------------------
 Temperature   298.150 Kelvin.  Pressure   1.00000 Atm.
 Atom     1 has atomic number  6 and mass  12.00000

 Molecular mass:   244.10994 amu.
 Principal axes and moments of inertia in atomic units:
                           1         2         3
     Eigenvalues --  2228.480407840.239729522.49485
           X            0.97270  -0.14449   0.18161
           Y           -0.23105  -0.67670   0.69906
           Z           -0.02189   0.72194   0.69161
 This molecule is an asymmetric top.
 Rotational symmetry number  1.
 Warning -- assumption of classical behavior for rotation
           may cause significant error
 Rotational temperatures (Kelvin)      0.03887     0.01105     0.00910
 Rotational constants (GHZ):           0.80985     0.23019     0.18952
 Zero-point vibrational energy     722961.6 (Joules/Mol)
                                  172.79196 (Kcal/Mol)
 Warning -- explicit consideration of  25 degrees of freedom as
           vibrations may cause significant error
 Vibrational temperatures:     33.81    50.34    61.25   136.86   155.36
          (Kelvin)            182.31   230.91   262.70   282.46   319.64
                              355.54   362.79   416.52   447.15   499.57
                              541.85   548.81   568.24   601.44   619.76
                              639.02   667.06   695.41   764.91   817.31
                              925.55   972.89  1005.06  1014.15  1018.59
                             1056.27  1090.81  1096.68  1122.34  1187.36
                             1240.12  1253.84  1330.16  1350.50  1366.95
                             1379.77  1394.61  1407.39  1412.63  1476.78
                             1494.24  1524.20  1592.49  1623.55  1639.92
                             1655.54  1706.23  1719.40  1733.78  1776.74
                             1810.57  1851.49  1860.27  1913.32  1930.88
                             1944.86  1953.02  1963.54  1986.39  2003.59
                             2030.76  2066.90  2102.27  2108.22  2132.06
                             2137.67  2142.89  2151.31  2159.35  2172.27
                             2193.62  2216.18  2270.71  2333.05  2359.25
                             4288.00  4313.87  4317.99  4327.43  4353.34
                             4387.21  4390.34  4402.06  4419.95  4428.00
                             4446.57  4507.61  4535.36  4574.10  4578.30
                             5010.45

 Zero-point correction=                           0.275362 (Hartree/Particle)
 Thermal correction to Energy=                    0.292000
 Thermal correction to Enthalpy=                  0.292944
 Thermal correction to Gibbs Free Energy=         0.229469
 Sum of electronic and zero-point Energies=           -806.944940
 Sum of electronic and thermal Energies=              -806.928301
 Sum of electronic and thermal Enthalpies=            -806.927357
 Sum of electronic and thermal Free Energies=         -806.990832

                     E (Thermal)             CV                S
                      KCal/Mol        Cal/Mol-Kelvin    Cal/Mol-Kelvin
 Total                  183.233             64.337            133.594
 Electronic               0.000              0.000              1.377
 Translational            0.889              2.981             42.378
 Rotational               0.889              2.981             33.475
 Vibrational            181.455             58.375             56.364
 Vibration     1          0.593              1.985              6.314
 Vibration     2          0.594              1.982              5.524
 Vibration     3          0.595              1.980              5.136
 Vibration     4          0.603              1.953              3.552
 Vibration     5          0.606              1.943              3.305
 Vibration     6          0.611              1.926              2.995
 Vibration     7          0.622              1.891              2.544
 Vibration     8          0.630              1.863              2.302
 Vibration     9          0.636              1.845              2.167
 Vibration    10          0.648              1.807              1.941
 Vibration    11          0.661              1.768              1.751
 Vibration    12          0.664              1.759              1.715
 Vibration    13          0.686              1.693              1.477
 Vibration    14          0.700              1.653              1.358
 Vibration    15          0.725              1.581              1.179
 Vibration    16          0.747              1.520              1.053
 Vibration    17          0.751              1.510              1.033
 Vibration    18          0.762              1.481              0.981
 Vibration    19          0.781              1.431              0.899
 Vibration    20          0.792              1.403              0.856
 Vibration    21          0.804              1.374              0.814
 Vibration    22          0.821              1.331              0.756
 Vibration    23          0.840              1.287              0.701
 Vibration    24          0.887              1.180              0.584
 Vibration    25          0.924              1.100              0.508

                           ! Non-Optimized Parameters !
 Normal termination of Gaussian 16 at Wed Dec 27 01:36:48 2023.
