 Gaussian 16, Revision A.03,
 Gaussian 16:  ES64L-G16RevA.03 25-Dec-2016

 ----------------------------------------------------------------------
 #P UB3LYP/6-311++G(d,p) nosym opt freq SCRF=(PCM,Solvent=n,n-DiMethylF
 ormamide)
 ----------------------------------------------------------------------

 -------
 Radical
 -------
 Symbolic Z-matrix:
 Charge = -1 Multiplicity = 2

 SCF Done:  E(UB3LYP) =  -696.297661268     A.U. after   17 cycles
 SCF Done:  E(UB3LYP) =  -696.297552494     A.U. after   13 cycles
 SCF Done:  E(UB3LYP) =  -696.296431716     A.U. after   14 cycles
 SCF Done:  E(UB3LYP) =  -696.296435633     A.U. after   13 cycles
 SCF Done:  E(UB3LYP) =  -696.297740300     A.U. after    9 cycles
 SCF Done:  E(UB3LYP) =  -696.297447577     A.U. after   14 cycles
 SCF Done:  E(UB3LYP) =  -696.297973644     A.U. after   14 cycles
 SCF Done:  E(UB3LYP) =  -696.297830014     A.U. after   15 cycles
 SCF Done:  E(UB3LYP) =  -696.298027958     A.U. after   14 cycles
 SCF Done:  E(UB3LYP) =  -696.298029621     A.U. after   12 cycles
 SCF Done:  E(UB3LYP) =  -696.298061635     A.U. after   12 cycles
 SCF Done:  E(UB3LYP) =  -696.298062770     A.U. after   12 cycles
 SCF Done:  E(UB3LYP) =  -696.298061779     A.U. after   12 cycles
 SCF Done:  E(UB3LYP) =  -696.298061698     A.U. after   13 cycles
 SCF Done:  E(UB3LYP) =  -696.298064238     A.U. after   12 cycles
 SCF Done:  E(UB3LYP) =  -696.298064924     A.U. after   10 cycles
 SCF Done:  E(UB3LYP) =  -696.298065539     A.U. after   12 cycles
 SCF Done:  E(UB3LYP) =  -696.298065901     A.U. after   10 cycles
 SCF Done:  E(UB3LYP) =  -696.298066527     A.U. after   11 cycles
 Optimization completed.
    -- Stationary point found.
 Normal termination of Gaussian 16 at Sat Feb 10 14:36:28 2024.

 ----------------------------------------------------------------------
 #P Geom=AllCheck Guess=TCheck SCRF=Check GenChk UB3LYP/6-311++G(d,p) F
 req
 ----------------------------------------------------------------------

 Structure from the checkpoint file:  "043-rad.chk"
 -------
 Radical
 -------
 Charge = -1 Multiplicity = 2

                          Input orientation:
 ---------------------------------------------------------------------
 Center     Atomic      Atomic             Coordinates (Angstroms)
 Number     Number       Type             X           Y           Z
 ---------------------------------------------------------------------
      1          6           0        0.808900    1.648966   -0.706042
      2          6           0       -0.522655    1.017117   -0.620651
      3          6           0       -0.649414   -0.247488   -0.055737
      4          6           0        0.557378   -0.977027    0.381414
      5          6           0        1.855911   -0.340369    0.278190
      6          6           0        1.977927    0.920167   -0.255124
      7          6           0        3.324978    1.590493   -0.382023
      8          6           0        3.063512   -1.103626    0.767791
      9          8           0        0.947826    2.828926   -1.170117
     10          8           0        0.475176   -2.161077    0.848468
     11          1           0        4.085770    0.898975   -0.754791
     12          1           0        3.683090    1.962494    0.586717
     13          1           0        3.260010    2.443347   -1.056146
     14          1           0        2.750721   -1.978552    1.335374
     15          1           0        3.704352   -0.480861    1.399161
     16          1           0        3.685924   -1.452886   -0.065899
     17          6           0       -1.922500   -1.071525    0.187291
     18          6           0       -3.127973   -0.375697    0.840319
     19          6           0       -2.329408   -1.927043   -1.032450
     20          6           0       -1.616428    1.929620   -1.195230
     21          6           0       -2.293701    2.815216   -0.126550
     22          6           0       -2.630668    1.316382   -2.174802
     23          1           0       -1.591185   -1.802361    0.926135
     24          1           0       -3.833477   -1.140991    1.182294
     25          1           0       -3.676817    0.290554    0.176672
     26          1           0       -2.820469    0.201153    1.717140
     27          1           0       -3.130516   -2.621218   -0.754107
     28          1           0       -1.480422   -2.522383   -1.378697
     29          1           0       -2.683659   -1.328096   -1.871881
     30          1           0       -1.040881    2.634092   -1.796944
     31          1           0       -2.926030    3.568661   -0.609866
     32          1           0       -1.540196    3.344152    0.463236
     33          1           0       -2.919287    2.247515    0.562458
     34          1           0       -3.160325    2.126635   -2.687971
     35          1           0       -3.385997    0.687974   -1.705494
     36          1           0       -2.125335    0.719679   -2.939566
 ---------------------------------------------------------------------

 SCF Done:  E(UB3LYP) =  -696.298066527     A.U. after    1 cycles

 Alpha  occ. eigenvalues --  -19.06314 -19.06314 -10.20611 -10.20604 -10.16109
 Alpha  occ. eigenvalues --  -10.16055 -10.15866 -10.15850 -10.15647 -10.15584
 Alpha  occ. eigenvalues --  -10.14834 -10.14825 -10.14739 -10.14738 -10.14651
 Alpha  occ. eigenvalues --  -10.14649  -0.98519  -0.98242  -0.82127  -0.79773
 Alpha  occ. eigenvalues --   -0.77538  -0.73472  -0.71482  -0.67820  -0.67205
 Alpha  occ. eigenvalues --   -0.65646  -0.65172  -0.59174  -0.57352  -0.53240
 Alpha  occ. eigenvalues --   -0.51022  -0.48828  -0.45335  -0.43381  -0.43092
 Alpha  occ. eigenvalues --   -0.42807  -0.42571  -0.41546  -0.40540  -0.40105
 Alpha  occ. eigenvalues --   -0.39626  -0.39142  -0.38346  -0.38197  -0.37754
 Alpha  occ. eigenvalues --   -0.36766  -0.36695  -0.35746  -0.35330  -0.34974
 Alpha  occ. eigenvalues --   -0.33292  -0.33273  -0.32916  -0.31628  -0.30506
 Alpha  occ. eigenvalues --   -0.30055  -0.25904  -0.23502  -0.22529  -0.21726
 Alpha  occ. eigenvalues --   -0.14732
 Alpha virt. eigenvalues --   -0.00667   0.00355   0.00598   0.00958   0.01472
 Alpha virt. eigenvalues --    0.02319   0.02622   0.03010   0.03054   0.03622
 Alpha virt. eigenvalues --    0.04213   0.04727   0.04746   0.05220   0.05302

  Beta  occ. eigenvalues --  -19.05657 -19.05655 -10.20431 -10.20424 -10.16007
  Beta  occ. eigenvalues --  -10.15952 -10.15875 -10.15860 -10.15548 -10.15484
  Beta  occ. eigenvalues --  -10.14843 -10.14834 -10.14735 -10.14735 -10.14642
  Beta  occ. eigenvalues --  -10.14640  -0.97366  -0.97058  -0.81664  -0.79614
  Beta  occ. eigenvalues --   -0.77469  -0.73254  -0.71217  -0.67801  -0.67188
  Beta  occ. eigenvalues --   -0.65486  -0.64472  -0.58770  -0.57307  -0.52844
  Beta  occ. eigenvalues --   -0.50785  -0.48653  -0.45109  -0.43208  -0.43057
  Beta  occ. eigenvalues --   -0.42547  -0.42214  -0.41288  -0.40393  -0.39969
  Beta  occ. eigenvalues --   -0.39060  -0.38765  -0.38238  -0.38157  -0.37699
  Beta  occ. eigenvalues --   -0.36671  -0.35876  -0.35087  -0.34906  -0.33495
  Beta  occ. eigenvalues --   -0.33194  -0.32979  -0.32142  -0.31468  -0.30267
  Beta  occ. eigenvalues --   -0.29939  -0.22941  -0.22895  -0.21840  -0.21160
  Beta virt. eigenvalues --   -0.07637  -0.00634   0.00359   0.00973   0.01501
  Beta virt. eigenvalues --    0.01796   0.02329   0.02649   0.03042   0.03197
  Beta virt. eigenvalues --    0.03762   0.04698   0.04750   0.05166   0.05252

 Mulliken charges and spin densities:
               1          2
     1  C   -1.514154   0.075345
     2  C    0.808135   0.086726
     3  C    0.828125   0.088291
     4  C   -1.495740   0.073619
     5  C    0.864954   0.097412
     6  C    0.816995   0.092622
     7  C   -0.522186  -0.001179
     8  C   -0.534159  -0.001403
     9  O   -0.453686   0.239218
    10  O   -0.453464   0.239703
    11  H    0.146941   0.002165
    12  H    0.165292   0.004500
    13  H    0.176505  -0.000356
    14  H    0.176074  -0.000619
    15  H    0.149980   0.002450
    16  H    0.162619   0.004260
    17  C    0.122075  -0.009537
    18  C   -0.640443  -0.000382
    19  C   -0.693203   0.009397
    20  C    0.130393  -0.008755
    21  C   -0.693293   0.009083
    22  C   -0.643427  -0.000340
    23  H    0.214232  -0.000276
    24  H    0.153204  -0.000377
    25  H    0.118848  -0.000073
    26  H    0.139930   0.000238
    27  H    0.137548   0.000916
    28  H    0.164329  -0.001404
    29  H    0.119855  -0.000104
    30  H    0.215112  -0.000456
    31  H    0.137590   0.000861
    32  H    0.162987  -0.001260
    33  H    0.120029  -0.000099
    34  H    0.153008  -0.000369
    35  H    0.118542  -0.000063
    36  H    0.140453   0.000241
 Sum of Mulliken charges =  -1.00000   1.00000

 Dipole moment (field-independent basis, Debye):
    X=             -2.6847    Y=             -1.6396    Z=              0.8861  Tot=              3.2682
 Quadrupole moment (field-independent basis, Debye-Ang):
   XX=           -106.7959   YY=           -138.5633   ZZ=           -109.8821
   XY=             -3.8819   XZ=              1.6223   YZ=             12.5910

  Exact polarizability: 282.915   8.633 320.232   9.098 -50.250 205.833
 Approx polarizability: 278.227  11.892 359.298   4.776 -61.839 228.184

                      1                      2                      3
                      A                      A                      A
 Frequencies --     45.3580                55.2482                69.2224
 Red. masses --      3.6085                 3.0982                 1.1547
 Frc consts  --      0.0044                 0.0056                 0.0033
 IR Inten    --      0.0344                10.5962                 0.1846

                      4                      5                      6
                      A                      A                      A
 Frequencies --     83.5665                93.1391               131.9774
 Red. masses --      1.1085                 3.6804                 2.8647
 Frc consts  --      0.0046                 0.0188                 0.0294
 IR Inten    --      0.7640                12.4925                 0.0195

                      7                      8                      9
                      A                      A                      A
 Frequencies --    144.0867               166.5595               179.9626
 Red. masses --      2.6123                 2.0372                 1.9005
 Frc consts  --      0.0320                 0.0333                 0.0363
 IR Inten    --      0.0561                 0.3965                 3.9087

                     10                     11                     12
                      A                      A                      A
 Frequencies --    191.4872               211.0798               235.4960
 Red. masses --      1.2168                 1.7030                 3.3436
 Frc consts  --      0.0263                 0.0447                 0.1093
 IR Inten    --      0.1438                 4.7096                 0.0441

                     13                     14                     15
                      A                      A                      A
 Frequencies --    241.4748               242.7715               258.4572
 Red. masses --      2.6683                 2.5437                 1.8378
 Frc consts  --      0.0917                 0.0883                 0.0723
 IR Inten    --      0.5279                 0.7753                 0.2569

                     16                     17                     18
                      A                      A                      A
 Frequencies --    262.9444               286.4370               290.2958
 Red. masses --      1.1721                 1.5126                 2.3261
 Frc consts  --      0.0477                 0.0731                 0.1155
 IR Inten    --      0.1689                 1.4612                 2.9019

                     19                     20                     21
                      A                      A                      A
 Frequencies --    334.7064               354.6164               427.8882
 Red. masses --      2.4559                 3.3080                 2.8670
 Frc consts  --      0.1621                 0.2451                 0.3093
 IR Inten    --      1.9265                 1.7666                 0.1553

                     22                     23                     24
                      A                      A                      A
 Frequencies --    441.1387               441.9656               451.9148
 Red. masses --      5.6068                 6.2287                 4.8510
 Frc consts  --      0.6429                 0.7168                 0.5837
 IR Inten    --     11.9075                27.7233                 0.4298

                     25                     26                     27
                      A                      A                      A
 Frequencies --    454.1452               494.0119               501.7277
 Red. masses --      3.6108                 3.9285                 4.6947
 Frc consts  --      0.4388                 0.5649                 0.6963
 IR Inten    --     11.1150                 4.5145                 0.2910

                     28                     29                     30
                      A                      A                      A
 Frequencies --    556.8188               589.7796               627.4636
 Red. masses --      3.1871                 4.1267                 4.6621
 Frc consts  --      0.5822                 0.8457                 1.0815
 IR Inten    --      0.1034                34.6004                 0.0085

                     31                     32                     33
                      A                      A                      A
 Frequencies --    715.0141               730.7248               773.4163
 Red. masses --      3.4527                 7.1602                 4.7789
 Frc consts  --      1.0400                 2.2526                 1.6842
 IR Inten    --      2.0315                19.5712                 7.4070

                     34                     35                     36
                      A                      A                      A
 Frequencies --    798.9130               852.2629               903.6044
 Red. masses --      7.0970                 3.0096                 2.5871
 Frc consts  --      2.6689                 1.2880                 1.2446
 IR Inten    --      0.0138                21.9722                45.4975

                     37                     38                     39
                      A                      A                      A
 Frequencies --    909.8285               922.6656               932.4146
 Red. masses --      2.3226                 1.2042                 1.1931
 Frc consts  --      1.1328                 0.6040                 0.6111
 IR Inten    --      3.4479                 4.8258                 3.4537

                     40                     41                     42
                      A                      A                      A
 Frequencies --    962.5572               964.8546               984.1427
 Red. masses --      1.4963                 1.4380                 2.3921
 Frc consts  --      0.8168                 0.7887                 1.3650
 IR Inten    --      0.1581                 0.3142                 7.3343

                     43                     44                     45
                      A                      A                      A
 Frequencies --    987.1032              1023.1025              1055.1657
 Red. masses --      1.5612                 1.4197                 1.5406
 Frc consts  --      0.8963                 0.8755                 1.0106
 IR Inten    --     25.7769                 3.9073                 4.9280

                     46                     47                     48
                      A                      A                      A
 Frequencies --   1070.4787              1096.7300              1106.6403
 Red. masses --      4.2995                 1.5360                 2.4330
 Frc consts  --      2.9028                 1.0885                 1.7555
 IR Inten    --      2.1514                10.2315                80.2082

                     49                     50                     51
                      A                      A                      A
 Frequencies --   1121.2281              1130.2672              1142.8427
 Red. masses --      2.7525                 2.4808                 2.0752
 Frc consts  --      2.0388                 1.8672                 1.5969
 IR Inten    --     25.3766                 5.0013                21.5483

                     52                     53                     54
                      A                      A                      A
 Frequencies --   1185.9525              1194.7634              1217.9087
 Red. masses --      2.6737                 2.2467                 5.4451
 Frc consts  --      2.2156                 1.8896                 4.7587
 IR Inten    --     42.1881                 9.9284                40.2113

                     55                     56                     57
                      A                      A                      A
 Frequencies --   1249.2367              1365.1101              1367.0565
 Red. masses --      3.0016                 1.4455                 1.2897
 Frc consts  --      2.7599                 1.5871                 1.4201
 IR Inten    --     69.5822                18.5432                 6.5840

                     58                     59                     60
                      A                      A                      A
 Frequencies --   1369.1852              1375.1288              1384.6911
 Red. masses --      1.3224                 1.5342                 1.2322
 Frc consts  --      1.4606                 1.7092                 1.3920
 IR Inten    --     45.2445                 0.2795                20.7554

                     61                     62                     63
                      A                      A                      A
 Frequencies --   1386.9748              1388.8577              1390.8208
 Red. masses --      1.2454                 1.2659                 1.5447
 Frc consts  --      1.4116                 1.4386                 1.7605
 IR Inten    --      4.2091                 4.1332               126.6101

                     64                     65                     66
                      A                      A                      A
 Frequencies --   1399.5152              1414.8417              1425.8317
 Red. masses --      1.2852                 1.2136                 2.2080
 Frc consts  --      1.4832                 1.4313                 2.6447
 IR Inten    --     11.6378                 1.9682               270.6139

                     67                     68                     69
                      A                      A                      A
 Frequencies --   1465.9781              1469.3262              1474.6665
 Red. masses --      2.2776                 1.3845                 2.2375
 Frc consts  --      2.8840                 1.7610                 2.8668
 IR Inten    --    589.1151                 3.0140                 8.4994

                     70                     71                     72
                      A                      A                      A
 Frequencies --   1475.3798              1478.2166              1481.6951
 Red. masses --      1.0763                 1.4200                 1.0809
 Frc consts  --      1.3804                 1.8282                 1.3982
 IR Inten    --     28.9044               241.5814                 6.2261

                     73                     74                     75
                      A                      A                      A
 Frequencies --   1484.6269              1485.0304              1488.8244
 Red. masses --      1.1037                 1.0544                 1.0504
 Frc consts  --      1.4332                 1.3700                 1.3718
 IR Inten    --      0.0543                 5.6439                 0.5615

                     76                     77                     78
                      A                      A                      A
 Frequencies --   1492.3318              1495.9241              1503.7709
 Red. masses --      1.0610                 1.1242                 1.0668
 Frc consts  --      1.3922                 1.4822                 1.4214
 IR Inten    --      1.3938               127.2885                 0.0443

                     79                     80                     81
                      A                      A                      A
 Frequencies --   1508.1047              1515.6459              1519.5736
 Red. masses --      1.0572                 1.0774                 4.4811
 Frc consts  --      1.4166                 1.4582                 6.0964
 IR Inten    --      8.5908                 0.8877                35.0815

                     82                     83                     84
                      A                      A                      A
 Frequencies --   1620.4236              3000.0293              3001.9156
 Red. masses --      7.9917                 1.0515                 1.0495
 Frc consts  --     12.3637                 5.5761                 5.5723
 IR Inten    --      1.6853               106.4667                70.5209

                     85                     86                     87
                      A                      A                      A
 Frequencies --   3013.7861              3013.8881              3018.1530
 Red. masses --      1.0429                 1.0438                 1.0433
 Frc consts  --      5.5811                 5.5862                 5.5994
 IR Inten    --     17.5249               118.9269                85.3020

                     88                     89                     90
                      A                      A                      A
 Frequencies --   3020.8302              3049.7655              3057.0401
 Red. masses --      1.0459                 1.0894                 1.0825
 Frc consts  --      5.6235                 5.9699                 5.9605
 IR Inten    --    124.2272                66.5156                 4.6731

                     91                     92                     93
                      A                      A                      A
 Frequencies --   3057.9314              3059.4673              3068.7457
 Red. masses --      1.0876                 1.0810                 1.0978
 Frc consts  --      5.9920                 5.9619                 6.0909
 IR Inten    --     38.6480                21.9725                19.3200

                     94                     95                     96
                      A                      A                      A
 Frequencies --   3069.7655              3074.0229              3074.9448
 Red. masses --      1.0970                 1.0955                 1.0952
 Frc consts  --      6.0910                 6.0993                 6.1014
 IR Inten    --    105.7777                78.1920                97.0222

                     97                     98                     99
                      A                      A                      A
 Frequencies --   3114.2091              3116.1726              3119.3630
 Red. masses --      1.0975                 1.0968                 1.0955
 Frc consts  --      6.2712                 6.2751                 6.2805
 IR Inten    --     30.6958                96.7467                 0.1114

                    100                    101                    102
                      A                      A                      A
 Frequencies --   3123.6741              3124.3586              3135.5939
 Red. masses --      1.0959                 1.0956                 1.0909
 Frc consts  --      6.3001                 6.3011                 6.3192
 IR Inten    --     26.0471                 7.4092                39.5768

 - Thermochemistry -
 -------------------
 Temperature   298.150 Kelvin.  Pressure   1.00000 Atm.
 Atom     1 has atomic number  6 and mass  12.00000

 Molecular mass:   220.14633 amu.
 Principal axes and moments of inertia in atomic units:
                           1         2         3
     Eigenvalues --  2666.503273816.835385751.54468
           X            0.98962   0.08050  -0.11907
           Y           -0.03713   0.94351   0.32925
           Z            0.13885  -0.32141   0.93671
 This molecule is an asymmetric top.
 Rotational symmetry number  1.
 Warning -- assumption of classical behavior for rotation
           may cause significant error
 Rotational temperatures (Kelvin)      0.03248     0.02269     0.01506
 Rotational constants (GHZ):           0.67682     0.47284     0.31378
 Zero-point vibrational energy     804122.3 (Joules/Mol)
                                  192.18984 (Kcal/Mol)
 Warning -- explicit consideration of  29 degrees of freedom as
           vibrations may cause significant error
 Vibrational temperatures:     65.26    79.49    99.60   120.23   134.01
          (Kelvin)            189.89   207.31   239.64   258.93   275.51
                              303.70   338.83   347.43   349.29   371.86
                              378.32   412.12   417.67   481.57   510.21
                              615.64   634.70   635.89   650.20   653.41
                              710.77   721.87   801.14   848.56   902.78
                             1028.75  1051.35  1112.77  1149.46  1226.22
                             1300.09  1309.04  1327.51  1341.54  1384.91
                             1388.21  1415.96  1420.22  1472.02  1518.15
                             1540.18  1577.95  1592.21  1613.20  1626.20
                             1644.30  1706.32  1719.00  1752.30  1797.37
                             1964.09  1966.89  1969.95  1978.50  1992.26
                             1995.55  1998.26  2001.08  2013.59  2035.64
                             2051.45  2109.22  2114.03  2121.72  2122.74
                             2126.82  2131.83  2136.05  2136.63  2142.09
                             2147.13  2152.30  2163.59  2169.83  2180.68
                             2186.33  2331.43  4316.37  4319.09  4336.17
                             4336.31  4342.45  4346.30  4387.93  4398.40
                             4399.68  4401.89  4415.24  4416.71  4422.83
                             4424.16  4480.65  4483.48  4488.07  4494.27
                             4495.26  4511.42

 Zero-point correction=                           0.306274 (Hartree/Particle)
 Thermal correction to Energy=                    0.324326
 Thermal correction to Enthalpy=                  0.325270
 Thermal correction to Gibbs Free Energy=         0.260711
 Sum of electronic and zero-point Energies=           -695.991793
 Sum of electronic and thermal Energies=              -695.973741
 Sum of electronic and thermal Enthalpies=            -695.972797
 Sum of electronic and thermal Free Energies=         -696.037355

                     E (Thermal)             CV                S
                      KCal/Mol        Cal/Mol-Kelvin    Cal/Mol-Kelvin
 Total                  203.517             67.532            135.875
 Electronic               0.000              0.000              1.377
 Translational            0.889              2.981             42.070
 Rotational               0.889              2.981             32.437
 Vibrational            201.740             61.570             59.990
 Vibration     1          0.595              1.979              5.010
 Vibration     2          0.596              1.975              4.620
 Vibration     3          0.598              1.969              4.175
 Vibration     4          0.600              1.960              3.805
 Vibration     5          0.602              1.954              3.593
 Vibration     6          0.612              1.921              2.917
 Vibration     7          0.616              1.909              2.749
 Vibration     8          0.624              1.884              2.474
 Vibration     9          0.629              1.867              2.329
 Vibration    10          0.634              1.852              2.213
 Vibration    11          0.643              1.824              2.034
 Vibration    12          0.655              1.786              1.837
 Vibration    13          0.658              1.777              1.792
 Vibration    14          0.659              1.775              1.782
 Vibration    15          0.667              1.748              1.672
 Vibration    16          0.670              1.741              1.642
 Vibration    17          0.684              1.699              1.495
 Vibration    18          0.686              1.692              1.472
 Vibration    19          0.716              1.606              1.237
 Vibration    20          0.730              1.566              1.146
 Vibration    21          0.789              1.410              0.866
 Vibration    22          0.801              1.380              0.823
 Vibration    23          0.802              1.379              0.820
 Vibration    24          0.811              1.357              0.790
 Vibration    25          0.813              1.352              0.783
 Vibration    26          0.850              1.263              0.673
 Vibration    27          0.857              1.246              0.654
 Vibration    28          0.912              1.125              0.530
 Vibration    29          0.947              1.054              0.468

 Optimization completed.
    -- Stationary point found.
 Normal termination of Gaussian 16 at Sat Feb 10 16:06:30 2024.
