 Gaussian 16, Revision A.03,
 Gaussian 16:  ES64L-G16RevA.03 25-Dec-2016

 --------------------------------------
 #P UB3LYP/6-311++G(d,p) nosym opt freq
 --------------------------------------

 --------
 Oxidized
 --------
 Symbolic Z-matrix:
 Charge =  0 Multiplicity = 1

 SCF Done:  E(UB3LYP) =  -1302.23313506     A.U. after   16 cycles
 SCF Done:  E(UB3LYP) =  -1302.23975648     A.U. after   15 cycles
 SCF Done:  E(UB3LYP) =  -1302.24002954     A.U. after   13 cycles
 SCF Done:  E(UB3LYP) =  -1302.24031873     A.U. after   13 cycles
 SCF Done:  E(UB3LYP) =  -1302.24034119     A.U. after   11 cycles
 SCF Done:  E(UB3LYP) =  -1302.24034026     A.U. after   10 cycles
 SCF Done:  E(UB3LYP) =  -1302.24033788     A.U. after   11 cycles
 SCF Done:  E(UB3LYP) =  -1302.24034190     A.U. after   10 cycles
 Optimization completed.
    -- Stationary point found.
 Normal termination of Gaussian 16 at Thu Dec 21 06:11:47 2023.

 ----------------------------------------------------------------------
 #P Geom=AllCheck Guess=TCheck SCRF=Check GenChk UB3LYP/6-311++G(d,p) F
 req
 ----------------------------------------------------------------------

 Structure from the checkpoint file:  "135.chk"
 --------
 Oxidized
 --------
 Charge =  0 Multiplicity = 1

                          Input orientation:
 ---------------------------------------------------------------------
 Center     Atomic      Atomic             Coordinates (Angstroms)
 Number     Number       Type             X           Y           Z
 ---------------------------------------------------------------------
      1          6           0        5.579866   -4.611314   -1.011304
      2          6           0        6.486687   -4.089002   -1.989714
      3          6           0        6.186527   -2.824237   -2.585119
      4          6           0        4.427533   -3.926673   -0.630075
      5          6           0        4.162959   -2.658781   -1.252837
      6          6           0        5.018804   -2.139389   -2.193181
      7          6           0        3.457381   -4.445356    0.391121
      8          6           0        2.256070   -3.605990    0.707475
      9          6           0        2.013700   -2.370810    0.089649
     10          6           0        2.956756   -1.836929   -0.921376
     11          6           0        1.349047   -4.087117    1.659371
     12          6           0        0.220618   -3.347209    1.987509
     13          6           0       -0.018445   -2.115327    1.369384
     14          6           0        0.874427   -1.629362    0.424527
     15          6           0        7.668448   -4.759102   -2.401120
     16          6           0        8.500234   -4.205413   -3.346404
     17          6           0        8.200763   -2.955814   -3.932610
     18          6           0        7.065600   -2.280810   -3.557376
     19          8           0        3.603536   -5.507825    0.967282
     20          8           0        2.759138   -0.762685   -1.467726
     21         17           0        6.002521   -6.162337   -0.320213
     22          1           0        4.776266   -1.180064   -2.634304
     23          1           0        1.550873   -5.042305    2.126983
     24          1           0       -0.476755   -3.726954    2.725627
     25          1           0       -0.900350   -1.540402    1.627957
     26          1           0        0.714086   -0.679117   -0.069316
     27          1           0        7.913261   -5.715825   -1.963315
     28          1           0        9.397238   -4.735751   -3.644826
     29          1           0        8.867625   -2.534562   -4.675928
     30          1           0        6.820287   -1.320491   -3.997041
 ---------------------------------------------------------------------

 SCF Done:  E(UB3LYP) =  -1302.24034189     A.U. after    2 cycles

 Alpha  occ. eigenvalues -- -101.56078 -19.12450 -19.12335 -10.28172 -10.27860
 Alpha  occ. eigenvalues --  -10.26864 -10.22184 -10.22049 -10.21575 -10.21252
 Alpha  occ. eigenvalues --  -10.20943 -10.20780 -10.20304 -10.20284 -10.20230
 Alpha  occ. eigenvalues --  -10.20223 -10.20192 -10.20166 -10.19986 -10.19885
 Alpha  occ. eigenvalues --  -10.19756  -9.47580  -7.24054  -7.23099  -7.22959
 Alpha  occ. eigenvalues --   -1.06191  -1.05928  -0.92233  -0.89032  -0.87618
 Alpha  occ. eigenvalues --   -0.85510  -0.80654  -0.78734  -0.77910  -0.77347
 Alpha  occ. eigenvalues --   -0.75149  -0.68669  -0.68460  -0.65159  -0.63403
 Alpha  occ. eigenvalues --   -0.61235  -0.58652  -0.58309  -0.55730  -0.53365
 Alpha  occ. eigenvalues --   -0.52423  -0.50320  -0.49162  -0.47475  -0.47089
 Alpha  occ. eigenvalues --   -0.46136  -0.45824  -0.45267  -0.44993  -0.44818
 Alpha  occ. eigenvalues --   -0.44709  -0.43760  -0.42333  -0.41586  -0.40696
 Alpha  occ. eigenvalues --   -0.39270  -0.38265  -0.37760  -0.37136  -0.36767
 Alpha  occ. eigenvalues --   -0.36479  -0.34189  -0.32881  -0.29936  -0.28630
 Alpha  occ. eigenvalues --   -0.28008  -0.27872  -0.27736  -0.26256  -0.24590
 Alpha virt. eigenvalues --   -0.11306  -0.09539  -0.04739  -0.04497  -0.01237
 Alpha virt. eigenvalues --   -0.01127  -0.00747   0.00322   0.00680   0.01142
 Alpha virt. eigenvalues --    0.01418   0.01557   0.02822   0.03354   0.03538

  Beta  occ. eigenvalues -- -101.56078 -19.12450 -19.12335 -10.28172 -10.27860
  Beta  occ. eigenvalues --  -10.26864 -10.22184 -10.22049 -10.21575 -10.21252
  Beta  occ. eigenvalues --  -10.20943 -10.20780 -10.20304 -10.20284 -10.20230
  Beta  occ. eigenvalues --  -10.20223 -10.20192 -10.20166 -10.19986 -10.19885
  Beta  occ. eigenvalues --  -10.19756  -9.47580  -7.24054  -7.23099  -7.22959
  Beta  occ. eigenvalues --   -1.06191  -1.05928  -0.92233  -0.89032  -0.87618
  Beta  occ. eigenvalues --   -0.85510  -0.80654  -0.78734  -0.77910  -0.77347
  Beta  occ. eigenvalues --   -0.75149  -0.68669  -0.68460  -0.65159  -0.63403
  Beta  occ. eigenvalues --   -0.61235  -0.58652  -0.58309  -0.55730  -0.53365
  Beta  occ. eigenvalues --   -0.52423  -0.50320  -0.49162  -0.47475  -0.47089
  Beta  occ. eigenvalues --   -0.46136  -0.45824  -0.45267  -0.44993  -0.44818
  Beta  occ. eigenvalues --   -0.44709  -0.43760  -0.42333  -0.41586  -0.40696
  Beta  occ. eigenvalues --   -0.39270  -0.38265  -0.37760  -0.37136  -0.36767
  Beta  occ. eigenvalues --   -0.36479  -0.34189  -0.32881  -0.29936  -0.28630
  Beta  occ. eigenvalues --   -0.28008  -0.27872  -0.27736  -0.26256  -0.24590
  Beta virt. eigenvalues --   -0.11306  -0.09539  -0.04739  -0.04497  -0.01237
  Beta virt. eigenvalues --   -0.01127  -0.00747   0.00322   0.00680   0.01142
  Beta virt. eigenvalues --    0.01418   0.01557   0.02822   0.03354   0.03538

 Mulliken charges and spin densities:
               1          2
     1  C    0.679122  -0.000000
     2  C    0.568300  -0.000000
     3  C    1.134789  -0.000000
     4  C    0.239246  -0.000000
     5  C    0.696901  -0.000000
     6  C    0.137832  -0.000000
     7  C   -2.098617   0.000000
     8  C   -0.227386   0.000000
     9  C    0.515987  -0.000000
    10  C   -0.915792   0.000000
    11  C    0.235227  -0.000000
    12  C   -0.405743   0.000000
    13  C   -0.417069   0.000000
    14  C    0.191743  -0.000000
    15  C   -1.124616   0.000000
    16  C   -0.656330  -0.000000
    17  C   -0.208766  -0.000000
    18  C   -0.230187  -0.000000
    19  O   -0.095596  -0.000000
    20  O   -0.201911  -0.000000
    21  Cl   0.628890  -0.000000
    22  H    0.149978   0.000000
    23  H    0.186741  -0.000000
    24  H    0.178065  -0.000000
    25  H    0.178501  -0.000000
    26  H    0.180311   0.000000
    27  H    0.170068   0.000000
    28  H    0.184934  -0.000000
    29  H    0.172736  -0.000000
    30  H    0.152640   0.000000
 Sum of Mulliken charges =  -0.00000   0.00000

 Dipole moment (field-independent basis, Debye):
    X=              0.7030    Y=              0.8649    Z=             -1.0548  Tot=              1.5346
 Quadrupole moment (field-independent basis, Debye-Ang):
   XX=            -97.9422   YY=           -140.5759   ZZ=           -117.6118
   XY=              0.6408   XZ=            -23.5449   YZ=              6.0014

  Exact polarizability: 310.454 -45.911 216.825-116.375 -38.665 212.760
 Approx polarizability: 462.046 -78.550 410.458-154.422 -95.384 344.754

                      1                      2                      3
                      A                      A                      A
 Frequencies --     12.7899                36.0439                83.4215
 Red. masses --      8.6309                 9.5399                 4.9234
 Frc consts  --      0.0008                 0.0073                 0.0202
 IR Inten    --      3.9313                 0.6281                 0.5852

                      4                      5                      6
                      A                      A                      A
 Frequencies --    110.8060               124.1557               159.5698
 Red. masses --      4.8067                 6.4188                 6.4085
 Frc consts  --      0.0348                 0.0583                 0.0961
 IR Inten    --      0.0371                 0.5381                 1.3891

                      7                      8                      9
                      A                      A                      A
 Frequencies --    175.9330               240.6010               269.6532
 Red. masses --      5.9665                10.5535                 5.6603
 Frc consts  --      0.1088                 0.3599                 0.2425
 IR Inten    --      0.6224                 0.0780                 2.4038

                     10                     11                     12
                      A                      A                      A
 Frequencies --    277.4677               278.4433               299.5657
 Red. masses --      7.4087                 5.2071                 7.5978
 Frc consts  --      0.3361                 0.2379                 0.4017
 IR Inten    --      0.4175                 0.0949                 0.1481

                     13                     14                     15
                      A                      A                      A
 Frequencies --    343.2147               399.3733               410.6730
 Red. masses --     12.6668                11.7718                 8.5068
 Frc consts  --      0.8791                 1.1062                 0.8453
 IR Inten    --      0.8848                25.9861                 1.8063

                     16                     17                     18
                      A                      A                      A
 Frequencies --    420.6853               449.1383               451.1777
 Red. masses --      3.4823                 4.6801                 3.7000
 Frc consts  --      0.3631                 0.5562                 0.4438
 IR Inten    --      0.1591                 0.9806                 5.2234

                     19                     20                     21
                      A                      A                      A
 Frequencies --    473.9301               485.0749               519.1966
 Red. masses --     12.6821                 7.0402                 3.9966
 Frc consts  --      1.6783                 0.9760                 0.6347
 IR Inten    --      1.1473                 1.1172                 0.3747

                     22                     23                     24
                      A                      A                      A
 Frequencies --    557.7019               590.1711               595.7073
 Red. masses --      3.7645                 8.2070                 7.2564
 Frc consts  --      0.6899                 1.6842                 1.5172
 IR Inten    --      6.2099                 8.1550                12.2992

                     25                     26                     27
                      A                      A                      A
 Frequencies --    629.6538               656.7402               681.0405
 Red. masses --      5.3539                 6.7423                 6.4985
 Frc consts  --      1.2506                 1.7134                 1.7759
 IR Inten    --      0.0655                 4.1376                 3.5750

                     28                     29                     30
                      A                      A                      A
 Frequencies --    712.6268               734.2824               737.7063
 Red. masses --      4.9934                 7.4195                 2.0234
 Frc consts  --      1.4941                 2.3570                 0.6488
 IR Inten    --      0.1981                 2.5805                44.3852

                     31                     32                     33
                      A                      A                      A
 Frequencies --    752.5482               767.2621               777.7429
 Red. masses --      7.3022                 1.8041                 2.1230
 Frc consts  --      2.4365                 0.6257                 0.7566
 IR Inten    --     16.9748                53.7796                30.9214

                     34                     35                     36
                      A                      A                      A
 Frequencies --    816.9481               827.6450               853.2456
 Red. masses --      2.1836                 5.1976                 6.3191
 Frc consts  --      0.8586                 2.0977                 2.7105
 IR Inten    --      2.7834                 2.4590                 2.3152

                     37                     38                     39
                      A                      A                      A
 Frequencies --    864.9260               877.6670               917.2768
 Red. masses --      6.8030                 1.4359                 1.4155
 Frc consts  --      2.9985                 0.6517                 0.7017
 IR Inten    --     19.2073                 0.6315                 0.2079

                     40                     41                     42
                      A                      A                      A
 Frequencies --    954.4002               964.7674               988.1020
 Red. masses --      1.4576                 6.7860                 1.3809
 Frc consts  --      0.7822                 3.7214                 0.7944
 IR Inten    --     10.8079                18.7677                 3.7236

                     43                     44                     45
                      A                      A                      A
 Frequencies --    997.8208              1005.6542              1006.8380
 Red. masses --      7.1508                 1.3798                 1.3091
 Frc consts  --      4.1948                 0.8222                 0.7819
 IR Inten    --    134.5690                 2.2049                 0.0613

                     46                     47                     48
                      A                      A                      A
 Frequencies --   1019.7170              1051.3597              1062.1133
 Red. masses --      1.3260                 2.3190                 1.8858
 Frc consts  --      0.8124                 1.5103                 1.2534
 IR Inten    --      0.0162                12.3789                 5.7047

                     49                     50                     51
                      A                      A                      A
 Frequencies --   1095.1280              1122.0124              1172.2065
 Red. masses --      5.0176                 1.9821                 1.4574
 Frc consts  --      3.5455                 1.4701                 1.1799
 IR Inten    --     14.9152                 4.8032                 1.2517

                     52                     53                     54
                      A                      A                      A
 Frequencies --   1178.9919              1184.2593              1199.7082
 Red. masses --      1.4178                 1.2510                 1.7558
 Frc consts  --      1.1612                 1.0337                 1.4890
 IR Inten    --      5.6755                27.9478                 9.6370

                     55                     56                     57
                      A                      A                      A
 Frequencies --   1231.0493              1233.5755              1275.9448
 Red. masses --      2.1724                 2.1253                 2.6218
 Frc consts  --      1.9397                 1.9054                 2.5149
 IR Inten    --     18.7973                 6.0537               393.4112

                     58                     59                     60
                      A                      A                      A
 Frequencies --   1281.6173              1302.1416              1350.0694
 Red. masses --      2.7684                 2.2995                 3.0997
 Frc consts  --      2.6791                 2.2972                 3.3288
 IR Inten    --    288.7351                38.7211                60.3098

                     61                     62                     63
                      A                      A                      A
 Frequencies --   1360.7209              1380.6595              1399.6974
 Red. masses --      6.7392                 5.0110                 7.0123
 Frc consts  --      7.3519                 5.6279                 8.0942
 IR Inten    --     21.9410                91.2191                84.4528

                     64                     65                     66
                      A                      A                      A
 Frequencies --   1437.8361              1468.0838              1481.2762
 Red. masses --      3.2712                 2.4326                 2.4539
 Frc consts  --      3.9845                 3.0891                 3.1724
 IR Inten    --     54.3428                 3.9969                 2.4907

                     67                     68                     69
                      A                      A                      A
 Frequencies --   1507.4360              1523.2417              1581.8379
 Red. masses --      2.5615                 3.1134                 7.0604
 Frc consts  --      3.4294                 4.2562                10.4089
 IR Inten    --      0.4192                36.5780                 2.9158

                     70                     71                     72
                      A                      A                      A
 Frequencies --   1612.0463              1617.3999              1630.3685
 Red. masses --      6.5989                 7.2058                 5.7054
 Frc consts  --     10.1036                11.1062                 8.9352
 IR Inten    --     56.0066                 5.6685                45.7793

                     73                     74                     75
                      A                      A                      A
 Frequencies --   1651.6359              1715.5338              1731.5019
 Red. masses --      5.6200                12.5783                12.1425
 Frc consts  --      9.0327                21.8107                21.4489
 IR Inten    --     14.0512                26.3038               285.1810

                     76                     77                     78
                      A                      A                      A
 Frequencies --   3168.9638              3170.3829              3178.5120
 Red. masses --      1.0864                 1.0871                 1.0908
 Frc consts  --      6.4280                 6.4380                 6.4929
 IR Inten    --      0.0793                 3.3944                 9.0137

                     79                     80                     81
                      A                      A                      A
 Frequencies --   3184.9865              3191.2826              3193.2726
 Red. masses --      1.0922                 1.0957                 1.0914
 Frc consts  --      6.5277                 6.5746                 6.5568
 IR Inten    --     13.2239                12.9828                 6.1055

                     82                     83                     84
                      A                      A                      A
 Frequencies --   3202.2416              3205.9802              3222.7082
 Red. masses --      1.0931                 1.0938                 1.0920
 Frc consts  --      6.6041                 6.6238                 6.6824
 IR Inten    --      2.9408                10.3220                 2.8127

 - Thermochemistry -
 -------------------
 Temperature   298.150 Kelvin.  Pressure   1.00000 Atm.
 Atom     1 has atomic number  6 and mass  12.00000

 Molecular mass:   292.02911 amu.
 Principal axes and moments of inertia in atomic units:
                           1         2         3
     Eigenvalues --  2959.574819059.09924**********
           X            0.85023  -0.11538   0.51361
           Y           -0.16090   0.87203   0.46225
           Z           -0.50122  -0.47566   0.72286
 This molecule is an asymmetric top.
 Rotational symmetry number  1.
 Warning -- assumption of classical behavior for rotation
           may cause significant error
 Rotational temperatures (Kelvin)      0.02927     0.00956     0.00721
 Rotational constants (GHZ):           0.60980     0.19922     0.15016
 Zero-point vibrational energy     567430.0 (Joules/Mol)
                                  135.61903 (Kcal/Mol)
 Warning -- explicit consideration of  24 degrees of freedom as
           vibrations may cause significant error
 Vibrational temperatures:     18.40    51.86   120.02   159.43   178.63
          (Kelvin)            229.59   253.13   346.17   387.97   399.21
                              400.62   431.01   493.81   574.61   590.87
                              605.27   646.21   649.14   681.88   697.91
                              747.01   802.41   849.12   857.09   905.93
                              944.90   979.87  1025.31  1056.47  1061.39
                             1082.75  1103.92  1119.00  1175.41  1190.80
                             1227.63  1244.44  1262.77  1319.76  1373.17
                             1388.09  1421.66  1435.64  1446.91  1448.62
                             1467.15  1512.67  1528.14  1575.64  1614.33
                             1686.54  1696.31  1703.88  1726.11  1771.21
                             1774.84  1835.80  1843.96  1873.49  1942.45
                             1957.77  1986.46  2013.85  2068.73  2112.25
                             2131.23  2168.86  2191.61  2275.91  2319.38
                             2327.08  2345.74  2376.34  2468.27  2491.24
                             4559.43  4561.47  4573.17  4582.49  4591.54
                             4594.41  4607.31  4612.69  4636.76

 Zero-point correction=                           0.216123 (Hartree/Particle)
 Thermal correction to Energy=                    0.231345
 Thermal correction to Enthalpy=                  0.232289
 Thermal correction to Gibbs Free Energy=         0.171893
 Sum of electronic and zero-point Energies=          -1302.024219
 Sum of electronic and thermal Energies=             -1302.008997
 Sum of electronic and thermal Enthalpies=           -1302.008053
 Sum of electronic and thermal Free Energies=        -1302.068449

                     E (Thermal)             CV                S
                      KCal/Mol        Cal/Mol-Kelvin    Cal/Mol-Kelvin
 Total                  145.171             61.137            127.114
 Electronic               0.000              0.000              0.000
 Translational            0.889              2.981             42.912
 Rotational               0.889              2.981             34.132
 Vibrational            143.394             55.175             50.070
 Vibration     1          0.593              1.987              7.522
 Vibration     2          0.594              1.982              5.465
 Vibration     3          0.600              1.961              3.809
 Vibration     4          0.607              1.941              3.255
 Vibration     5          0.610              1.929              3.035
 Vibration     6          0.621              1.892              2.555
 Vibration     7          0.628              1.872              2.371
 Vibration     8          0.658              1.778              1.798
 Vibration     9          0.674              1.729              1.598
 Vibration    10          0.678              1.715              1.549
 Vibration    11          0.679              1.713              1.543
 Vibration    12          0.692              1.675              1.419
 Vibration    13          0.722              1.589              1.197
 Vibration    14          0.765              1.471              0.965
 Vibration    15          0.775              1.447              0.924
 Vibration    16          0.783              1.425              0.890
 Vibration    17          0.808              1.363              0.798
 Vibration    18          0.810              1.358              0.792
 Vibration    19          0.831              1.308              0.727
 Vibration    20          0.841              1.283              0.697
 Vibration    21          0.874              1.207              0.612
 Vibration    22          0.913              1.123              0.528
 Vibration    23          0.948              1.053              0.467
 Vibration    24          0.953              1.041              0.457

                           ! Non-Optimized Parameters !
 Normal termination of Gaussian 16 at Thu Dec 21 07:03:34 2023.
