 Q-Chem 5.4, Q-Chem, Inc., Pleasanton, CA (2021)
 Q-Chem 5.4.0 for Intel X86 EM64T Linux

User input:
--------------------------------------------------------------
$molecule
-2 1
C                 -2.1811100000     -0.3805740000      0.0028100000
C                 -0.6944090000     -0.1299550000      0.0016540000
C                 -0.1932670000      1.1834550000     -0.0436570000
C                  1.1971880000      1.5258970000     -0.0496270000
O                  1.6450150000      2.7540800000     -0.0918980000
C                  2.0429100000      0.3711330000     -0.0029740000
C                  1.5545690000     -0.9429690000      0.0427610000
C                  0.1672820000     -1.2781040000      0.0472780000
O                 -0.2917200000     -2.5057580000      0.0878740000
H                 -2.4868700000     -0.9823180000      0.8730350000
H                 -2.4976080000     -0.9664200000     -0.8757900000
H                 -2.7417710000      0.5644660000      0.0117360000
H                 -0.8998290000      2.0174580000     -0.0772350000
H                  3.1212020000      0.5477510000     -0.0033760000
H                  2.2584170000     -1.7781430000      0.0774090000
$end

$rem
BASIS  =  6-311++G(d,p)
GUI  =  2
JOB_TYPE  =  SP
METHOD  =  B3LYP
SCF_CONVERGENCE  = 8
SOLVENT_METHOD = sm12
$end

$smx
solvent dimethylformamide
charges CM5
$end

--------------------------------------------------------------

             Standard Nuclear Orientation (Angstroms)
    I     Atom           X                Y                Z
 ----------------------------------------------------------------
    1      C      -2.1811100000    -0.3805740000     0.0028100000
    2      C      -0.6944090000    -0.1299550000     0.0016540000
    3      C      -0.1932670000     1.1834550000    -0.0436570000
    4      C       1.1971880000     1.5258970000    -0.0496270000
    5      O       1.6450150000     2.7540800000    -0.0918980000
    6      C       2.0429100000     0.3711330000    -0.0029740000
    7      C       1.5545690000    -0.9429690000     0.0427610000
    8      C       0.1672820000    -1.2781040000     0.0472780000
    9      O      -0.2917200000    -2.5057580000     0.0878740000
   10      H      -2.4868700000    -0.9823180000     0.8730350000
   11      H      -2.4976080000    -0.9664200000    -0.8757900000
   12      H      -2.7417710000     0.5644660000     0.0117360000
   13      H      -0.8998290000     2.0174580000    -0.0772350000
   14      H       3.1212020000     0.5477510000    -0.0033760000
   15      H       2.2584170000    -1.7781430000     0.0774090000
 ----------------------------------------------------------------

   19    -420.8500177789      8.28e-09  Convergence criterion met
 Total energy in the final basis set =     -421.1659896591

                    Orbital Energies (a.u.)
 --------------------------------------------------------------

 Alpha MOs
 -- Occupied --
-19.0299 -19.0290 -10.1920 -10.1876 -10.1783 -10.1597 -10.1538 -10.1529
-10.1517  -0.9359  -0.9323  -0.8063  -0.7554  -0.6904  -0.6570  -0.5810
 -0.5442  -0.4602  -0.4491  -0.4326  -0.4231  -0.4001  -0.3842  -0.3648
 -0.3630  -0.3390  -0.3360  -0.3182  -0.2408  -0.2348  -0.2046  -0.2038
 -0.1359

          Ground-State Mulliken Net Atomic Charges

     Atom                 Charge (a.u.)
  ----------------------------------------
      1 C                     1.025185
      2 C                     1.167805
      3 C                    -1.407045
      4 C                    -1.002475
      5 O                    -0.397155
      6 C                    -0.171462
      7 C                    -0.417259
      8 C                    -1.107384
      9 O                    -0.362878
     10 H                     0.189876
     11 H                     0.182715
     12 H                     0.317174
     13 H                    -0.100332
     14 H                     0.039598
     15 H                     0.043637
  ----------------------------------------
  Sum of atomic charges =    -2.000000

                    Cartesian Multipole Moments
 -----------------------------------------------------------------
    Charge (ESU x 10^10)
                -9.6064
    Dipole Moment (Debye)
         X      -6.5388      Y      -1.3845      Z       0.0259
       Tot       6.6839
    Quadrupole Moments (Debye-Ang)
        XX     -82.6224     XY     -18.6206     YY    -118.2668
        XZ       0.5615     YZ       1.8218     ZZ     -64.9245

 Total job time:  143.11s(wall), 1075.50s(cpu)
        *  Thank you very much for using Q-Chem.  Have a nice day.  *
