 Gaussian 16, Revision A.03,
 Gaussian 16:  ES64L-G16RevA.03 25-Dec-2016

 ----------------------------------------------------------------
 #P UB3LYP/6-311++G(d,p) SCRF=(PCM,Solvent=n,n-DiMethylFormamide)
 ----------------------------------------------------------------

 -------
 Reduced
 -------
 Symbolic Z-matrix:
 Charge = -2 Multiplicity = 1

                         Standard orientation:
 ---------------------------------------------------------------------
 Center     Atomic      Atomic             Coordinates (Angstroms)
 Number     Number       Type             X           Y           Z
 ---------------------------------------------------------------------
      1          6           0        2.515772   -1.728081   -0.000056
      2          6           0        1.215978   -0.965316   -0.000204
      3          6           0        1.164272    0.432849    0.000029
      4         17           0        2.743474    1.335221    0.000021
      5          6           0       -0.000045    1.271442    0.000042
      6          8           0       -0.000090    2.551959    0.000021
      7          6           0       -1.164284    0.432802    0.000072
      8          6           0       -1.215906   -0.965381   -0.000163
      9          6           0       -2.515687   -1.728201   -0.000013
     10          6           0        0.000040   -1.735027   -0.000137
     11          8           0        0.000079   -3.040482    0.000201
     12         17           0       -2.743536    1.335131    0.000000
     13          1           0        3.133943   -1.499161    0.880456
     14          1           0        2.269737   -2.792786   -0.001294
     15          1           0        3.135386   -1.497044   -0.878915
     16          1           0       -3.134495   -1.498164    0.879731
     17          1           0       -3.134649   -1.498266   -0.879643
     18          1           0       -2.269632   -2.792908    0.000098
 ---------------------------------------------------------------------

 SCF Done:  E(UB3LYP) =  -1379.73777303     A.U. after   16 cycles

 The electronic state is 1-A.
 Alpha  occ. eigenvalues -- -101.52282-101.52281 -19.02332 -19.01373 -10.18814
 Alpha  occ. eigenvalues --  -10.18416 -10.18413 -10.17333 -10.14067 -10.14066
 Alpha  occ. eigenvalues --  -10.13921 -10.13921  -9.43714  -9.43713  -7.20089
 Alpha  occ. eigenvalues --   -7.20089  -7.19266  -7.19266  -7.19200  -7.19200
 Alpha  occ. eigenvalues --   -0.94562  -0.92613  -0.83525  -0.82745  -0.76820
 Alpha  occ. eigenvalues --   -0.73492  -0.69663  -0.63056  -0.62784  -0.52927
 Alpha  occ. eigenvalues --   -0.52458  -0.46992  -0.42714  -0.40707  -0.39475
 Alpha  occ. eigenvalues --   -0.39054  -0.38258  -0.37475  -0.36340  -0.36047
 Alpha  occ. eigenvalues --   -0.35916  -0.32597  -0.32257  -0.32205  -0.31358
 Alpha  occ. eigenvalues --   -0.29418  -0.29222  -0.28407  -0.22533  -0.20724
 Alpha  occ. eigenvalues --   -0.20220  -0.19532  -0.12291
 Alpha virt. eigenvalues --   -0.00566   0.01196   0.01775   0.01974   0.03337
 Alpha virt. eigenvalues --    0.03575   0.03655   0.04314   0.05003   0.05630
 Alpha virt. eigenvalues --    0.06384   0.07078   0.07193   0.07536   0.08272

  Beta  occ. eigenvalues -- -101.52282-101.52281 -19.02332 -19.01373 -10.18814
  Beta  occ. eigenvalues --  -10.18416 -10.18413 -10.17333 -10.14067 -10.14066
  Beta  occ. eigenvalues --  -10.13921 -10.13921  -9.43714  -9.43713  -7.20089
  Beta  occ. eigenvalues --   -7.20089  -7.19266  -7.19266  -7.19200  -7.19200
  Beta  occ. eigenvalues --   -0.94562  -0.92613  -0.83525  -0.82745  -0.76820
  Beta  occ. eigenvalues --   -0.73492  -0.69663  -0.63056  -0.62784  -0.52927
  Beta  occ. eigenvalues --   -0.52458  -0.46992  -0.42714  -0.40707  -0.39475
  Beta  occ. eigenvalues --   -0.39054  -0.38258  -0.37475  -0.36340  -0.36047
  Beta  occ. eigenvalues --   -0.35916  -0.32597  -0.32257  -0.32205  -0.31358
  Beta  occ. eigenvalues --   -0.29418  -0.29222  -0.28407  -0.22533  -0.20724
  Beta  occ. eigenvalues --   -0.20220  -0.19532  -0.12291
  Beta virt. eigenvalues --   -0.00566   0.01196   0.01775   0.01974   0.03337
  Beta virt. eigenvalues --    0.03575   0.03655   0.04314   0.05003   0.05630
  Beta virt. eigenvalues --    0.06384   0.07078   0.07193   0.07536   0.08272

 Mulliken charges and spin densities:
               1          2
     1  C   -0.682174   0.000000
     2  C    0.620917   0.000000
     3  C    0.123540  -0.000000
     4  Cl   0.273057   0.000000
     5  C   -1.094864   0.000000
     6  O   -0.606412  -0.000000
     7  C    0.123601   0.000000
     8  C    0.620859  -0.000000
     9  C   -0.682215   0.000000
    10  C   -1.170752   0.000000
    11  O   -0.681940  -0.000000
    12  Cl   0.273045   0.000000
    13  H    0.138067  -0.000000
    14  H    0.165727   0.000000
    15  H    0.137876  -0.000000
    16  H    0.137955   0.000000
    17  H    0.137987   0.000000
    18  H    0.165725  -0.000000
 Sum of Mulliken charges =  -2.00000  -0.00000

 Dipole moment (field-independent basis, Debye):
    X=              0.0003    Y=             -1.2141    Z=             -0.0005  Tot=              1.2141
 Quadrupole moment (field-independent basis, Debye-Ang):
   XX=           -111.5284   YY=           -155.4070   ZZ=            -92.5377
   XY=              0.0013   XZ=             -0.0002   YZ=              0.0015

 Normal termination of Gaussian 16 at Sun Jan 21 07:31:53 2024.
