 Q-Chem 5.4, Q-Chem, Inc., Pleasanton, CA (2021)
 Q-Chem 5.4.0 for Intel X86 EM64T Linux

User input:
--------------------------------------------------------------
$molecule
-2 1
C                 -2.5704430000     -2.4799210000      0.4090040000
O                 -2.4173600000     -1.2850260000     -0.3373630000
C                 -1.1574240000     -0.6928210000     -0.2046810000
C                 -1.1212990000      0.6198800000      0.3310660000
O                 -2.3251420000      1.1329110000      0.8242190000
C                 -2.7615280000      2.3073150000      0.1618890000
C                  0.0635590000      1.3977960000      0.4503840000
O                  0.0913410000      2.5943200000      0.9476100000
C                  1.2563380000      0.7147110000     -0.0228390000
C                  2.5072140000      1.3727180000      0.0496200000
C                  3.6815050000      0.7769690000     -0.3744460000
C                  3.6465460000     -0.5407540000     -0.9034290000
C                  2.4399030000     -1.2129500000     -0.9797820000
C                  1.2231400000     -0.6342060000     -0.5468620000
C                 -0.0097200000     -1.3953070000     -0.6657680000
O                 -0.0499790000     -2.5919300000     -1.1618060000
H                 -1.7978800000     -3.2040280000      0.1303680000
H                 -2.5239430000     -2.2736460000      1.4915060000
H                 -3.5663910000     -2.8769580000      0.1712960000
H                 -1.9891920000      3.0817240000      0.2124480000
H                 -3.6704900000      2.6435930000      0.6783630000
H                 -3.0144750000      2.0921530000     -0.8898580000
H                  2.4976300000      2.3790400000      0.4584720000
H                  4.6264410000      1.3148360000     -0.3061700000
H                  4.5644580000     -1.0188160000     -1.2436860000
H                  2.3771900000     -2.2216040000     -1.3780550000
$end

$rem
BASIS  =  6-311++G(d,p)
GUI  =  2
JOB_TYPE  =  SP
METHOD  =  B3LYP
SCF_CONVERGENCE  = 8
SOLVENT_METHOD = sm12
$end

$smx
solvent dimethylformamide
charges CM5
$end

--------------------------------------------------------------

             Standard Nuclear Orientation (Angstroms)
    I     Atom           X                Y                Z
 ----------------------------------------------------------------
    1      C      -2.5704430000    -2.4799210000     0.4090040000
    2      O      -2.4173600000    -1.2850260000    -0.3373630000
    3      C      -1.1574240000    -0.6928210000    -0.2046810000
    4      C      -1.1212990000     0.6198800000     0.3310660000
    5      O      -2.3251420000     1.1329110000     0.8242190000
    6      C      -2.7615280000     2.3073150000     0.1618890000
    7      C       0.0635590000     1.3977960000     0.4503840000
    8      O       0.0913410000     2.5943200000     0.9476100000
    9      C       1.2563380000     0.7147110000    -0.0228390000
   10      C       2.5072140000     1.3727180000     0.0496200000
   11      C       3.6815050000     0.7769690000    -0.3744460000
   12      C       3.6465460000    -0.5407540000    -0.9034290000
   13      C       2.4399030000    -1.2129500000    -0.9797820000
   14      C       1.2231400000    -0.6342060000    -0.5468620000
   15      C      -0.0097200000    -1.3953070000    -0.6657680000
   16      O      -0.0499790000    -2.5919300000    -1.1618060000
   17      H      -1.7978800000    -3.2040280000     0.1303680000
   18      H      -2.5239430000    -2.2736460000     1.4915060000
   19      H      -3.5663910000    -2.8769580000     0.1712960000
   20      H      -1.9891920000     3.0817240000     0.2124480000
   21      H      -3.6704900000     2.6435930000     0.6783630000
   22      H      -3.0144750000     2.0921530000    -0.8898580000
   23      H       2.4976300000     2.3790400000     0.4584720000
   24      H       4.6264410000     1.3148360000    -0.3061700000
   25      H       4.5644580000    -1.0188160000    -1.2436860000
   26      H       2.3771900000    -2.2216040000    -1.3780550000
 ----------------------------------------------------------------

   18    -764.3350411196      4.30e-09  Convergence criterion met
 Total energy in the final basis set =     -764.6110281671

                    Orbital Energies (a.u.)
 --------------------------------------------------------------

 Alpha MOs
 -- Occupied --
-19.1186 -19.1185 -19.0194 -19.0194 -10.2034 -10.2034 -10.1852 -10.1848
-10.1793 -10.1792 -10.1713 -10.1708 -10.1660 -10.1660 -10.1511 -10.1508
 -1.0377  -1.0201  -0.9321  -0.9293  -0.8407  -0.7776  -0.7397  -0.7259
 -0.6914  -0.6637  -0.6434  -0.5921  -0.5855  -0.5455  -0.5073  -0.5050
 -0.4792  -0.4505  -0.4476  -0.4471  -0.4346  -0.4266  -0.4264  -0.4147
 -0.4029  -0.3805  -0.3650  -0.3624  -0.3535  -0.3382  -0.3354  -0.3219
 -0.3177  -0.3162  -0.2685  -0.2639  -0.2439  -0.2302  -0.2055  -0.1965
 -0.1954  -0.1182

          Ground-State Mulliken Net Atomic Charges

     Atom                 Charge (a.u.)
  ----------------------------------------
      1 C                     0.223787
      2 O                    -0.006158
      3 C                     0.442609
      4 C                     0.463257
      5 O                    -0.006952
      6 C                     0.222101
      7 C                    -1.673437
      8 O                    -0.360349
      9 C                    -1.691504
     10 C                    -0.177535
     11 C                     1.317216
     12 C                     1.313287
     13 C                    -0.178736
     14 C                    -1.686863
     15 C                    -1.675057
     16 O                    -0.360384
     17 H                     0.122971
     18 H                     0.070340
     19 H                     0.261039
     20 H                     0.122885
     21 H                     0.261299
     22 H                     0.070685
     23 H                     0.080351
     24 H                     0.382535
     25 H                     0.382120
     26 H                     0.080495
  ----------------------------------------
  Sum of atomic charges =    -2.000000

                    Cartesian Multipole Moments
 -----------------------------------------------------------------
    Charge (ESU x 10^10)
                -9.6064
    Dipole Moment (Debye)
         X      -2.4290      Y      -0.0801      Z       1.3473
       Tot       2.7788
    Quadrupole Moments (Debye-Ang)
        XX    -133.0778     XY      -2.4262     YY    -146.4626
        XZ       3.4230     YZ     -19.4338     ZZ    -116.4137

 Total job time:  702.62s(wall), 4809.64s(cpu)
        *  Thank you very much for using Q-Chem.  Have a nice day.  *
