 Gaussian 16, Revision A.03,
 Gaussian 16:  ES64L-G16RevA.03 25-Dec-2016

 ----------------------------------------------------------------
 #P UB3LYP/6-311++G(d,p) SCRF=(PCM,Solvent=n,n-DiMethylFormamide)
 ----------------------------------------------------------------

 ------------------
 Quinone PCM in DMF
 ------------------
 Symbolic Z-matrix:
 Charge =  0 Multiplicity = 1

                         Standard orientation:
 ---------------------------------------------------------------------
 Center     Atomic      Atomic             Coordinates (Angstroms)
 Number     Number       Type             X           Y           Z
 ---------------------------------------------------------------------
      1          8           0       -2.705946    2.737235   -0.169181
      2          6           0       -2.363698    1.563275   -0.095254
      3          6           0       -3.388106    0.472967   -0.024957
      4          6           0       -4.743488    0.812896   -0.048585
      5          6           0       -5.715953   -0.178574    0.017720
      6          6           0       -5.342980   -1.522424    0.108671
      7          6           0       -3.997780   -1.870435    0.132778
      8          6           0       -3.012931   -0.879273    0.066085
      9          6           0       -1.576492   -1.282595    0.090898
     10          8           0       -1.250258   -2.456903    0.169255
     11          6           0       -0.556513   -0.192224    0.012633
     12          6           0        0.786137   -0.546549    0.036769
     13          6           0        1.805565    0.429844   -0.027388
     14          6           0        1.397773    1.788059   -0.112922
     15          6           0        0.059895    2.131315   -0.130251
     16          6           0       -0.946936    1.158655   -0.069534
     17          7           0        3.133386    0.079360   -0.009284
     18          6           0        3.557163   -1.311170   -0.217019
     19          6           0        4.944417   -1.358831   -0.861730
     20          6           0        6.019549   -0.680829    0.011992
     21          6           0        5.403966    0.432078    0.883706
     22          6           0        4.183048    1.078007    0.223992
     23          1           0       -5.008903    1.860540   -0.118776
     24          1           0       -6.765747    0.092145   -0.001073
     25          1           0       -6.102686   -2.294208    0.160254
     26          1           0       -3.684710   -2.904890    0.202390
     27          1           0        1.016513   -1.597817    0.133046
     28          1           0        2.136925    2.573198   -0.193989
     29          1           0       -0.236083    3.170850   -0.205506
     30          1           0        3.553848   -1.871246    0.729728
     31          1           0        2.839143   -1.797844   -0.878903
     32          1           0        4.882999   -0.861467   -1.834991
     33          1           0        5.206248   -2.401168   -1.061510
     34          1           0        6.505499   -1.418222    0.657330
     35          1           0        6.802937   -0.269467   -0.631133
     36          1           0        5.090389    0.022471    1.849166
     37          1           0        6.141893    1.208990    1.100601
     38          1           0        4.473751    1.574171   -0.714431
     39          1           0        3.788097    1.850645    0.886559
 ---------------------------------------------------------------------

 SCF Done:  E(UB3LYP) =  -939.737220393     A.U. after   15 cycles

 The electronic state is 1-A.
 Alpha  occ. eigenvalues --  -19.12931 -19.11844 -14.34827 -10.28080 -10.27180
 Alpha  occ. eigenvalues --  -10.23920 -10.20944 -10.20906 -10.20554 -10.20495
 Alpha  occ. eigenvalues --  -10.20383 -10.19700 -10.19619 -10.19564 -10.19428
 Alpha  occ. eigenvalues --  -10.19243 -10.18979 -10.18774 -10.18765 -10.17320
 Alpha  occ. eigenvalues --  -10.17303 -10.16908  -1.06373  -1.05287  -0.96815
 Alpha  occ. eigenvalues --   -0.88859  -0.87365  -0.81860  -0.79652  -0.77798
 Alpha  occ. eigenvalues --   -0.77575  -0.76456  -0.75581  -0.69107  -0.67812
 Alpha  occ. eigenvalues --   -0.65880  -0.64519  -0.62533  -0.60877  -0.58257
 Alpha  occ. eigenvalues --   -0.56706  -0.55802  -0.54019  -0.51970  -0.51129
 Alpha  occ. eigenvalues --   -0.49831  -0.48737  -0.48288  -0.45817  -0.45515
 Alpha  occ. eigenvalues --   -0.45303  -0.44997  -0.44968  -0.44583  -0.43772
 Alpha  occ. eigenvalues --   -0.43712  -0.42298  -0.41958  -0.41377  -0.40316
 Alpha  occ. eigenvalues --   -0.39562  -0.38704  -0.37939  -0.37563  -0.37148
 Alpha  occ. eigenvalues --   -0.36904  -0.36108  -0.34028  -0.33238  -0.32378
 Alpha  occ. eigenvalues --   -0.30063  -0.28375  -0.28270  -0.27744  -0.27393
 Alpha  occ. eigenvalues --   -0.26956  -0.21356
 Alpha virt. eigenvalues --   -0.11193  -0.06785  -0.02862  -0.01990  -0.01116
 Alpha virt. eigenvalues --   -0.00293   0.00601   0.00934   0.01046   0.01557
 Alpha virt. eigenvalues --    0.02338   0.02656   0.03377   0.03502   0.03855

  Beta  occ. eigenvalues --  -19.12931 -19.11844 -14.34827 -10.28080 -10.27180
  Beta  occ. eigenvalues --  -10.23920 -10.20944 -10.20906 -10.20554 -10.20495
  Beta  occ. eigenvalues --  -10.20383 -10.19700 -10.19619 -10.19564 -10.19428
  Beta  occ. eigenvalues --  -10.19243 -10.18979 -10.18774 -10.18765 -10.17320
  Beta  occ. eigenvalues --  -10.17303 -10.16908  -1.06373  -1.05287  -0.96815
  Beta  occ. eigenvalues --   -0.88859  -0.87365  -0.81860  -0.79652  -0.77798
  Beta  occ. eigenvalues --   -0.77575  -0.76456  -0.75581  -0.69107  -0.67812
  Beta  occ. eigenvalues --   -0.65880  -0.64519  -0.62533  -0.60877  -0.58257
  Beta  occ. eigenvalues --   -0.56706  -0.55802  -0.54019  -0.51970  -0.51129
  Beta  occ. eigenvalues --   -0.49831  -0.48737  -0.48288  -0.45817  -0.45515
  Beta  occ. eigenvalues --   -0.45303  -0.44997  -0.44968  -0.44583  -0.43772
  Beta  occ. eigenvalues --   -0.43712  -0.42298  -0.41958  -0.41377  -0.40316
  Beta  occ. eigenvalues --   -0.39562  -0.38704  -0.37939  -0.37563  -0.37148
  Beta  occ. eigenvalues --   -0.36904  -0.36108  -0.34028  -0.33238  -0.32378
  Beta  occ. eigenvalues --   -0.30063  -0.28375  -0.28270  -0.27744  -0.27393
  Beta  occ. eigenvalues --   -0.26956  -0.21356
  Beta virt. eigenvalues --   -0.11193  -0.06785  -0.02862  -0.01990  -0.01116
  Beta virt. eigenvalues --   -0.00293   0.00601   0.00934   0.01046   0.01557
  Beta virt. eigenvalues --    0.02338   0.02656   0.03377   0.03502   0.03855

 Mulliken charges and spin densities:
               1          2
     1  O   -0.309732   0.000000
     2  C   -0.692786  -0.000000
     3  C    0.013775   0.000000
     4  C    0.165913  -0.000000
     5  C   -0.448440   0.000000
     6  C   -0.440765   0.000000
     7  C    0.094331   0.000000
     8  C    0.448465   0.000000
     9  C   -0.780675   0.000000
    10  O   -0.272835   0.000000
    11  C    0.516137   0.000000
    12  C    0.135376  -0.000000
    13  C   -0.745791  -0.000000
    14  C    0.047204  -0.000000
    15  C    0.188748  -0.000000
    16  C    0.271718   0.000000
    17  N    0.348093   0.000000
    18  C   -0.247445   0.000000
    19  C   -0.315769  -0.000000
    20  C   -0.563957   0.000000
    21  C   -0.290370   0.000000
    22  C   -0.248932   0.000000
    23  H    0.183621   0.000000
    24  H    0.204953   0.000000
    25  H    0.206543  -0.000000
    26  H    0.181747   0.000000
    27  H    0.183082   0.000000
    28  H    0.226550   0.000000
    29  H    0.194123  -0.000000
    30  H    0.183916  -0.000000
    31  H    0.174424  -0.000000
    32  H    0.176629   0.000000
    33  H    0.183866   0.000000
    34  H    0.159544  -0.000000
    35  H    0.161609  -0.000000
    36  H    0.176326  -0.000000
    37  H    0.185265  -0.000000
    38  H    0.183155  -0.000000
    39  H    0.162384  -0.000000
 Sum of Mulliken charges =  -0.00000   0.00000

 Dipole moment (field-independent basis, Debye):
    X=              5.7280    Y=             -1.2814    Z=              0.0545  Tot=              5.8699
 Quadrupole moment (field-independent basis, Debye-Ang):
   XX=            -85.4647   YY=           -140.0060   ZZ=           -131.8516
   XY=             11.6121   XZ=             -0.5432   YZ=              1.3431

 Normal termination of Gaussian 16 at Tue Jan 16 05:20:52 2024.
