 Q-Chem 5.4, Q-Chem, Inc., Pleasanton, CA (2021)
 Q-Chem 5.4.0 for Intel X86 EM64T Linux

User input:
--------------------------------------------------------------
$molecule
0 1
O                  3.4356750000      2.6729760000      0.8131640000
C                  3.0695800000      1.5253250000      0.5903380000
C                  4.0705390000      0.4228530000      0.4298270000
C                  5.4314620000      0.7204770000      0.5415370000
C                  6.3826540000     -0.2828990000      0.3946780000
C                  5.9826100000     -1.5964160000      0.1340010000
C                  4.6316910000     -1.9022870000      0.0212360000
C                  3.6681050000     -0.8989220000      0.1680000000
C                  2.2247920000     -1.2571290000      0.0448030000
O                  1.8748590000     -2.4050510000     -0.1818870000
C                  1.2279510000     -0.1556400000      0.2133890000
C                 -0.1205660000     -0.4678470000      0.0999480000
C                 -1.1189370000      0.5220950000      0.2412310000
C                 -0.6835680000      1.8495480000      0.4994580000
C                  0.6601900000      2.1516850000      0.6046780000
C                  1.6459300000      1.1653950000      0.4667940000
N                 -2.4527850000      0.2125960000      0.1347570000
C                 -2.9162330000     -1.1805000000      0.1632520000
C                 -4.3281600000     -1.2645400000      0.7478860000
C                 -5.3527100000     -0.4606150000     -0.0785450000
C                 -4.6783170000      0.7285500000     -0.7916170000
C                 -3.4693200000      1.2599420000     -0.0176450000
H                  5.7180350000      1.7452510000      0.7431410000
H                  7.4368920000     -0.0450570000      0.4825590000
H                  6.7257530000     -2.3775450000      0.0198110000
H                  4.2977930000     -2.9127270000     -0.1799590000
H                 -0.3712080000     -1.4941560000     -0.1267150000
H                 -1.4070130000      2.6399570000      0.6452080000
H                  0.9769110000      3.1669830000      0.8114550000
H                 -2.8891400000     -1.6269290000     -0.8417320000
H                 -2.2358120000     -1.7601160000      0.7890060000
H                 -4.2930590000     -0.8852250000      1.7741740000
H                 -4.6214930000     -2.3154390000      0.8149760000
H                 -5.8301530000     -1.1046290000     -0.8226220000
H                 -6.1507430000     -0.1052650000      0.5797820000
H                 -4.3370850000      0.4251850000     -1.7864800000
H                 -5.3891800000      1.5452980000     -0.9425130000
H                 -3.7846590000      1.6517550000      0.9613190000
H                 -3.0312830000      2.0930620000     -0.5708050000
$end
$rem
MAX_SCF_CYCLES=200
BASIS  =  6-311++G(d,p)
GUI  =  2
JOB_TYPE  =  SP
METHOD  =  B3LYP
SOLVENT_METHOD = PCM
$end
$pcm
theory = CPCM
$end
$solvent
dielectric 37.219
opticaldielectric 1.43
$end

--------------------------------------------------------------

             Standard Nuclear Orientation (Angstroms)
    I     Atom           X                Y                Z
 ----------------------------------------------------------------
    1      O       3.4356750000     2.6729760000     0.8131640000
    2      C       3.0695800000     1.5253250000     0.5903380000
    3      C       4.0705390000     0.4228530000     0.4298270000
    4      C       5.4314620000     0.7204770000     0.5415370000
    5      C       6.3826540000    -0.2828990000     0.3946780000
    6      C       5.9826100000    -1.5964160000     0.1340010000
    7      C       4.6316910000    -1.9022870000     0.0212360000
    8      C       3.6681050000    -0.8989220000     0.1680000000
    9      C       2.2247920000    -1.2571290000     0.0448030000
   10      O       1.8748590000    -2.4050510000    -0.1818870000
   11      C       1.2279510000    -0.1556400000     0.2133890000
   12      C      -0.1205660000    -0.4678470000     0.0999480000
   13      C      -1.1189370000     0.5220950000     0.2412310000
   14      C      -0.6835680000     1.8495480000     0.4994580000
   15      C       0.6601900000     2.1516850000     0.6046780000
   16      C       1.6459300000     1.1653950000     0.4667940000
   17      N      -2.4527850000     0.2125960000     0.1347570000
   18      C      -2.9162330000    -1.1805000000     0.1632520000
   19      C      -4.3281600000    -1.2645400000     0.7478860000
   20      C      -5.3527100000    -0.4606150000    -0.0785450000
   21      C      -4.6783170000     0.7285500000    -0.7916170000
   22      C      -3.4693200000     1.2599420000    -0.0176450000
   23      H       5.7180350000     1.7452510000     0.7431410000
   24      H       7.4368920000    -0.0450570000     0.4825590000
   25      H       6.7257530000    -2.3775450000     0.0198110000
   26      H       4.2977930000    -2.9127270000    -0.1799590000
   27      H      -0.3712080000    -1.4941560000    -0.1267150000
   28      H      -1.4070130000     2.6399570000     0.6452080000
   29      H       0.9769110000     3.1669830000     0.8114550000
   30      H      -2.8891400000    -1.6269290000    -0.8417320000
   31      H      -2.2358120000    -1.7601160000     0.7890060000
   32      H      -4.2930590000    -0.8852250000     1.7741740000
   33      H      -4.6214930000    -2.3154390000     0.8149760000
   34      H      -5.8301530000    -1.1046290000    -0.8226220000
   35      H      -6.1507430000    -0.1052650000     0.5797820000
   36      H      -4.3370850000     0.4251850000    -1.7864800000
   37      H      -5.3891800000     1.5452980000    -0.9425130000
   38      H      -3.7846590000     1.6517550000     0.9613190000
   39      H      -3.0312830000     2.0930620000    -0.5708050000
 ----------------------------------------------------------------

    9    -939.7419068554      2.52e-06  Convergence criterion met
 Total energy in the final basis set =     -939.7419068554

                    Orbital Energies (a.u.)
 --------------------------------------------------------------

 Alpha MOs
 -- Occupied --
-19.1287 -19.1177 -14.3452 -10.2801 -10.2709 -10.2366 -10.2043 -10.2039
-10.2037 -10.2031 -10.2020 -10.1941 -10.1936 -10.1929 -10.1919 -10.1900
-10.1878 -10.1855 -10.1846 -10.1682 -10.1681 -10.1643  -1.0633  -1.0525
 -0.9646  -0.8866  -0.8714  -0.8151  -0.7936  -0.7750  -0.7734  -0.7607
 -0.7530  -0.6886  -0.6752  -0.6554  -0.6416  -0.6223  -0.6059  -0.5805
 -0.5638  -0.5556  -0.5356  -0.5171  -0.5071  -0.4965  -0.4843  -0.4801
 -0.4558  -0.4534  -0.4514  -0.4481  -0.4472  -0.4431  -0.4345  -0.4335
 -0.4191  -0.4155  -0.4134  -0.3997  -0.3920  -0.3836  -0.3768  -0.3705
 -0.3687  -0.3668  -0.3585  -0.3363  -0.3275  -0.3190  -0.2979  -0.2834
 -0.2809  -0.2755  -0.2721  -0.2691  -0.2107

          Ground-State Mulliken Net Atomic Charges

     Atom                 Charge (a.u.)
  ----------------------------------------
      1 O                    -0.328345
      2 C                    -0.662411
      3 C                     0.006721
      4 C                     0.155959
      5 C                    -0.465762
      6 C                    -0.456879
      7 C                     0.090200
      8 C                     0.429263
      9 C                    -0.749792
     10 O                    -0.289109
     11 C                     0.513378
     12 C                     0.118392
     13 C                    -0.717882
     14 C                     0.020259
     15 C                     0.175710
     16 C                     0.257897
     17 N                     0.347267
     18 C                    -0.256457
     19 C                    -0.333588
     20 C                    -0.568001
     21 C                    -0.297125
     22 C                    -0.264668
     23 H                     0.193447
     24 H                     0.220629
     25 H                     0.222847
     26 H                     0.191716
     27 H                     0.194179
     28 H                     0.245817
     29 H                     0.201943
     30 H                     0.190320
     31 H                     0.184968
     32 H                     0.181070
     33 H                     0.188709
     34 H                     0.161876
     35 H                     0.165298
     36 H                     0.179653
     37 H                     0.190073
     38 H                     0.189421
     39 H                     0.172989
  ----------------------------------------
  Sum of atomic charges =    -0.000017

                    Cartesian Multipole Moments
 -----------------------------------------------------------------
    Charge (ESU x 10^10)
                -0.0001
    Dipole Moment (Debye)
         X      -5.8999      Y      -1.1638      Z      -0.4241
       Tot       6.0285
    Quadrupole Moments (Debye-Ang)
        XX     -92.5496     XY     -14.6521     YY    -139.1394
        XZ      -1.9799     YZ      -2.9970     ZZ    -132.6080

 Total job time:  117.20s(wall), 651.99s(cpu)
        *  Thank you very much for using Q-Chem.  Have a nice day.  *
