 Gaussian 16, Revision A.03,
 Gaussian 16:  ES64L-G16RevA.03 25-Dec-2016

 ----------------------------------------------------------------------
 #P UB3LYP/6-311++G(d,p) nosym opt freq SCRF=(PCM,Solvent=n,n-DiMethylF
 ormamide)
 ----------------------------------------------------------------------

 -------
 Radical
 -------
 Symbolic Z-matrix:
 Charge = -1 Multiplicity = 2

 SCF Done:  E(UB3LYP) =  -878.902367910     A.U. after   20 cycles
 SCF Done:  E(UB3LYP) =  -878.902695428     A.U. after   15 cycles
 SCF Done:  E(UB3LYP) =  -878.902689680     A.U. after   15 cycles
 SCF Done:  E(UB3LYP) =  -878.902820774     A.U. after   12 cycles
 SCF Done:  E(UB3LYP) =  -878.902825631     A.U. after   12 cycles
 SCF Done:  E(UB3LYP) =  -878.902827568     A.U. after   10 cycles
 SCF Done:  E(UB3LYP) =  -878.902827733     A.U. after   10 cycles
 SCF Done:  E(UB3LYP) =  -878.902828175     A.U. after    9 cycles
 SCF Done:  E(UB3LYP) =  -878.902828299     A.U. after    9 cycles
 SCF Done:  E(UB3LYP) =  -878.902828327     A.U. after    7 cycles
 SCF Done:  E(UB3LYP) =  -878.902828326     A.U. after    8 cycles
 Optimization completed.
    -- Stationary point found.
 Normal termination of Gaussian 16 at Sat Feb 10 18:27:17 2024.

 ----------------------------------------------------------------------
 #P Geom=AllCheck Guess=TCheck SCRF=Check GenChk UB3LYP/6-311++G(d,p) F
 req
 ----------------------------------------------------------------------

 Structure from the checkpoint file:  "179-rad.chk"
 -------
 Radical
 -------
 Charge = -1 Multiplicity = 2

                          Input orientation:
 ---------------------------------------------------------------------
 Center     Atomic      Atomic             Coordinates (Angstroms)
 Number     Number       Type             X           Y           Z
 ---------------------------------------------------------------------
      1          6           0       -3.454238   -2.739235   -0.375700
      2          8           0       -2.146915   -2.198955   -0.206228
      3          6           0       -1.991533   -0.841349   -0.198096
      4          6           0       -3.078290    0.012875   -0.351297
      5          6           0       -2.917520    1.403819   -0.349359
      6          6           0       -1.663121    1.963113   -0.197034
      7          8           0       -1.541331    3.314083   -0.203592
      8          6           0       -0.516146    1.123205   -0.036097
      9          6           0        0.776707    1.754285    0.116085
     10          8           0        0.900322    3.038356    0.109719
     11          6           0        1.940649    0.911862    0.274551
     12          6           0        3.224751    1.489356    0.418038
     13          6           0        4.344816    0.697768    0.569541
     14          6           0        4.216496   -0.707159    0.583585
     15          6           0        2.969837   -1.287180    0.446503
     16          6           0        1.808560   -0.499962    0.289075
     17          6           0        0.504385   -1.169491    0.147469
     18          8           0        0.456479   -2.424489    0.186443
     19          6           0       -0.672151   -0.311348   -0.030206
     20          1           0       -3.328701   -3.820625   -0.350970
     21          1           0       -4.124932   -2.435006    0.434460
     22          1           0       -3.889958   -2.447999   -1.336971
     23          1           0       -4.073884   -0.387597   -0.476579
     24          1           0       -3.775899    2.054714   -0.469342
     25          1           0       -0.548988    3.478239   -0.080288
     26          1           0        3.305352    2.569197    0.405400
     27          1           0        5.323150    1.153404    0.677647
     28          1           0        5.096528   -1.329921    0.702025
     29          1           0        2.855573   -2.363959    0.456127
 ---------------------------------------------------------------------

 SCF Done:  E(UB3LYP) =  -878.902828326     A.U. after    1 cycles

 Alpha  occ. eigenvalues --  -19.14817 -19.12363 -19.08818 -19.07302 -10.23361
 Alpha  occ. eigenvalues --  -10.23049 -10.23022 -10.22856 -10.21706 -10.18135
 Alpha  occ. eigenvalues --  -10.17973 -10.17557 -10.17458 -10.17449 -10.17374
 Alpha  occ. eigenvalues --  -10.17237 -10.17117 -10.17096 -10.16696  -1.06380
 Alpha  occ. eigenvalues --   -1.04823  -1.00108  -0.99897  -0.86261  -0.84734
 Alpha  occ. eigenvalues --   -0.78868  -0.75579  -0.75071  -0.74169  -0.69543
 Alpha  occ. eigenvalues --   -0.67276  -0.63724  -0.62744  -0.58532  -0.56995
 Alpha  occ. eigenvalues --   -0.54106  -0.53394  -0.51625  -0.49444  -0.47597
 Alpha  occ. eigenvalues --   -0.46731  -0.46580  -0.45925  -0.43932  -0.43079
 Alpha  occ. eigenvalues --   -0.42699  -0.42130  -0.41648  -0.40538  -0.40176
 Alpha  occ. eigenvalues --   -0.39583  -0.38640  -0.38305  -0.35950  -0.35596
 Alpha  occ. eigenvalues --   -0.35521  -0.34622  -0.33855  -0.33357  -0.30006
 Alpha  occ. eigenvalues --   -0.27080  -0.25809  -0.25531  -0.25155  -0.23236
 Alpha  occ. eigenvalues --   -0.21381  -0.14335
 Alpha virt. eigenvalues --   -0.04972  -0.02490  -0.00310   0.00270   0.00768
 Alpha virt. eigenvalues --    0.01051   0.01887   0.02111   0.03454   0.03576
 Alpha virt. eigenvalues --    0.03928   0.04151   0.05047   0.05241   0.05413

  Beta  occ. eigenvalues --  -19.14802 -19.12315 -19.08323 -19.06784 -10.23346
  Beta  occ. eigenvalues --  -10.22914 -10.22812 -10.22776 -10.21706 -10.18062
  Beta  occ. eigenvalues --  -10.17979 -10.17526 -10.17435 -10.17357 -10.17304
  Beta  occ. eigenvalues --  -10.17202 -10.17118 -10.17009 -10.16608  -1.06337
  Beta  occ. eigenvalues --   -1.04624  -0.99265  -0.99036  -0.86013  -0.84585
  Beta  occ. eigenvalues --   -0.78468  -0.75346  -0.74931  -0.74003  -0.69380
  Beta  occ. eigenvalues --   -0.66595  -0.63530  -0.62515  -0.58448  -0.56825
  Beta  occ. eigenvalues --   -0.53865  -0.53289  -0.51530  -0.49255  -0.47420
  Beta  occ. eigenvalues --   -0.46627  -0.46443  -0.45762  -0.43850  -0.42620
  Beta  occ. eigenvalues --   -0.42134  -0.41841  -0.41540  -0.40232  -0.39984
  Beta  occ. eigenvalues --   -0.38828  -0.38526  -0.37004  -0.35853  -0.35404
  Beta  occ. eigenvalues --   -0.34524  -0.33729  -0.33618  -0.33286  -0.29472
  Beta  occ. eigenvalues --   -0.25303  -0.25132  -0.25052  -0.24682  -0.22772
  Beta  occ. eigenvalues --   -0.20394
  Beta virt. eigenvalues --   -0.08769  -0.03941  -0.01469  -0.00296   0.00274
  Beta virt. eigenvalues --    0.01064   0.01235   0.01905   0.02112   0.03472
  Beta virt. eigenvalues --    0.03620   0.03938   0.04161   0.05163   0.05437

 Mulliken charges and spin densities:
               1          2
     1  C   -0.284568  -0.000865
     2  O   -0.160659   0.004332
     3  C   -0.398851   0.021938
     4  C   -0.198841   0.086188
     5  C   -0.171478   0.063167
     6  C   -0.239157   0.049811
     7  O   -0.423446   0.014952
     8  C    0.834082  -0.020121
     9  C   -0.266775   0.160594
    10  O   -0.492334   0.179152
    11  C    0.104831  -0.018842
    12  C    0.056168   0.055202
    13  C   -0.521039   0.006036
    14  C   -0.507454   0.061030
    15  C    0.082457   0.007394
    16  C   -0.014637   0.058438
    17  C   -0.237441   0.051048
    18  O   -0.455515   0.194935
    19  C    0.322010   0.046390
    20  H    0.194049  -0.000246
    21  H    0.155510   0.000940
    22  H    0.154078   0.000922
    23  H    0.204792  -0.005465
    24  H    0.194065  -0.005299
    25  H    0.372040  -0.003844
    26  H    0.171306  -0.002189
    27  H    0.180901  -0.001105
    28  H    0.183556  -0.004365
    29  H    0.162350  -0.000129
 Sum of Mulliken charges =  -1.00000   1.00000

 Dipole moment (field-independent basis, Debye):
    X=             -2.5914    Y=             -3.5134    Z=             -0.6111  Tot=              4.4083
 Quadrupole moment (field-independent basis, Debye-Ang):
   XX=           -102.3648   YY=           -151.2629   ZZ=           -116.4656
   XY=              9.2024   XZ=              1.5428   YZ=              1.8941

  Exact polarizability: 493.515  -1.254 376.007  44.208  -4.838 149.368
 Approx polarizability: 505.330  -3.349 450.126  43.004  -6.264 170.263

                      1                      2                      3
                      A                      A                      A
 Frequencies --     35.3637                60.8807                93.5022
 Red. masses --      5.7366                 5.4969                 4.2825
 Frc consts  --      0.0042                 0.0120                 0.0221
 IR Inten    --     13.0910                 2.2257                 0.7238

                      4                      5                      6
                      A                      A                      A
 Frequencies --    122.0013               138.2763               174.9613
 Red. masses --      4.5429                 5.6387                 4.4559
 Frc consts  --      0.0398                 0.0635                 0.0804
 IR Inten    --      0.4853                 0.8479                10.1588

                      7                      8                      9
                      A                      A                      A
 Frequencies --    176.4001               254.9922               260.9453
 Red. masses --      7.3601                 5.6012                 4.7390
 Frc consts  --      0.1349                 0.2146                 0.1901
 IR Inten    --      2.6912                 0.6964                 2.1124

                     10                     11                     12
                      A                      A                      A
 Frequencies --    266.1356               321.9058               347.0783
 Red. masses --      1.1551                 4.6997                 6.4217
 Frc consts  --      0.0482                 0.2869                 0.4558
 IR Inten    --      0.3734                 8.0596                 0.1210

                     13                     14                     15
                      A                      A                      A
 Frequencies --    367.7160               381.2048               417.7314
 Red. masses --     11.2720                 5.0488                 6.4746
 Frc consts  --      0.8980                 0.4323                 0.6657
 IR Inten    --      1.2235                 0.2852                 0.3661

                     16                     17                     18
                      A                      A                      A
 Frequencies --    422.5948               434.3576               442.9188
 Red. masses --      7.1727                 3.3611                11.4799
 Frc consts  --      0.7547                 0.3736                 1.3269
 IR Inten    --     34.6595                 1.6472                45.3065

                     19                     20                     21
                      A                      A                      A
 Frequencies --    463.4317               500.4807               521.9588
 Red. masses --      9.0561                 4.4400                 7.5621
 Frc consts  --      1.1459                 0.6553                 1.2138
 IR Inten    --      2.9616                 0.0355                20.9507

                     22                     23                     24
                      A                      A                      A
 Frequencies --    548.1526               594.3048               620.7202
 Red. masses --      6.9218                 3.3929                 5.2523
 Frc consts  --      1.2254                 0.7061                 1.1923
 IR Inten    --      0.6777                37.6686                 8.7411

                     25                     26                     27
                      A                      A                      A
 Frequencies --    642.2820               664.0706               713.4377
 Red. masses --      4.7842                 6.5025                 6.0728
 Frc consts  --      1.1628                 1.6895                 1.8212
 IR Inten    --      0.7091                20.9306                45.2541

                     28                     29                     30
                      A                      A                      A
 Frequencies --    715.8646               735.8895               749.8534
 Red. masses --      2.6504                 5.2320                 7.0382
 Frc consts  --      0.8002                 1.6693                 2.3316
 IR Inten    --     34.7964                 1.4714                63.4254

                     31                     32                     33
                      A                      A                      A
 Frequencies --    782.8654               797.9482               815.1061
 Red. masses --      2.1840                 2.6498                 2.0444
 Frc consts  --      0.7886                 0.9941                 0.8003
 IR Inten    --     55.7085                56.8465                52.1872

                     34                     35                     36
                      A                      A                      A
 Frequencies --    857.0935               885.6207               892.6064
 Red. masses --      7.1817                 1.4341                 8.3926
 Frc consts  --      3.1084                 0.6627                 3.9397
 IR Inten    --     58.3669                 0.7905                92.2066

                     37                     38                     39
                      A                      A                      A
 Frequencies --    901.0365               926.1906               949.4583
 Red. masses --      1.3448                 1.0561                 6.1092
 Frc consts  --      0.6433                 0.5338                 3.2448
 IR Inten    --      4.1184               124.4026                44.8063

                     40                     41                     42
                      A                      A                      A
 Frequencies --    990.4530              1002.6459              1027.3608
 Red. masses --      1.3601                 1.2843                 4.6435
 Frc consts  --      0.7861                 0.7607                 2.8876
 IR Inten    --      1.9067                 0.0732               151.7535

                     43                     44                     45
                      A                      A                      A
 Frequencies --   1044.2774              1098.0398              1111.8978
 Red. masses --      2.4824                 3.3343                 2.2850
 Frc consts  --      1.5950                 2.3686                 1.6644
 IR Inten    --     63.5023               273.7479                48.0609

                     46                     47                     48
                      A                      A                      A
 Frequencies --   1150.0448              1162.6711              1173.1577
 Red. masses --      1.3860                 1.2756                 1.4678
 Frc consts  --      1.0800                 1.0159                 1.1902
 IR Inten    --     38.3275                 1.4463                32.6838

                     49                     50                     51
                      A                      A                      A
 Frequencies --   1192.7706              1203.6718              1233.2300
 Red. masses --      2.0672                 1.4655                 3.5145
 Frc consts  --      1.7328                 1.2510                 3.1492
 IR Inten    --      9.7621                49.2950                 4.2838

                     52                     53                     54
                      A                      A                      A
 Frequencies --   1244.5058              1260.3331              1279.2611
 Red. masses --      2.0910                 3.7418                 3.5921
 Frc consts  --      1.9081                 3.5019                 3.4635
 IR Inten    --     13.0427               352.1127               110.7700

                     55                     56                     57
                      A                      A                      A
 Frequencies --   1313.6312              1334.0993              1359.5640
 Red. masses --      3.4812                 4.2983                 7.4764
 Frc consts  --      3.5393                 4.5073                 8.1422
 IR Inten    --    418.4060               184.8799               135.8389

                     58                     59                     60
                      A                      A                      A
 Frequencies --   1373.6453              1385.6667              1461.6543
 Red. masses --      7.5078                 3.1590                 1.9469
 Frc consts  --      8.3466                 3.5737                 2.4507
 IR Inten    --    324.0384               607.3668               255.3728

                     61                     62                     63
                      A                      A                      A
 Frequencies --   1473.1109              1480.7231              1484.2319
 Red. masses --      1.9385                 2.9553                 1.0456
 Frc consts  --      2.4784                 3.8177                 1.3571
 IR Inten    --     45.9420                72.2608                12.1060

                     64                     65                     66
                      A                      A                      A
 Frequencies --   1489.7175              1501.4395              1520.7087
 Red. masses --      1.7038                 1.2041                 6.3485
 Frc consts  --      2.2277                 1.5992                 8.6500
 IR Inten    --    295.3594                23.1722              1208.5940

                     67                     68                     69
                      A                      A                      A
 Frequencies --   1546.7957              1569.9722              1609.8364
 Red. masses --      2.4253                 5.3799                 5.4110
 Frc consts  --      3.4188                 7.8129                 8.2622
 IR Inten    --     68.1475               314.7005                76.0037

                     70                     71                     72
                      A                      A                      A
 Frequencies --   1627.6428              1648.9549              2821.2909
 Red. masses --      5.0584                 3.0776                 1.0759
 Frc consts  --      7.8956                 4.9303                 5.0457
 IR Inten    --     11.7763                49.5613               917.4796

                     73                     74                     75
                      A                      A                      A
 Frequencies --   3005.7323              3065.6979              3128.8419
 Red. masses --      1.0338                 1.1063                 1.0998
 Frc consts  --      5.5027                 6.1258                 6.3434
 IR Inten    --    124.3999                60.0923                34.0287

                     76                     77                     78
                      A                      A                      A
 Frequencies --   3160.5912              3174.8700              3178.4258
 Red. masses --      1.0863                 1.0910                 1.0898
 Frc consts  --      6.3934                 6.4792                 6.4869
 IR Inten    --     13.7334                25.6867                30.3494

                     79                     80                     81
                      A                      A                      A
 Frequencies --   3193.4328              3196.9462              3216.9377
 Red. masses --      1.0919                 1.0937                 1.0906
 Frc consts  --      6.5604                 6.5859                 6.6496
 IR Inten    --     17.4564                38.4099                11.4299

 - Thermochemistry -
 -------------------
 Temperature   298.150 Kelvin.  Pressure   1.00000 Atm.
 Atom     1 has atomic number  6 and mass  12.00000

 Molecular mass:   254.05791 amu.
 Principal axes and moments of inertia in atomic units:
                           1         2         3
     Eigenvalues --  2992.038015471.384528451.52769
           X            0.97888  -0.16050  -0.12662
           Y            0.16392   0.98633   0.01700
           Z            0.12216  -0.03740   0.99181
 This molecule is an asymmetric top.
 Rotational symmetry number  1.
 Warning -- assumption of classical behavior for rotation
           may cause significant error
 Rotational temperatures (Kelvin)      0.02895     0.01583     0.01025
 Rotational constants (GHZ):           0.60318     0.32985     0.21354
 Zero-point vibrational energy     559229.2 (Joules/Mol)
                                  133.65899 (Kcal/Mol)
 Warning -- explicit consideration of  24 degrees of freedom as
           vibrations may cause significant error
 Vibrational temperatures:     50.88    87.59   134.53   175.53   198.95
          (Kelvin)            251.73   253.80   366.88   375.44   382.91
                              463.15   499.37   529.06   548.47   601.02
                              608.02   624.94   637.26   666.77   720.08
                              750.98   788.67   855.07   893.08   924.10
                              955.45  1026.48  1029.97  1058.78  1078.87
                             1126.37  1148.07  1172.76  1233.17  1274.21
                             1284.26  1296.39  1332.58  1366.06  1425.04
                             1442.58  1478.14  1502.48  1579.83  1599.77
                             1654.66  1672.82  1687.91  1716.13  1731.82
                             1774.34  1790.57  1813.34  1840.57  1890.02
                             1919.47  1956.11  1976.37  1993.67  2102.99
                             2119.48  2130.43  2135.48  2143.37  2160.24
                             2187.96  2225.49  2258.84  2316.20  2341.82
                             2372.48  4059.21  4324.58  4410.86  4501.71
                             4547.39  4567.93  4573.05  4594.64  4599.69
                             4628.46

 Zero-point correction=                           0.212999 (Hartree/Particle)
 Thermal correction to Energy=                    0.227638
 Thermal correction to Enthalpy=                  0.228582
 Thermal correction to Gibbs Free Energy=         0.170543
 Sum of electronic and zero-point Energies=           -878.689829
 Sum of electronic and thermal Energies=              -878.675190
 Sum of electronic and thermal Enthalpies=            -878.674246
 Sum of electronic and thermal Free Energies=         -878.732286

                     E (Thermal)             CV                S
                      KCal/Mol        Cal/Mol-Kelvin    Cal/Mol-Kelvin
 Total                  142.845             58.659            122.154
 Electronic               0.000              0.000              1.377
 Translational            0.889              2.981             42.497
 Rotational               0.889              2.981             33.292
 Vibrational            141.067             52.698             44.988
 Vibration     1          0.594              1.982              5.503
 Vibration     2          0.597              1.973              4.428
 Vibration     3          0.603              1.954              3.585
 Vibration     4          0.610              1.931              3.068
 Vibration     5          0.614              1.915              2.828
 Vibration     6          0.627              1.873              2.382
 Vibration     7          0.628              1.871              2.366
 Vibration     8          0.665              1.754              1.696
 Vibration     9          0.669              1.744              1.655
 Vibration    10          0.672              1.735              1.621
 Vibration    11          0.707              1.632              1.300
 Vibration    12          0.725              1.581              1.179
 Vibration    13          0.740              1.539              1.089
 Vibration    14          0.751              1.510              1.034
 Vibration    15          0.781              1.432              0.900
 Vibration    16          0.785              1.421              0.883
 Vibration    17          0.795              1.395              0.845
 Vibration    18          0.803              1.377              0.817
 Vibration    19          0.821              1.331              0.756
 Vibration    20          0.856              1.249              0.657
 Vibration    21          0.877              1.201              0.605
 Vibration    22          0.903              1.144              0.548
 Vibration    23          0.952              1.044              0.460
 Vibration    24          0.981              0.988              0.415

 Optimization completed.
    -- Stationary point found.
 Normal termination of Gaussian 16 at Sat Feb 10 19:48:47 2024.
