 Q-Chem 5.4, Q-Chem, Inc., Pleasanton, CA (2021)
 Q-Chem 5.4.0 for Intel X86 EM64T Linux

User input:
--------------------------------------------------------------
$molecule
-2 1
O                 -0.0187140000     -2.5513460000     -0.5995570000
C                 -0.0199610000     -1.3024690000     -0.2401890000
C                  1.2030120000     -0.5985380000      0.0433800000
C                  2.4365900000     -1.3262050000      0.0861200000
C                  3.6119710000     -0.7700500000      0.5378140000
C                  3.6624600000      0.5836580000      0.9796210000
C                  2.5076680000      1.3527020000      0.8795460000
C                  1.3193840000      0.8039350000      0.3931950000
S                 -0.0201460000      1.8817110000      0.0407370000
O                 -0.0132180000      2.2768620000     -1.4000390000
C                 -1.3637060000      0.8048920000      0.3805580000
C                 -2.5561130000      1.3545060000      0.8557300000
C                 -3.7123420000      0.5862860000      0.9449410000
C                 -3.6586700000     -0.7674540000      0.5036060000
C                 -2.4794950000     -1.3244460000      0.0629680000
C                 -1.2450470000     -0.5976640000      0.0318490000
H                  2.3815080000     -2.3622540000     -0.2314450000
H                  4.5159370000     -1.3776270000      0.5678340000
H                  4.5844340000      1.0157470000      1.3584110000
H                  2.5106440000      2.4009510000      1.1640240000
H                 -2.5610090000      2.4027550000      1.1401810000
H                 -4.6375260000      1.0190300000      1.3150570000
H                 -4.5633150000     -1.3743820000      0.5251100000
H                 -2.4221740000     -2.3605290000     -0.2540900000
O                 -0.0241140000      3.0537140000      0.9717190000
$end
$rem
MAX_SCF_CYCLES=200
BASIS  =  6-311++G(d,p)
GUI  =  2
JOB_TYPE  =  SP
METHOD  =  B3LYP
SOLVENT_METHOD = COSMO
$end
$solvent
dielectric 37.219
opticaldielectric 1.43
$end

--------------------------------------------------------------

             Standard Nuclear Orientation (Angstroms)
    I     Atom           X                Y                Z
 ----------------------------------------------------------------
    1      O      -0.0000003054     2.9787061875     0.5248514048
    2      C      -0.0000015678     1.6983008736     0.3025837557
    3      C       1.2240411028     0.9680309060     0.1025375011
    4      C       2.4580657241     1.6870046041    -0.0127911946
    5      C       3.6353605516     1.0854639667    -0.3961736403
    6      C       3.6874452097    -0.3080613426    -0.6888207215
    7      C       2.5319212261    -1.0619598194    -0.5116494686
    8      C       1.3415578599    -0.4640196416    -0.0930757230
    9      S       0.0000005491    -1.4975883412     0.3674979341
   10      O       0.0000092957    -1.7346824845     1.8425620545
   11      C      -1.3415620698    -0.4640191261    -0.0930619008
   12      C      -2.5319161007    -1.0619603655    -0.5116571559
   13      C      -3.6874387994    -0.3080633827    -0.6888370179
   14      C      -3.6353613849     1.0854587938    -0.3961714409
   15      C      -2.4580741067     1.6869998135    -0.0127673696
   16      C      -1.2240452100     0.9680306550     0.1025511616
   17      H       2.4018594506     2.7513015861     0.1906587385
   18      H       4.5396742091     1.6863754196    -0.4874302846
   19      H       4.6110370740    -0.7784214989    -1.0143329583
   20      H       2.5358620691    -2.1348168245    -0.6811336016
   21      H      -2.5358472971    -2.1348156670    -0.6811515688
   22      H      -4.6110254170    -0.7784221620    -1.0143658728
   23      H      -4.5396788928     1.6863664586    -0.4874206512
   24      H      -2.4018762339     2.7512931396     0.1907049147
   25      O      -0.0000050350    -2.7633590279    -0.4313505058
 ----------------------------------------------------------------

   11   -1124.1797623861      7.78e-06  Convergence criterion met
 Total energy in the final basis set =    -1124.1797623861
    6   -1124.4532121285      3.19e-06  Convergence criterion met
 Total energy in the final basis set =    -1124.4532121285

                    Orbital Energies (a.u.)
 --------------------------------------------------------------

 Alpha MOs
 -- Occupied --
-89.0246 -19.0966 -19.0946 -19.0169 -10.1730 -10.1730 -10.1703 -10.1671
-10.1671 -10.1574 -10.1574 -10.1539 -10.1539 -10.1491 -10.1491 -10.1487
-10.1487  -8.0884  -6.0516  -6.0500  -6.0492  -1.0802  -0.9726  -0.9327
 -0.8445  -0.8332  -0.7712  -0.7394  -0.7370  -0.7197  -0.6727  -0.6243
 -0.6039  -0.5726  -0.5559  -0.5278  -0.5193  -0.4852  -0.4594  -0.4528
 -0.4439  -0.4360  -0.4303  -0.4192  -0.4104  -0.3979  -0.3777  -0.3710
 -0.3624  -0.3538  -0.3388  -0.3334  -0.3328  -0.3167  -0.3080  -0.3078
 -0.2941  -0.2763  -0.2499  -0.2436  -0.2279  -0.2254  -0.2028  -0.1072

          Ground-State Mulliken Net Atomic Charges

     Atom                 Charge (a.u.)
  ----------------------------------------
      1 O                    -0.754328
      2 C                    -0.038175
      3 C                     1.101157
      4 C                    -0.003307
      5 C                    -0.689466
      6 C                    -0.305711
      7 C                    -0.019724
      8 C                    -1.255407
      9 S                     0.251413
     10 O                    -0.224754
     11 C                    -1.255428
     12 C                    -0.020712
     13 C                    -0.305497
     14 C                    -0.689260
     15 C                    -0.003477
     16 C                     1.103417
     17 H                     0.180008
     18 H                     0.179468
     19 H                     0.186044
     20 H                     0.210265
     21 H                     0.210369
     22 H                     0.186070
     23 H                     0.179461
     24 H                     0.179762
     25 O                    -0.402189
  ----------------------------------------
  Sum of atomic charges =    -2.000001

                    Cartesian Multipole Moments
 -----------------------------------------------------------------
    Charge (ESU x 10^10)
                -9.6064
    Dipole Moment (Debye)
         X       0.0006      Y      -4.0734      Z      -4.5197
       Tot       6.0844
    Quadrupole Moments (Debye-Ang)
        XX    -124.8734     XY      -0.0017     YY    -167.6899
        XZ       0.0034     YZ      -0.4368     ZZ    -130.1143

 Total job time:  74.16s(wall), 566.18s(cpu)
        *  Thank you very much for using Q-Chem.  Have a nice day.  *
