 Q-Chem 5.4, Q-Chem, Inc., Pleasanton, CA (2021)
 Q-Chem 5.4.0 for Intel X86 EM64T Linux

User input:
--------------------------------------------------------------
$molecule
-2 1
N                  3.0912990000     -1.2629260000      1.3279160000
C                  2.6444560000     -0.5391410000      0.2008040000
C                  3.5717450000     -0.0839310000     -0.7145480000
C                  3.1624520000      0.7073670000     -1.8217580000
C                  1.8514560000      1.0691950000     -1.9905910000
O                  1.5133760000      1.8596810000     -3.0895760000
C                  0.8281650000      0.6368640000     -1.0708140000
C                 -0.5288320000      0.9939520000     -1.2026850000
O                 -0.9248330000      1.8285070000     -2.2009210000
C                 -1.5101110000      0.4926340000     -0.2991660000
C                 -2.9071980000      0.9196180000     -0.4714140000
O                 -3.2511140000      1.7466950000     -1.4280710000
C                 -3.8451390000      0.3980320000      0.4262860000
C                 -3.4734040000     -0.5064420000      1.4396440000
C                 -2.1681740000     -0.9106950000      1.6383420000
N                 -1.8933260000     -1.8216910000      2.7194770000
C                 -1.1355410000     -0.4174700000      0.7582210000
C                  0.2546560000     -0.7994920000      0.9251590000
O                  0.5984430000     -1.6524130000      1.8619220000
C                  1.2364640000     -0.2335980000      0.0381630000
H                  3.8403540000     -1.9027450000      1.0968930000
H                  2.2720150000     -1.7058000000      1.7779050000
H                  4.6267120000     -0.2987290000     -0.5592240000
H                  3.9040960000      1.0416000000     -2.5490110000
H                  2.3522640000      2.1111640000     -3.4890480000
H                 -1.9398020000      1.9295890000     -2.0494910000
H                 -4.8825610000      0.6991740000      0.3020300000
H                 -4.2382940000     -0.9176530000      2.0988340000
H                 -0.8773840000     -1.9786380000      2.7233380000
H                 -2.1722390000     -1.4027080000      3.6013830000
$end
$rem
MAX_SCF_CYCLES=200
BASIS  =  6-311++G(d,p)
GUI  =  2
JOB_TYPE  =  SP
METHOD  =  B3LYP
SOLVENT_METHOD = PCM
$end
$pcm
theory = CPCM
$end
$solvent
dielectric 37.219
opticaldielectric 1.43
$end

--------------------------------------------------------------

             Standard Nuclear Orientation (Angstroms)
    I     Atom           X                Y                Z
 ----------------------------------------------------------------
    1      N       3.0912990000    -1.2629260000     1.3279160000
    2      C       2.6444560000    -0.5391410000     0.2008040000
    3      C       3.5717450000    -0.0839310000    -0.7145480000
    4      C       3.1624520000     0.7073670000    -1.8217580000
    5      C       1.8514560000     1.0691950000    -1.9905910000
    6      O       1.5133760000     1.8596810000    -3.0895760000
    7      C       0.8281650000     0.6368640000    -1.0708140000
    8      C      -0.5288320000     0.9939520000    -1.2026850000
    9      O      -0.9248330000     1.8285070000    -2.2009210000
   10      C      -1.5101110000     0.4926340000    -0.2991660000
   11      C      -2.9071980000     0.9196180000    -0.4714140000
   12      O      -3.2511140000     1.7466950000    -1.4280710000
   13      C      -3.8451390000     0.3980320000     0.4262860000
   14      C      -3.4734040000    -0.5064420000     1.4396440000
   15      C      -2.1681740000    -0.9106950000     1.6383420000
   16      N      -1.8933260000    -1.8216910000     2.7194770000
   17      C      -1.1355410000    -0.4174700000     0.7582210000
   18      C       0.2546560000    -0.7994920000     0.9251590000
   19      O       0.5984430000    -1.6524130000     1.8619220000
   20      C       1.2364640000    -0.2335980000     0.0381630000
   21      H       3.8403540000    -1.9027450000     1.0968930000
   22      H       2.2720150000    -1.7058000000     1.7779050000
   23      H       4.6267120000    -0.2987290000    -0.5592240000
   24      H       3.9040960000     1.0416000000    -2.5490110000
   25      H       2.3522640000     2.1111640000    -3.4890480000
   26      H      -1.9398020000     1.9295890000    -2.0494910000
   27      H      -4.8825610000     0.6991740000     0.3020300000
   28      H      -4.2382940000    -0.9176530000     2.0988340000
   29      H      -0.8773840000    -1.9786380000     2.7233380000
   30      H      -2.1722390000    -1.4027080000     3.6013830000
 ----------------------------------------------------------------

    9    -950.4602782315      3.21e-06  Convergence criterion met
 Total energy in the final basis set =     -950.4602782315

                    Orbital Energies (a.u.)
 --------------------------------------------------------------

 Alpha MOs
 -- Occupied --
-19.1300 -19.0889 -19.0485 -19.0413 -14.2771 -14.2712 -10.2096 -10.1986
-10.1965 -10.1937 -10.1885 -10.1722 -10.1600 -10.1539 -10.1513 -10.1509
-10.1492 -10.1401 -10.1372 -10.1280  -1.0380  -1.0134  -0.9624  -0.9552
 -0.8833  -0.8695  -0.8216  -0.7946  -0.7573  -0.7167  -0.7093  -0.6841
 -0.6463  -0.6140  -0.6088  -0.5596  -0.5475  -0.5336  -0.5082  -0.4878
 -0.4818  -0.4691  -0.4636  -0.4442  -0.4353  -0.4243  -0.4216  -0.4076
 -0.4037  -0.3920  -0.3861  -0.3777  -0.3683  -0.3624  -0.3573  -0.3526
 -0.3468  -0.3396  -0.3339  -0.3266  -0.3145  -0.3023  -0.2762  -0.2556
 -0.2406  -0.2252  -0.2225  -0.2110  -0.1935  -0.1701  -0.1174

          Ground-State Mulliken Net Atomic Charges

     Atom                 Charge (a.u.)
  ----------------------------------------
      1 N                    -0.497465
      2 C                    -0.114937
      3 C                    -0.408331
      4 C                    -0.130413
      5 C                    -0.376861
      6 O                    -0.345901
      7 C                     0.369662
      8 C                    -0.191163
      9 O                    -0.576413
     10 C                     0.405267
     11 C                    -0.507136
     12 O                    -0.693563
     13 C                    -0.304642
     14 C                    -0.467090
     15 C                    -0.225433
     16 N                    -0.537294
     17 C                     0.563353
     18 C                    -0.415536
     19 O                    -0.604626
     20 C                     0.435643
     21 H                     0.261218
     22 H                     0.320444
     23 H                     0.173067
     24 H                     0.168233
     25 H                     0.306130
     26 H                     0.496338
     27 H                     0.157489
     28 H                     0.166990
     29 H                     0.315358
     30 H                     0.257613
  ----------------------------------------
  Sum of atomic charges =    -2.000000

                    Cartesian Multipole Moments
 -----------------------------------------------------------------
    Charge (ESU x 10^10)
                -9.6064
    Dipole Moment (Debye)
         X      10.6594      Y      -2.1416      Z       1.2245
       Tot      10.9411
    Quadrupole Moments (Debye-Ang)
        XX    -168.0205     XY      11.9211     YY    -150.6326
        XZ     -19.8829     YZ      22.4852     ZZ    -148.6192

 Total job time:  75.04s(wall), 443.97s(cpu)
        *  Thank you very much for using Q-Chem.  Have a nice day.  *
