 Gaussian 16, Revision A.03,
 Gaussian 16:  ES64L-G16RevA.03 25-Dec-2016

 ----------------------------------------------------------------
 #P UB3LYP/6-311++G(d,p) SCRF=(PCM,Solvent=n,n-DiMethylFormamide)
 ----------------------------------------------------------------

 -------
 Reduced
 -------
 Symbolic Z-matrix:
 Charge = -2 Multiplicity = 1

                         Standard orientation:
 ---------------------------------------------------------------------
 Center     Atomic      Atomic             Coordinates (Angstroms)
 Number     Number       Type             X           Y           Z
 ---------------------------------------------------------------------
      1          7           0       -2.473319    2.872080    0.229627
      2          6           0       -2.460720    1.468308    0.077381
      3          6           0       -3.660712    0.787870    0.032945
      4          6           0       -3.681756   -0.630759   -0.048509
      5          6           0       -2.521340   -1.359846   -0.047830
      6          8           0       -2.606986   -2.750925   -0.114892
      7          6           0       -1.230752   -0.718164    0.003669
      8          6           0       -0.014710   -1.430511    0.015767
      9          8           0       -0.016316   -2.790441    0.034810
     10          6           0        1.235606   -0.746964    0.008835
     11          6           0        2.471902   -1.543176    0.047000
     12          8           0        2.434899   -2.852423    0.092043
     13          6           0        3.680764   -0.838981    0.026724
     14          6           0        3.714840    0.567150   -0.042493
     15          6           0        2.572288    1.342256   -0.060147
     16          7           0        2.720063    2.774084   -0.108493
     17          6           0        1.281484    0.696058   -0.038518
     18          6           0        0.046977    1.459214   -0.045039
     19          8           0        0.079466    2.769234   -0.122373
     20          6           0       -1.202885    0.749177    0.023060
     21          1           0       -3.212139    3.306604   -0.308109
     22          1           0       -1.525269    3.231618    0.025208
     23          1           0       -4.593403    1.343003    0.104600
     24          1           0       -4.637951   -1.153399   -0.104930
     25          1           0       -3.544523   -2.951909   -0.030127
     26          1           0        0.984472   -3.037709    0.059135
     27          1           0        4.601027   -1.417919    0.044552
     28          1           0        4.676372    1.078827   -0.090714
     29          1           0        1.771848    3.170507   -0.085634
     30          1           0        3.237943    3.093868    0.704302
 ---------------------------------------------------------------------

 SCF Done:  E(UB3LYP) =  -950.450679001     A.U. after   15 cycles

 The electronic state is 1-A.
 Alpha  occ. eigenvalues --  -19.13043 -19.08475 -19.04456 -19.03784 -14.27641
 Alpha  occ. eigenvalues --  -14.26943 -10.20883 -10.19566 -10.19370 -10.19085
 Alpha  occ. eigenvalues --  -10.18733 -10.16981 -10.15772 -10.15156 -10.14921
 Alpha  occ. eigenvalues --  -10.14865 -10.14822 -10.13954 -10.13569 -10.12592
 Alpha  occ. eigenvalues --   -1.03827  -1.00939  -0.95884  -0.95105  -0.88215
 Alpha  occ. eigenvalues --   -0.86749  -0.81966  -0.79274  -0.75546  -0.71483
 Alpha  occ. eigenvalues --   -0.70736  -0.68198  -0.64438  -0.61264  -0.60676
 Alpha  occ. eigenvalues --   -0.55872  -0.54500  -0.53223  -0.50650  -0.48608
 Alpha  occ. eigenvalues --   -0.48032  -0.46709  -0.46245  -0.44189  -0.43439
 Alpha  occ. eigenvalues --   -0.42206  -0.42034  -0.40529  -0.40169  -0.38887
 Alpha  occ. eigenvalues --   -0.38412  -0.37562  -0.36558  -0.36005  -0.35570
 Alpha  occ. eigenvalues --   -0.35031  -0.34497  -0.33682  -0.33152  -0.32397
 Alpha  occ. eigenvalues --   -0.31158  -0.29901  -0.27384  -0.25272  -0.23773
 Alpha  occ. eigenvalues --   -0.22122  -0.22023  -0.20771  -0.19089  -0.16726
 Alpha  occ. eigenvalues --   -0.11462
 Alpha virt. eigenvalues --   -0.01304  -0.00326   0.00098   0.00627   0.01069
 Alpha virt. eigenvalues --    0.02126   0.02296   0.03599   0.03823   0.04438
 Alpha virt. eigenvalues --    0.04559   0.04795   0.06002   0.06384   0.06692

  Beta  occ. eigenvalues --  -19.13043 -19.08475 -19.04456 -19.03784 -14.27641
  Beta  occ. eigenvalues --  -14.26943 -10.20883 -10.19566 -10.19370 -10.19085
  Beta  occ. eigenvalues --  -10.18733 -10.16981 -10.15772 -10.15156 -10.14921
  Beta  occ. eigenvalues --  -10.14865 -10.14822 -10.13954 -10.13569 -10.12592
  Beta  occ. eigenvalues --   -1.03827  -1.00939  -0.95884  -0.95105  -0.88215
  Beta  occ. eigenvalues --   -0.86749  -0.81966  -0.79274  -0.75546  -0.71483
  Beta  occ. eigenvalues --   -0.70736  -0.68198  -0.64438  -0.61264  -0.60676
  Beta  occ. eigenvalues --   -0.55872  -0.54500  -0.53223  -0.50650  -0.48608
  Beta  occ. eigenvalues --   -0.48032  -0.46709  -0.46245  -0.44189  -0.43439
  Beta  occ. eigenvalues --   -0.42206  -0.42034  -0.40529  -0.40169  -0.38887
  Beta  occ. eigenvalues --   -0.38412  -0.37562  -0.36558  -0.36005  -0.35570
  Beta  occ. eigenvalues --   -0.35031  -0.34497  -0.33682  -0.33152  -0.32397
  Beta  occ. eigenvalues --   -0.31158  -0.29901  -0.27384  -0.25272  -0.23773
  Beta  occ. eigenvalues --   -0.22122  -0.22023  -0.20771  -0.19089  -0.16726
  Beta  occ. eigenvalues --   -0.11462
  Beta virt. eigenvalues --   -0.01304  -0.00326   0.00098   0.00627   0.01069
  Beta virt. eigenvalues --    0.02126   0.02296   0.03599   0.03823   0.04438
  Beta virt. eigenvalues --    0.04559   0.04795   0.06002   0.06384   0.06692

 Mulliken charges and spin densities:
               1          2
     1  N   -0.475145   0.000000
     2  C   -0.102929  -0.000000
     3  C   -0.378829   0.000000
     4  C   -0.142863   0.000000
     5  C   -0.353006   0.000000
     6  O   -0.324023   0.000000
     7  C    0.388152  -0.000000
     8  C   -0.207545   0.000000
     9  O   -0.566441  -0.000000
    10  C    0.399788   0.000000
    11  C   -0.540494   0.000000
    12  O   -0.677337  -0.000000
    13  C   -0.280281  -0.000000
    14  C   -0.426900   0.000000
    15  C   -0.200274  -0.000000
    16  N   -0.516742   0.000000
    17  C    0.542063  -0.000000
    18  C   -0.463576   0.000000
    19  O   -0.582440  -0.000000
    20  C    0.421661  -0.000000
    21  H    0.244660  -0.000000
    22  H    0.316160   0.000000
    23  H    0.155067  -0.000000
    24  H    0.140894  -0.000000
    25  H    0.285602  -0.000000
    26  H    0.495839  -0.000000
    27  H    0.144369   0.000000
    28  H    0.151922   0.000000
    29  H    0.311755   0.000000
    30  H    0.240892  -0.000000
 Sum of Mulliken charges =  -2.00000   0.00000

 Dipole moment (field-independent basis, Debye):
    X=             -8.5967    Y=              3.1676    Z=              0.4287  Tot=              9.1718
 Quadrupole moment (field-independent basis, Debye-Ang):
   XX=           -155.6280   YY=           -182.0222   ZZ=           -129.9061
   XY=             15.6270   XZ=              8.1093   YZ=              1.7380

 Normal termination of Gaussian 16 at Tue Jan 16 06:23:46 2024.
