 Gaussian 16, Revision A.03,
 Gaussian 16:  ES64L-G16RevA.03 25-Dec-2016

 ----------------------------------------------
 #P UB3LYP/6-311++G(d,p) nosym opt freq SCF=YQC
 ----------------------------------------------

 -------
 Reduced
 -------
 Symbolic Z-matrix:
 Charge = -2 Multiplicity = 1

 SCF Done:  E(UB3LYP) =  -726.011668969     a.u. after   10 cycles
 SCF Done:  E(UB3LYP) =  -726.017770511     A.U. after   33 cycles
 SCF Done:  E(UB3LYP) =  -726.017770511     a.u. after    1 cycles
 SCF Done:  E(UB3LYP) =  -726.036655387     a.u. after   94 cycles
 SCF Done:  E(UB3LYP) =  -726.037101082     A.U. after   26 cycles
 SCF Done:  E(UB3LYP) =  -726.039757019     a.u. after   96 cycles
 SCF Done:  E(UB3LYP) =  -726.040174213     A.U. after   24 cycles
 SCF Done:  E(UB3LYP) =  -726.037660260     a.u. after  172 cycles
 SCF Done:  E(UB3LYP) =  -726.037884768     A.U. after   25 cycles
 SCF Done:  E(UB3LYP) =  -726.040693647     a.u. after   32 cycles
 SCF Done:  E(UB3LYP) =  -726.041048052     a.u. after   19 cycles
 SCF Done:  E(UB3LYP) =  -726.041171602     A.U. after   25 cycles
 SCF Done:  E(UB3LYP) =  -726.041076647     a.u. after    9 cycles
 SCF Done:  E(UB3LYP) =  -726.041179888     A.U. after   24 cycles
 SCF Done:  E(UB3LYP) =  -726.041150013     a.u. after    1 cycles
 SCF Done:  E(UB3LYP) =  -726.041182104     A.U. after   23 cycles
 SCF Done:  E(UB3LYP) =  -726.041171997     a.u. after    1 cycles
 SCF Done:  E(UB3LYP) =  -726.041182361     A.U. after   26 cycles
 Optimization completed.
    -- Stationary point found.
 Normal termination of Gaussian 16 at Thu Dec 21 04:36:32 2023.

 ----------------------------------------------------------------------
 #P Geom=AllCheck Guess=TCheck SCRF=Check GenChk UB3LYP/6-311++G(d,p) F
 req
 ----------------------------------------------------------------------

 Structure from the checkpoint file:  "076-an.chk"
 -------
 Reduced
 -------
 Charge = -2 Multiplicity = 1

                          Input orientation:
 ---------------------------------------------------------------------
 Center     Atomic      Atomic             Coordinates (Angstroms)
 Number     Number       Type             X           Y           Z
 ---------------------------------------------------------------------
      1          6           0        0.235154    1.692440   -1.639544
      2          6           0       -1.198744    1.804112   -1.453160
      3          6           0       -2.071096    0.766994   -1.670795
      4          6           0       -1.656135   -0.561055   -2.093875
      5          6           0       -0.255895   -0.692315   -2.237436
      6          6           0        0.689965    0.346292   -1.979108
      7          8           0        0.979850    2.723834   -1.554924
      8          8           0       -2.524494   -1.499380   -2.286929
      9          6           0        3.191197    0.803874   -1.446044
     10          6           0        4.463455    0.855428   -2.034644
     11          6           0        3.046142    1.331308   -0.154884
     12          6           0        4.131966    1.878670    0.522461
     13          6           0        5.549467    1.427665   -1.370848
     14          6           0        5.393513    1.938638   -0.082554
     15          1           0       -1.561646    2.790101   -1.164381
     16          1           0       -3.143220    0.913445   -1.530146
     17          1           0        0.135876   -1.661082   -2.530572
     18          1           0        4.582351    0.418518   -3.019720
     19          1           0        2.068109    1.308693    0.307944
     20          1           0        3.994847    2.272783    1.526295
     21          1           0        6.524893    1.462232   -1.853007
     22          1           0        6.241873    2.367423    0.446954
     23          6           0        2.097056    0.027127   -2.154547
     24          8           0        2.501033   -0.950845   -2.826379
 ---------------------------------------------------------------------

 SCF Done:  E(UB3LYP) =  -726.041182361     a.u. after    1 cycles
 SCF Done:  E(UB3LYP) =  -726.041182361     A.U. after    2 cycles

 Alpha  occ. eigenvalues --  -18.83341 -18.79421 -18.76966  -9.98757  -9.96962
 Alpha  occ. eigenvalues --   -9.96815  -9.96455  -9.95598  -9.95535  -9.95510
 Alpha  occ. eigenvalues --   -9.95482  -9.93135  -9.90588  -9.90042  -9.89694
 Alpha  occ. eigenvalues --   -9.87611  -0.75774  -0.71316  -0.68070  -0.64091
 Alpha  occ. eigenvalues --   -0.54678  -0.53774  -0.53316  -0.48103  -0.42030
 Alpha  occ. eigenvalues --   -0.39946  -0.39144  -0.35543  -0.31507  -0.30713
 Alpha  occ. eigenvalues --   -0.27255  -0.23950  -0.23236  -0.21082  -0.20936
 Alpha  occ. eigenvalues --   -0.19403  -0.18838  -0.17094  -0.15877  -0.15141
 Alpha  occ. eigenvalues --   -0.13875  -0.12942  -0.12673  -0.11784  -0.10459
 Alpha  occ. eigenvalues --   -0.09147  -0.08049  -0.07274  -0.04324  -0.03568
 Alpha  occ. eigenvalues --    0.00372   0.01008   0.02210   0.03923   0.05496
 Alpha  occ. eigenvalues --    0.12061
 Alpha virt. eigenvalues --    0.13358   0.15473   0.17262   0.17722   0.18449
 Alpha virt. eigenvalues --    0.19796   0.20013   0.20445   0.21679   0.22455
 Alpha virt. eigenvalues --    0.22693   0.23230   0.25136   0.25753   0.26187

  Beta  occ. eigenvalues --  -18.83341 -18.79421 -18.76966  -9.98757  -9.96962
  Beta  occ. eigenvalues --   -9.96815  -9.96455  -9.95598  -9.95535  -9.95510
  Beta  occ. eigenvalues --   -9.95482  -9.93135  -9.90588  -9.90042  -9.89694
  Beta  occ. eigenvalues --   -9.87611  -0.75774  -0.71316  -0.68070  -0.64091
  Beta  occ. eigenvalues --   -0.54678  -0.53774  -0.53316  -0.48103  -0.42030
  Beta  occ. eigenvalues --   -0.39946  -0.39144  -0.35543  -0.31507  -0.30713
  Beta  occ. eigenvalues --   -0.27255  -0.23950  -0.23236  -0.21082  -0.20936
  Beta  occ. eigenvalues --   -0.19403  -0.18838  -0.17094  -0.15877  -0.15141
  Beta  occ. eigenvalues --   -0.13875  -0.12942  -0.12673  -0.11784  -0.10459
  Beta  occ. eigenvalues --   -0.09147  -0.08049  -0.07274  -0.04324  -0.03568
  Beta  occ. eigenvalues --    0.00372   0.01008   0.02210   0.03923   0.05496
  Beta  occ. eigenvalues --    0.12061
  Beta virt. eigenvalues --    0.13358   0.15473   0.17262   0.17722   0.18449
  Beta virt. eigenvalues --    0.19796   0.20013   0.20445   0.21679   0.22455
  Beta virt. eigenvalues --    0.22693   0.23230   0.25136   0.25753   0.26187

 Mulliken charges and spin densities:
               1          2
     1  C   -1.409549   0.000000
     2  C    0.162131  -0.000000
     3  C    0.174260   0.000000
     4  C   -0.867904   0.000000
     5  C    0.197933  -0.000000
     6  C    1.684965  -0.000000
     7  O   -0.410821  -0.000000
     8  O   -0.557962  -0.000000
     9  C    1.467622  -0.000000
    10  C   -0.068093   0.000000
    11  C   -0.663350  -0.000000
    12  C   -0.501813   0.000000
    13  C    0.041644  -0.000000
    14  C    0.214340  -0.000000
    15  H    0.094779  -0.000000
    16  H    0.083771  -0.000000
    17  H    0.149773  -0.000000
    18  H    0.186081  -0.000000
    19  H    0.181952  -0.000000
    20  H    0.105615   0.000000
    21  H   -0.108059   0.000000
    22  H   -0.359257   0.000000
    23  C   -1.475604   0.000000
    24  O   -0.322454  -0.000000
 Sum of Mulliken charges =  -2.00000   0.00000

 Dipole moment (field-independent basis, Debye):
    X=             -7.3657    Y=             -3.1600    Z=             17.9164  Tot=             19.6275
 Quadrupole moment (field-independent basis, Debye-Ang):
   XX=           -202.3950   YY=           -143.3598   ZZ=           -144.2964
   XY=            -31.3197   XZ=             -2.5781   YZ=             -5.1698

  Exact polarizability:2348.746 611.387 416.795 561.729 310.977 610.997
 Approx polarizability:5134.3151268.169 729.6391177.103 456.630 687.030

                      1                      2                      3
                      A                      A                      A
 Frequencies --     31.5803                45.8322                80.0968
 Red. masses --      8.2858                 4.6528                 4.9796
 Frc consts  --      0.0049                 0.0058                 0.0188
 IR Inten    --      1.7428                 0.2796                 9.1319

                      4                      5                      6
                      A                      A                      A
 Frequencies --    111.8438               152.2937               194.7532
 Red. masses --      6.6058                 9.3491                 5.8412
 Frc consts  --      0.0487                 0.1278                 0.1305
 IR Inten    --      0.8772                12.7808                53.0400

                      7                      8                      9
                      A                      A                      A
 Frequencies --    202.9598               257.1476               324.6115
 Red. masses --      7.4041                 6.6377                 5.9988
 Frc consts  --      0.1797                 0.2586                 0.3724
 IR Inten    --     18.2690                10.6546                 3.9758

                     10                     11                     12
                      A                      A                      A
 Frequencies --    344.8994               395.3611               412.7388
 Red. masses --     10.9557                 5.0644                 3.8385
 Frc consts  --      0.7678                 0.4664                 0.3853
 IR Inten    --      5.0640                37.3681               272.2758

                     13                     14                     15
                      A                      A                      A
 Frequencies --    418.8308               441.2118               466.3418
 Red. masses --      4.9223                 4.5562                10.4078
 Frc consts  --      0.5087                 0.5226                 1.3336
 IR Inten    --    256.7771                 2.5188               910.7511

                     16                     17                     18
                      A                      A                      A
 Frequencies --    514.9133               556.6253               611.3820
 Red. masses --      3.7359                 2.3909                 5.2812
 Frc consts  --      0.5836                 0.4364                 1.1631
 IR Inten    --     50.5227                 9.3630                72.0257

                     19                     20                     21
                      A                      A                      A
 Frequencies --    631.0306               638.7281               685.2137
 Red. masses --      6.3745                 6.1111                 5.7092
 Frc consts  --      1.4955                 1.4689                 1.5793
 IR Inten    --      3.6893                43.5176                30.7691

                     22                     23                     24
                      A                      A                      A
 Frequencies --    696.7097               713.9106               739.5193
 Red. masses --      1.6837                 5.1612                 2.3004
 Frc consts  --      0.4815                 1.5498                 0.7412
 IR Inten    --     43.7269               125.7499                64.5937

                     25                     26                     27
                      A                      A                      A
 Frequencies --    783.2396               813.7305               824.8716
 Red. masses --      2.5405                 4.4134                 2.5978
 Frc consts  --      0.9183                 1.7218                 1.0414
 IR Inten    --     25.5544               135.8823                34.5938

                     28                     29                     30
                      A                      A                      A
 Frequencies --    829.2575               839.5557               848.3000
 Red. masses --      1.2662                 2.2251                 3.8468
 Frc consts  --      0.5130                 0.9241                 1.6310
 IR Inten    --      7.5738                15.7673                88.7822

                     31                     32                     33
                      A                      A                      A
 Frequencies --    906.7033               929.3599               954.4273
 Red. masses --      1.5152                 1.2855                 1.2517
 Frc consts  --      0.7339                 0.6542                 0.6718
 IR Inten    --     82.3509                 2.6540                12.1813

                     34                     35                     36
                      A                      A                      A
 Frequencies --    958.8796               972.8541              1008.7050
 Red. masses --      1.3615                 2.9817                 6.0966
 Frc consts  --      0.7376                 1.6627                 3.6548
 IR Inten    --     16.2126                 8.6289                27.7348

                     37                     38                     39
                      A                      A                      A
 Frequencies --   1040.0865              1072.7560              1088.7992
 Red. masses --      2.2797                 2.1377                 1.6140
 Frc consts  --      1.4530                 1.4494                 1.1273
 IR Inten    --    279.2763               693.3992               204.6761

                     40                     41                     42
                      A                      A                      A
 Frequencies --   1128.1288              1160.9141              1180.0959
 Red. masses --      1.7468                 1.0902                 1.3082
 Frc consts  --      1.3098                 0.8657                 1.0734
 IR Inten    --    122.6697                58.9431               103.3124

                     43                     44                     45
                      A                      A                      A
 Frequencies --   1188.6515              1223.9893              1264.9885
 Red. masses --      1.9378                 2.0388                 6.5987
 Frc consts  --      1.6131                 1.7996                 6.2213
 IR Inten    --    211.9427              1303.5289                63.6405

                     46                     47                     48
                      A                      A                      A
 Frequencies --   1310.3614              1326.6304              1342.3128
 Red. masses --      2.6599                 2.1941                 2.5606
 Frc consts  --      2.6909                 2.2752                 2.7183
 IR Inten    --    294.3272                23.9751               206.3900

                     49                     50                     51
                      A                      A                      A
 Frequencies --   1373.1197              1420.5274              1449.1489
 Red. masses --      5.4592                 5.0601                 3.4927
 Frc consts  --      6.0646                 6.0160                 4.3215
 IR Inten    --    397.6373              1257.3158              3813.0492

                     52                     53                     54
                      A                      A                      A
 Frequencies --   1462.5444              1485.7606              1499.7122
 Red. masses --      2.8742                 5.2183                 2.6514
 Frc consts  --      3.6224                 6.7870                 3.5135
 IR Inten    --    839.2348               438.5595               666.1234

                     55                     56                     57
                      A                      A                      A
 Frequencies --   1532.2386              1586.6070              1602.4215
 Red. masses --      5.3121                 5.7373                 5.9899
 Frc consts  --      7.3480                 8.5094                 9.0620
 IR Inten    --   2218.4188              5253.2092               347.4303

                     58                     59                     60
                      A                      A                      A
 Frequencies --   1613.3208              3076.6781              3100.4482
 Red. masses --      5.5443                 1.0837                 1.0836
 Frc consts  --      8.5023                 6.0438                 6.1370
 IR Inten    --    415.9884               193.6683               362.1792

                     61                     62                     63
                      A                      A                      A
 Frequencies --   3108.8593              3119.5769              3137.2900
 Red. masses --      1.0929                 1.0892                 1.0939
 Frc consts  --      6.2236                 6.2454                 6.3439
 IR Inten    --    738.8837               329.0414               216.3863

                     64                     65                     66
                      A                      A                      A
 Frequencies --   3156.9753              3174.8821              3197.6090
 Red. masses --      1.0870                 1.0904                 1.0918
 Frc consts  --      6.3832                 6.4761                 6.5773
 IR Inten    --    128.2377                20.2181                11.4901

 - Thermochemistry -
 -------------------
 Temperature   298.150 Kelvin.  Pressure   1.00000 Atm.
 Atom     1 has atomic number  6 and mass  12.00000

 Molecular mass:   212.04734 amu.
 Principal axes and moments of inertia in atomic units:
                           1         2         3
     Eigenvalues --  1368.388505797.159616660.73141
           X            0.95168  -0.30399  -0.04355
           Y            0.24272   0.83145  -0.49978
           Z            0.18813   0.46506   0.86506
 This molecule is an asymmetric top.
 Rotational symmetry number  1.
 Warning -- assumption of classical behavior for rotation
           may cause significant error
 Rotational temperatures (Kelvin)      0.06330     0.01494     0.01300
 Rotational constants (GHZ):           1.31888     0.31131     0.27095
 Zero-point vibrational energy     447187.2 (Joules/Mol)
                                  106.88029 (Kcal/Mol)
 Warning -- explicit consideration of  18 degrees of freedom as
           vibrations may cause significant error
 Vibrational temperatures:     45.44    65.94   115.24   160.92   219.12
          (Kelvin)            280.21   292.01   369.98   467.04   496.23
                              568.84   593.84   602.60   634.81   670.96
                              740.85   800.86   879.64   907.91   918.99
                              985.87  1002.41  1027.16  1064.00  1126.91
                             1170.78  1186.81  1193.12  1207.93  1220.51
                             1304.54  1337.14  1373.21  1379.61  1399.72
                             1451.30  1496.45  1543.46  1566.54  1623.13
                             1670.30  1697.89  1710.20  1761.05  1820.04
                             1885.32  1908.73  1931.29  1975.61  2043.82
                             2085.00  2104.28  2137.68  2157.75  2204.55
                             2282.77  2305.53  2321.21  4426.65  4460.85
                             4472.96  4488.38  4513.86  4542.18  4567.95
                             4600.65

 Zero-point correction=                           0.170325 (Hartree/Particle)
 Thermal correction to Energy=                    0.183027
 Thermal correction to Enthalpy=                  0.183971
 Thermal correction to Gibbs Free Energy=         0.129980
 Sum of electronic and zero-point Energies=           -725.870858
 Sum of electronic and thermal Energies=              -725.858156
 Sum of electronic and thermal Enthalpies=            -725.857212
 Sum of electronic and thermal Free Energies=         -725.911203

                     E (Thermal)             CV                S
                      KCal/Mol        Cal/Mol-Kelvin    Cal/Mol-Kelvin
 Total                  114.851             49.594            113.634
 Electronic               0.000              0.000              0.000
 Translational            0.889              2.981             41.958
 Rotational               0.889              2.981             32.335
 Vibrational            113.073             43.632             39.340
 Vibration     1          0.594              1.983              5.728
 Vibration     2          0.595              1.979              4.990
 Vibration     3          0.600              1.963              3.888
 Vibration     4          0.607              1.940              3.237
 Vibration     5          0.619              1.900              2.643
 Vibration     6          0.635              1.847              2.182
 Vibration     7          0.639              1.836              2.106
 Vibration     8          0.667              1.751              1.681
 Vibration     9          0.709              1.626              1.287
 Vibration    10          0.723              1.586              1.189
 Vibration    11          0.762              1.480              0.980
 Vibration    12          0.777              1.443              0.917
 Vibration    13          0.782              1.429              0.896
 Vibration    14          0.801              1.380              0.823
 Vibration    15          0.824              1.325              0.748
 Vibration    16          0.870              1.217              0.622
 Vibration    17          0.912              1.125              0.531
 Vibration    18          0.971              1.008              0.430

 Optimization completed.
    -- Stationary point found.
 Normal termination of Gaussian 16 at Thu Dec 21 04:55:59 2023.
