 Q-Chem 5.4, Q-Chem, Inc., Pleasanton, CA (2021)
 Q-Chem 5.4.0 for Intel X86 EM64T Linux

User input:
--------------------------------------------------------------
$molecule
0 1
C                  4.7147890000     -0.7115710000      0.8832070000
O                  4.2589410000      0.3487950000      0.0444690000
C                  2.9268400000      0.5001360000     -0.1509800000
C                  2.5508180000      1.5656760000     -0.9890390000
C                  1.2163620000      1.8038460000     -1.2512350000
C                  0.2184560000      0.9921600000     -0.6896410000
C                 -1.2064340000      1.2731100000     -0.9902280000
O                 -1.5381480000      2.1972860000     -1.7177570000
C                 -2.2296270000      0.3787760000     -0.3667430000
C                 -3.5831020000      0.6115360000     -0.6259260000
C                 -4.5545280000     -0.2054060000     -0.0585960000
C                 -4.1820810000     -1.2640950000      0.7742070000
C                 -2.8386040000     -1.5033910000      1.0378090000
C                 -1.8549130000     -0.6865640000      0.4712930000
C                 -0.4208780000     -0.9651920000      0.7705340000
O                 -0.0906390000     -1.8887650000      1.4974230000
C                  0.5989010000     -0.0693860000      0.1457080000
C                  1.9479470000     -0.3159370000      0.4151420000
H                  4.4188350000     -1.6863890000      0.4839580000
H                  4.3339910000     -0.6004600000      1.9029680000
H                  5.8001810000     -0.6347250000      0.8893400000
H                  3.3293550000      2.1856080000     -1.4169680000
H                  0.9146150000      2.6209320000     -1.8948060000
H                 -3.8489350000      1.4373910000     -1.2741100000
H                 -5.6029430000     -0.0200730000     -0.2632020000
H                 -4.9412330000     -1.8998420000      1.2155380000
H                 -2.5270050000     -2.3178170000      1.6800380000
H                  2.1890380000     -1.1456380000      1.0646710000
$end
$rem
MAX_SCF_CYCLES=200
BASIS  =  6-311++G(d,p)
GUI  =  2
JOB_TYPE  =  SP
METHOD  =  B3LYP
SOLVENT_METHOD = COSMO
$end
$solvent
dielectric 37.219
opticaldielectric 1.43
$end

--------------------------------------------------------------

             Standard Nuclear Orientation (Angstroms)
    I     Atom           X                Y                Z
 ----------------------------------------------------------------
    1      C       4.7705055542    -1.4493622449    -0.0002704283
    2      O       4.3877566855    -0.0748957561    -0.0000249027
    3      C       3.0689941113     0.2356887715     0.0000660299
    4      C       2.7662391411     1.6095338620     0.0002035312
    5      C       1.4510264042     2.0296052415     0.0001886967
    6      C       0.4002533554     1.0990600450     0.0001154727
    7      C      -1.0022802215     1.5812389395    -0.0000813624
    8      O      -1.2704362046     2.7735166979    -0.0002163657
    9      C      -2.0838976366     0.5489625568    -0.0000498523
   10      C      -3.4184533357     0.9639429259    -0.0000573248
   11      C      -4.4431636273     0.0243180799    -0.0000291449
   12      C      -4.1435089521    -1.3407119851    -0.0000058394
   13      C      -2.8193723900    -1.7630168562     0.0000123499
   14      C      -1.7824330712    -0.8246397691    -0.0000220854
   15      C      -0.3706182381    -1.3046543372     0.0000831098
   16      O      -0.1038933341    -2.4959856611     0.0001466399
   17      C       0.7076929802    -0.2702124377     0.0000438046
   18      C       2.0368925253    -0.7021102899     0.0000181016
   19      H       4.4035452318    -1.9616501355    -0.8947870051
   20      H       4.4035750551    -1.9619755333     0.8940756421
   21      H       5.8586308656    -1.4507839887    -0.0002535598
   22      H       3.5851163071     2.3187580554     0.0002699263
   23      H       1.2054927610     3.0843932038     0.0001974558
   24      H      -3.6275596965     2.0265438349    -0.0000871450
   25      H      -5.4765813639     0.3520889298    -0.0000237127
   26      H      -4.9441195505    -2.0716577606     0.0000346999
   27      H      -2.5638280798    -2.8154135660     0.0000868035
   28      H       2.2210517008    -1.7672402986    -0.0000464304
 ----------------------------------------------------------------

    9    -803.5136515482      3.13e-06  Convergence criterion met
 Total energy in the final basis set =     -803.5136515482
    5    -803.5299586562      2.78e-06  Convergence criterion met
 Total energy in the final basis set =     -803.5299586562

                    Orbital Energies (a.u.)
 --------------------------------------------------------------

 Alpha MOs
 -- Occupied --
-19.1748 -19.1339 -19.1289 -10.2854 -10.2814 -10.2622 -10.2244 -10.2117
-10.2076 -10.2070 -10.2022 -10.1982 -10.1962 -10.1960 -10.1956 -10.1953
-10.1950 -10.1946  -1.0901  -1.0687  -1.0637  -0.8933  -0.8808  -0.8124
 -0.7804  -0.7766  -0.7741  -0.7208  -0.6895  -0.6580  -0.6394  -0.6154
 -0.5880  -0.5630  -0.5616  -0.5204  -0.5113  -0.4973  -0.4863  -0.4820
 -0.4620  -0.4590  -0.4546  -0.4544  -0.4491  -0.4479  -0.4255  -0.4204
 -0.4173  -0.3978  -0.3820  -0.3805  -0.3769  -0.3666  -0.3519  -0.3394
 -0.2899  -0.2865  -0.2800  -0.2771  -0.2765  -0.2505

          Ground-State Mulliken Net Atomic Charges

     Atom                 Charge (a.u.)
  ----------------------------------------
      1 C                    -0.375519
      2 O                    -0.192586
      3 C                    -0.694082
      4 C                    -0.414962
      5 C                     0.214472
      6 C                     0.178900
      7 C                    -0.652768
      8 O                    -0.308636
      9 C                     0.004377
     10 C                     0.226194
     11 C                    -0.468549
     12 C                    -0.455407
     13 C                     0.172503
     14 C                     0.316508
     15 C                    -0.683549
     16 O                    -0.290655
     17 C                     0.712811
     18 C                     0.637513
     19 H                     0.187504
     20 H                     0.187426
     21 H                     0.210622
     22 H                     0.248180
     23 H                     0.208424
     24 H                     0.199317
     25 H                     0.225359
     26 H                     0.227128
     27 H                     0.199215
     28 H                     0.180259
  ----------------------------------------
  Sum of atomic charges =     0.000000

                    Cartesian Multipole Moments
 -----------------------------------------------------------------
    Charge (ESU x 10^10)
                -0.0000
    Dipole Moment (Debye)
         X       0.6341      Y      -2.2041      Z      -0.0008
       Tot       2.2935
    Quadrupole Moments (Debye-Ang)
        XX     -70.5529     XY       0.6819     YY    -112.6746
        XZ      -0.0027     YZ       0.0030     ZZ    -105.9417

 Total job time:  60.30s(wall), 445.06s(cpu)
        *  Thank you very much for using Q-Chem.  Have a nice day.  *
