 Q-Chem 5.4, Q-Chem, Inc., Pleasanton, CA (2021)
 Q-Chem 5.4.0 for Intel X86 EM64T Linux

User input:
--------------------------------------------------------------
$molecule
0 1
C                  0.6663020000      1.2416750000     -1.4506380000
C                 -0.7682650000      0.9529790000     -1.7370600000
C                 -1.5348930000      0.2465000000     -0.8986380000
C                 -0.9929900000     -0.2920570000      0.3814170000
C                  0.4580310000     -0.0604920000      0.6349470000
C                  1.2257110000      0.6424010000     -0.2055350000
O                  1.3133230000      1.9467770000     -2.1970990000
O                 -1.6760850000     -0.8721720000      1.1998580000
S                  3.0175400000      0.7683970000      0.1636720000
C                  3.3412180000      2.5247400000      0.3643990000
C                  3.7483070000      3.2723410000     -0.7387850000
C                  3.2151800000      3.0867440000      1.6346590000
C                  3.4904390000      4.4420820000      1.7954920000
C                  4.0252430000      4.6250910000     -0.5596820000
C                  3.8934990000      5.2074340000      0.7010180000
O                  3.7286320000      0.2748940000     -1.0132670000
O                  3.1776830000      0.1295560000      1.4736890000
H                  3.8429910000      2.7998880000     -1.7069310000
H                  2.9294320000      2.4683230000      2.4761550000
H                  4.3472750000      5.2220500000     -1.4046710000
H                  3.4028440000      4.8954620000      2.7757910000
H                  4.1110230000      6.2613190000      0.8324710000
S                 -3.2542690000     -0.1308870000     -1.4126540000
C                 -4.3028740000      0.6257060000     -0.1645730000
C                 -4.7182750000      1.9442090000     -0.3499210000
C                 -4.7085260000     -0.1307720000      0.9330970000
C                 -5.5461810000      0.4604800000      1.8751480000
C                 -5.5511000000      2.5223620000      0.6043970000
C                 -5.9623720000      1.7819470000      1.7128820000
H                 -1.1632520000      1.3531780000     -2.6649180000
H                  0.8614000000     -0.4897730000      1.5460490000
H                 -4.4115890000      2.4914230000     -1.2323770000
H                 -4.3730380000     -1.1534080000      1.0387250000
H                 -5.8758270000     -0.1131480000      2.7332600000
H                 -5.8881330000      3.5440790000      0.4751060000
H                 -6.6145350000      2.2353130000      2.4507250000
O                 -3.4042010000     -1.5830760000     -1.3573300000
O                 -3.4428590000      0.6070030000     -2.6655680000
$end
$rem
MAX_SCF_CYCLES=200
BASIS  =  6-311++G(d,p)
GUI  =  2
JOB_TYPE  =  SP
METHOD  =  B3LYP
SOLVENT_METHOD = PCM
$end
$pcm
theory = CPCM
$end
$solvent
dielectric 37.219
opticaldielectric 1.43
$end

--------------------------------------------------------------

             Standard Nuclear Orientation (Angstroms)
    I     Atom           X                Y                Z
 ----------------------------------------------------------------
    1      C       0.6663020000     1.2416750000    -1.4506380000
    2      C      -0.7682650000     0.9529790000    -1.7370600000
    3      C      -1.5348930000     0.2465000000    -0.8986380000
    4      C      -0.9929900000    -0.2920570000     0.3814170000
    5      C       0.4580310000    -0.0604920000     0.6349470000
    6      C       1.2257110000     0.6424010000    -0.2055350000
    7      O       1.3133230000     1.9467770000    -2.1970990000
    8      O      -1.6760850000    -0.8721720000     1.1998580000
    9      S       3.0175400000     0.7683970000     0.1636720000
   10      C       3.3412180000     2.5247400000     0.3643990000
   11      C       3.7483070000     3.2723410000    -0.7387850000
   12      C       3.2151800000     3.0867440000     1.6346590000
   13      C       3.4904390000     4.4420820000     1.7954920000
   14      C       4.0252430000     4.6250910000    -0.5596820000
   15      C       3.8934990000     5.2074340000     0.7010180000
   16      O       3.7286320000     0.2748940000    -1.0132670000
   17      O       3.1776830000     0.1295560000     1.4736890000
   18      H       3.8429910000     2.7998880000    -1.7069310000
   19      H       2.9294320000     2.4683230000     2.4761550000
   20      H       4.3472750000     5.2220500000    -1.4046710000
   21      H       3.4028440000     4.8954620000     2.7757910000
   22      H       4.1110230000     6.2613190000     0.8324710000
   23      S      -3.2542690000    -0.1308870000    -1.4126540000
   24      C      -4.3028740000     0.6257060000    -0.1645730000
   25      C      -4.7182750000     1.9442090000    -0.3499210000
   26      C      -4.7085260000    -0.1307720000     0.9330970000
   27      C      -5.5461810000     0.4604800000     1.8751480000
   28      C      -5.5511000000     2.5223620000     0.6043970000
   29      C      -5.9623720000     1.7819470000     1.7128820000
   30      H      -1.1632520000     1.3531780000    -2.6649180000
   31      H       0.8614000000    -0.4897730000     1.5460490000
   32      H      -4.4115890000     2.4914230000    -1.2323770000
   33      H      -4.3730380000    -1.1534080000     1.0387250000
   34      H      -5.8758270000    -0.1131480000     2.7332600000
   35      H      -5.8881330000     3.5440790000     0.4751060000
   36      H      -6.6145350000     2.2353130000     2.4507250000
   37      O      -3.4042010000    -1.5830760000    -1.3573300000
   38      O      -3.4428590000     0.6070030000    -2.6655680000
 ----------------------------------------------------------------

    9   -1941.0689217794      4.28e-06  Convergence criterion met
 Total energy in the final basis set =    -1941.0689217794

                    Orbital Energies (a.u.)
 --------------------------------------------------------------

 Alpha MOs
 -- Occupied --
-89.0798 -89.0798 -19.1691 -19.1691 -19.1456 -19.1456 -19.1439 -19.1439
-10.3207 -10.3207 -10.2591 -10.2591 -10.2452 -10.2452 -10.2284 -10.2284
-10.2056 -10.2056 -10.2045 -10.2045 -10.1973 -10.1973 -10.1951 -10.1950
-10.1948 -10.1948  -8.1435  -8.1435  -6.1062  -6.1062  -6.1055  -6.1055
 -6.1044  -6.1044  -1.1413  -1.1411  -1.1028  -1.1012  -1.0382  -1.0381
 -0.9001  -0.8892  -0.8887  -0.8411  -0.7963  -0.7925  -0.7743  -0.7742
 -0.7475  -0.7264  -0.6894  -0.6588  -0.6509  -0.6332  -0.6331  -0.6143
 -0.5949  -0.5674  -0.5607  -0.5558  -0.5390  -0.5318  -0.5066  -0.5019
 -0.4994  -0.4954  -0.4925  -0.4834  -0.4771  -0.4766  -0.4705  -0.4702
 -0.4636  -0.4633  -0.4493  -0.4484  -0.4471  -0.4432  -0.3989  -0.3986
 -0.3913  -0.3908  -0.3725  -0.3706  -0.3705  -0.3684  -0.3596  -0.3585
 -0.3459  -0.3457  -0.3382  -0.3365  -0.3296  -0.3270  -0.3188  -0.3003
 -0.2858  -0.2853  -0.2797  -0.2792

          Ground-State Mulliken Net Atomic Charges

     Atom                 Charge (a.u.)
  ----------------------------------------
      1 C                    -0.431265
      2 C                    -0.399400
      3 C                     0.308648
      4 C                    -0.431621
      5 C                    -0.401859
      6 C                     0.314087
      7 O                    -0.181273
      8 O                    -0.181427
      9 S                     0.507240
     10 C                     0.544996
     11 C                    -0.270254
     12 C                    -0.017382
     13 C                    -0.544738
     14 C                    -0.416220
     15 C                    -0.320722
     16 O                    -0.154561
     17 O                    -0.198363
     18 H                     0.289160
     19 H                     0.270885
     20 H                     0.237904
     21 H                     0.233201
     22 H                     0.215822
     23 S                     0.515824
     24 C                     0.545970
     25 C                    -0.012234
     26 C                    -0.275426
     27 C                    -0.418310
     28 C                    -0.544390
     29 C                    -0.321804
     30 H                     0.322069
     31 H                     0.322035
     32 H                     0.271072
     33 H                     0.289250
     34 H                     0.237922
     35 H                     0.233152
     36 H                     0.216084
     37 O                    -0.154800
     38 O                    -0.199282
  ----------------------------------------
  Sum of atomic charges =    -0.000009

                    Cartesian Multipole Moments
 -----------------------------------------------------------------
    Charge (ESU x 10^10)
                -0.0000
    Dipole Moment (Debye)
         X      -2.7946      Y       9.6852      Z       5.5832
       Tot      11.5232
    Quadrupole Moments (Debye-Ang)
        XX    -165.9877     XY      -0.0027     YY    -134.7583
        XZ     -18.0225     YZ       6.1853     ZZ    -170.1651

 Total job time:  116.64s(wall), 798.30s(cpu)
        *  Thank you very much for using Q-Chem.  Have a nice day.  *
