 Gaussian 16, Revision A.03,
 Gaussian 16:  ES64L-G16RevA.03 25-Dec-2016

 ----------------------------------------------------------------
 #P UB3LYP/6-311++G(d,p) SCRF=(PCM,Solvent=n,n-DiMethylFormamide)
 ----------------------------------------------------------------

 ------------------
 Radical PCM in DMF
 ------------------
 Symbolic Z-matrix:
 Charge = -1 Multiplicity = 2

                         Standard orientation:
 ---------------------------------------------------------------------
 Center     Atomic      Atomic             Coordinates (Angstroms)
 Number     Number       Type             X           Y           Z
 ---------------------------------------------------------------------
      1          7           0        3.748463    1.569301    0.143517
      2          6           0        3.127021    0.336751    0.039705
      3          6           0        3.891506   -0.830709   -0.003846
      4          6           0        3.278825   -2.089840   -0.041413
      5          6           0        1.902148   -2.202686   -0.031501
      6          6           0        1.092794   -1.049403   -0.002703
      7          6           0       -0.367529   -1.254429   -0.010422
      8          8           0       -0.836151   -2.413015   -0.028163
      9          6           0       -1.207257   -0.050190   -0.001959
     10          6           0       -2.629693   -0.067512    0.007277
     11         17           0       -3.574708   -1.568358    0.038481
     12          6           0       -3.388898    1.086591   -0.001767
     13          6           0       -2.758851    2.343588   -0.021104
     14          6           0       -1.384176    2.414369   -0.027185
     15          6           0       -0.591856    1.247852   -0.014782
     16          6           0        0.860933    1.435192   -0.013734
     17          8           0        1.340162    2.611577   -0.051711
     18          6           0        1.692114    0.244607    0.020786
     19          1           0        4.691161    1.625573   -0.208329
     20          1           0        3.118600    2.355821   -0.023105
     21          1           0        4.975266   -0.748422    0.010751
     22          1           0        3.897938   -2.982027   -0.071719
     23          1           0        1.405917   -3.163985   -0.051238
     24          1           0       -4.468940    1.007755    0.007174
     25          1           0       -3.361782    3.246066   -0.028374
     26          1           0       -0.861940    3.362608   -0.039076
 ---------------------------------------------------------------------

 SCF Done:  E(UB3LYP) =  -1204.08943116     A.U. after   20 cycles

 The electronic state is 2-A.
 Alpha  occ. eigenvalues -- -101.54591 -19.07939 -19.07327 -14.30527 -10.23738
 Alpha  occ. eigenvalues --  -10.22960 -10.22824 -10.21699 -10.18842 -10.18078
 Alpha  occ. eigenvalues --  -10.17992 -10.17769 -10.17364 -10.17278 -10.17180
 Alpha  occ. eigenvalues --  -10.17138 -10.16263 -10.15671  -9.46076  -7.22525
 Alpha  occ. eigenvalues --   -7.21600  -7.21490  -1.00734  -1.00475  -0.91329
 Alpha  occ. eigenvalues --   -0.88609  -0.84418  -0.83003  -0.78636  -0.74371
 Alpha  occ. eigenvalues --   -0.73929  -0.72790  -0.66750  -0.63899  -0.62727
 Alpha  occ. eigenvalues --   -0.58210  -0.55482  -0.54965  -0.52933  -0.49857
 Alpha  occ. eigenvalues --   -0.47886  -0.47681  -0.46618  -0.45000  -0.44112
 Alpha  occ. eigenvalues --   -0.43031  -0.42892  -0.41727  -0.41216  -0.39929
 Alpha  occ. eigenvalues --   -0.39338  -0.37981  -0.37902  -0.36237  -0.35850
 Alpha  occ. eigenvalues --   -0.35249  -0.34521  -0.32851  -0.31389  -0.30910
 Alpha  occ. eigenvalues --   -0.27133  -0.25195  -0.25157  -0.24815  -0.23209
 Alpha  occ. eigenvalues --   -0.21194  -0.14049
 Alpha virt. eigenvalues --   -0.05228  -0.02571  -0.00228   0.00099   0.00463
 Alpha virt. eigenvalues --    0.00808   0.01428   0.02214   0.02929   0.03993
 Alpha virt. eigenvalues --    0.04414   0.04475   0.04705   0.05178   0.06003

  Beta  occ. eigenvalues -- -101.54589 -19.07444 -19.06770 -14.30504 -10.23726
  Beta  occ. eigenvalues --  -10.22772 -10.22666 -10.21696 -10.18758 -10.18032
  Beta  occ. eigenvalues --  -10.17884 -10.17695 -10.17364 -10.17201 -10.17190
  Beta  occ. eigenvalues --  -10.17099 -10.16177 -10.15637  -9.46073  -7.22525
  Beta  occ. eigenvalues --   -7.21591  -7.21490  -0.99842  -0.99534  -0.91245
  Beta  occ. eigenvalues --   -0.88476  -0.84200  -0.82896  -0.78264  -0.74191
  Beta  occ. eigenvalues --   -0.73660  -0.72612  -0.66070  -0.63701  -0.62488
  Beta  occ. eigenvalues --   -0.58126  -0.55258  -0.54741  -0.52814  -0.49766
  Beta  occ. eigenvalues --   -0.47754  -0.47378  -0.46516  -0.44895  -0.43989
  Beta  occ. eigenvalues --   -0.42987  -0.41830  -0.41510  -0.40779  -0.39696
  Beta  occ. eigenvalues --   -0.38816  -0.37770  -0.36128  -0.36028  -0.35255
  Beta  occ. eigenvalues --   -0.34997  -0.34324  -0.32239  -0.31322  -0.30305
  Beta  occ. eigenvalues --   -0.25263  -0.24647  -0.24454  -0.24369  -0.22730
  Beta  occ. eigenvalues --   -0.20463
  Beta virt. eigenvalues --   -0.08410  -0.04246  -0.01506  -0.00213   0.00415
  Beta virt. eigenvalues --    0.00495   0.00826   0.01439   0.02230   0.02942
  Beta virt. eigenvalues --    0.04025   0.04435   0.04532   0.05197   0.05327

 Mulliken charges and spin densities:
               1          2
     1  N   -0.409381   0.009672
     2  C    0.094829   0.027106
     3  C   -0.203005   0.074339
     4  C   -0.478418   0.031047
     5  C    0.063089   0.058952
     6  C    0.308514   0.048749
     7  C   -1.507580   0.075435
     8  O   -0.341799   0.207058
     9  C   -0.239003   0.048983
    10  C    0.958324   0.031228
    11  Cl   0.339191   0.000334
    12  C   -0.070378   0.039116
    13  C   -0.676680   0.057089
    14  C    0.512572   0.030098
    15  C    0.291410   0.047018
    16  C   -0.965523   0.089790
    17  O   -0.438370   0.182321
    18  C    0.114991  -0.035654
    19  H    0.262258  -0.000609
    20  H    0.314749  -0.002836
    21  H    0.162793  -0.005338
    22  H    0.183320  -0.002528
    23  H    0.158814  -0.003715
    24  H    0.199691  -0.003042
    25  H    0.184168  -0.004455
    26  H    0.181424  -0.000156
 Sum of Mulliken charges =  -1.00000   1.00000

 Dipole moment (field-independent basis, Debye):
    X=              1.5475    Y=              2.7146    Z=             -0.7828  Tot=              3.2213
 Quadrupole moment (field-independent basis, Debye-Ang):
   XX=           -115.4153   YY=           -138.0793   ZZ=           -119.0255
   XY=            -15.0665   XZ=             -3.8488   YZ=             -1.4866

 Normal termination of Gaussian 16 at Sun Jan 14 01:16:44 2024.
