 Q-Chem 5.4, Q-Chem, Inc., Pleasanton, CA (2021)
 Q-Chem 5.4.0 for Intel X86 EM64T Linux

User input:
--------------------------------------------------------------
$molecule
-3 2
O                  5.8692480000     -1.6302070000      1.2351700000
S                  5.4620870000     -0.8802640000      0.0068830000
O                  6.2065870000      0.4080810000     -0.1441050000
O                  5.4658640000     -1.7153870000     -1.2262980000
C                  3.7230970000     -0.3968030000      0.2958720000
C                  3.4350770000      0.4140040000      1.4186780000
C                  2.1371040000      0.8005920000      1.6730560000
C                  1.0652680000      0.4078500000      0.8359750000
C                 -0.2946550000      0.8522450000      1.1603600000
O                 -0.5297340000      1.5749080000      2.1663390000
C                 -1.3564820000      0.4094090000      0.2519870000
C                 -2.7007430000      0.7967280000      0.4962260000
C                 -3.7230910000      0.3968070000     -0.3395290000
C                 -3.4350760000     -0.4140020000     -1.4623260000
C                 -2.1370990000     -0.8005930000     -1.7167020000
C                 -1.0652690000     -0.4078510000     -0.8796220000
C                  0.2946600000     -0.8522440000     -1.2040080000
O                  0.5297360000     -1.5749030000     -2.2099900000
C                  1.3564830000     -0.4094050000     -0.2956360000
C                  2.7007470000     -0.7967200000     -0.5398790000
S                 -5.4620950000      0.8802580000     -0.0505240000
O                 -5.8693090000      1.6300850000     -1.2788600000
O                 -6.2065650000     -0.4080880000      0.1005980000
O                 -5.4658510000      1.7154890000      1.1825830000
H                  4.2457940000      0.7230320000      2.0690540000
H                  1.8943410000      1.4221040000      2.5282490000
H                 -2.9122640000      1.4171390000      1.3576120000
H                 -4.2457890000     -0.7230290000     -2.1127060000
H                 -1.8943370000     -1.4221070000     -2.5718940000
H                  2.9122640000     -1.4171260000     -1.4012700000
$end
$rem
MAX_SCF_CYCLES=200
BASIS  =  6-311++G(d,p)
GUI  =  2
JOB_TYPE  =  SP
METHOD  =  B3LYP
SOLVENT_METHOD = PCM
$end
$pcm
theory = CPCM
$end
$solvent
dielectric 37.219
opticaldielectric 1.43
$end

--------------------------------------------------------------

             Standard Nuclear Orientation (Angstroms)
    I     Atom           X                Y                Z
 ----------------------------------------------------------------
    1      O       5.8692480000    -1.6302070000     1.2351700000
    2      S       5.4620870000    -0.8802640000     0.0068830000
    3      O       6.2065870000     0.4080810000    -0.1441050000
    4      O       5.4658640000    -1.7153870000    -1.2262980000
    5      C       3.7230970000    -0.3968030000     0.2958720000
    6      C       3.4350770000     0.4140040000     1.4186780000
    7      C       2.1371040000     0.8005920000     1.6730560000
    8      C       1.0652680000     0.4078500000     0.8359750000
    9      C      -0.2946550000     0.8522450000     1.1603600000
   10      O      -0.5297340000     1.5749080000     2.1663390000
   11      C      -1.3564820000     0.4094090000     0.2519870000
   12      C      -2.7007430000     0.7967280000     0.4962260000
   13      C      -3.7230910000     0.3968070000    -0.3395290000
   14      C      -3.4350760000    -0.4140020000    -1.4623260000
   15      C      -2.1370990000    -0.8005930000    -1.7167020000
   16      C      -1.0652690000    -0.4078510000    -0.8796220000
   17      C       0.2946600000    -0.8522440000    -1.2040080000
   18      O       0.5297360000    -1.5749030000    -2.2099900000
   19      C       1.3564830000    -0.4094050000    -0.2956360000
   20      C       2.7007470000    -0.7967200000    -0.5398790000
   21      S      -5.4620950000     0.8802580000    -0.0505240000
   22      O      -5.8693090000     1.6300850000    -1.2788600000
   23      O      -6.2065650000    -0.4080880000     0.1005980000
   24      O      -5.4658510000     1.7154890000     1.1825830000
   25      H       4.2457940000     0.7230320000     2.0690540000
   26      H       1.8943410000     1.4221040000     2.5282490000
   27      H      -2.9122640000     1.4171390000     1.3576120000
   28      H      -4.2457890000    -0.7230290000    -2.1127060000
   29      H      -1.8943370000    -1.4221070000    -2.5718940000
   30      H       2.9122640000    -1.4171260000    -1.4012700000
 ----------------------------------------------------------------

    8   -1936.0389656393      8.36e-06  Convergence criterion met
 Total energy in the final basis set =    -1936.0389656393

                    Orbital Energies (a.u.)
 --------------------------------------------------------------

 Alpha MOs
 -- Occupied --
-89.0434 -89.0434 -19.0898 -19.0898 -19.0877 -19.0877 -19.0877 -19.0877
-19.0794 -19.0794 -10.2295 -10.2295 -10.1959 -10.1959 -10.1797 -10.1797
-10.1786 -10.1786 -10.1781 -10.1781 -10.1779 -10.1779 -10.1735 -10.1735
 -8.1022  -8.1022  -6.0650  -6.0650  -6.0648  -6.0648  -6.0638  -6.0638
 -1.1041  -1.1041  -1.0048  -1.0023  -0.9701  -0.9701  -0.9657  -0.9657
 -0.8669  -0.8578  -0.7943  -0.7592  -0.7549  -0.7493  -0.6760  -0.6639
 -0.6306  -0.6173  -0.5860  -0.5736  -0.5581  -0.5338  -0.5182  -0.4935
 -0.4775  -0.4717  -0.4685  -0.4508  -0.4506  -0.4502  -0.4436  -0.4313
 -0.4312  -0.4256  -0.4245  -0.4156  -0.4125  -0.4002  -0.3826  -0.3750
 -0.3729  -0.3552  -0.3516  -0.3392  -0.3323  -0.3319  -0.3318  -0.3316
 -0.3016  -0.2997  -0.2939  -0.2939  -0.2899  -0.2886  -0.2658  -0.2600
 -0.2587  -0.2539  -0.2538  -0.2499  -0.2465  -0.2411  -0.1466

 Beta MOs
 -- Occupied --
-89.0434 -89.0434 -19.0898 -19.0898 -19.0877 -19.0877 -19.0877 -19.0877
-19.0742 -19.0742 -10.2277 -10.2277 -10.1955 -10.1955 -10.1791 -10.1790
-10.1785 -10.1785 -10.1773 -10.1773 -10.1772 -10.1772 -10.1735 -10.1735
 -8.1022  -8.1022  -6.0650  -6.0650  -6.0649  -6.0649  -6.0639  -6.0639
 -1.1040  -1.1040  -0.9955  -0.9927  -0.9700  -0.9700  -0.9657  -0.9657
 -0.8644  -0.8566  -0.7903  -0.7568  -0.7536  -0.7473  -0.6690  -0.6623
 -0.6286  -0.6158  -0.5852  -0.5727  -0.5554  -0.5319  -0.5172  -0.4925
 -0.4756  -0.4709  -0.4666  -0.4505  -0.4504  -0.4498  -0.4432  -0.4307
 -0.4304  -0.4251  -0.4118  -0.4111  -0.4102  -0.3979  -0.3718  -0.3711
 -0.3593  -0.3548  -0.3426  -0.3377  -0.3322  -0.3318  -0.3314  -0.3311
 -0.3004  -0.2939  -0.2938  -0.2935  -0.2895  -0.2881  -0.2579  -0.2538
 -0.2538  -0.2496  -0.2470  -0.2451  -0.2416  -0.2363

          Ground-State Mulliken Net Atomic Charges

     Atom                 Charge (a.u.)    Spin (a.u.)
  --------------------------------------------------------
      1 O                    -0.390560      -0.000661
      2 S                     0.796087       0.002337
      3 O                    -0.390880      -0.000654
      4 O                    -0.431027       0.000228
      5 C                    -0.836125       0.022419
      6 C                    -0.604300       0.049760
      7 C                    -0.167123       0.020402
      8 C                     0.471313       0.043832
      9 C                    -0.612483       0.101053
     10 O                    -0.462377       0.201155
     11 C                     0.243355       0.044280
     12 C                     0.254861       0.022305
     13 C                    -0.836220       0.022416
     14 C                    -0.604361       0.049760
     15 C                    -0.167075       0.020403
     16 C                     0.471390       0.043828
     17 C                    -0.612416       0.101050
     18 O                    -0.462375       0.201153
     19 C                     0.243374       0.044284
     20 C                     0.254891       0.022302
     21 S                     0.796092       0.002337
     22 O                    -0.390568      -0.000661
     23 O                    -0.390868      -0.000654
     24 O                    -0.431025       0.000228
     25 H                     0.243493      -0.003672
     26 H                     0.172238      -0.001329
     27 H                     0.213474      -0.001450
     28 H                     0.243494      -0.003672
     29 H                     0.172236      -0.001329
     30 H                     0.213477      -0.001449
  --------------------------------------------------------
  Sum of atomic charges =    -3.000008

                    Cartesian Multipole Moments
 -----------------------------------------------------------------
    Charge (ESU x 10^10)
               -14.4096
    Dipole Moment (Debye)
         X      -0.0000      Y       0.0001      Z       0.3144
       Tot       0.3144
    Quadrupole Moments (Debye-Ang)
        XX    -542.5736     XY      66.0837     YY    -197.5944
        XZ       8.9531     YZ     -12.1184     ZZ    -194.1258

 Total job time:  83.44s(wall), 613.94s(cpu)
        *  Thank you very much for using Q-Chem.  Have a nice day.  *
