 Gaussian 16, Revision A.03,
 Gaussian 16:  ES64L-G16RevA.03 25-Dec-2016

 ----------------------------------------------------------------
 #P UB3LYP/6-311++G(d,p) SCRF=(PCM,Solvent=n,n-DiMethylFormamide)
 ----------------------------------------------------------------

 ------------------
 Radical PCM in DMF
 ------------------
 Symbolic Z-matrix:
 Charge = -3 Multiplicity = 2

                         Standard orientation:
 ---------------------------------------------------------------------
 Center     Atomic      Atomic             Coordinates (Angstroms)
 Number     Number       Type             X           Y           Z
 ---------------------------------------------------------------------
      1          8           0       -6.077217   -0.453594    1.243936
      2         16           0       -5.529993    0.171098    0.000075
      3          8           0       -6.079007   -0.459208   -1.240170
      4          8           0       -5.614250    1.658065   -0.003204
      5          6           0       -3.749731   -0.243635   -0.000354
      6          6           0       -3.384294   -1.610205   -0.000282
      7          6           0       -2.053055   -1.966150   -0.000141
      8          6           0       -1.022526   -0.995690   -0.000046
      9          6           0        0.376052   -1.438501    0.000094
     10          8           0        0.680200   -2.662017    0.000155
     11          6           0        1.391766   -0.381596    0.000164
     12          6           0        2.769218   -0.727042    0.000305
     13          6           0        3.749724    0.243641    0.000342
     14          6           0        3.384291    1.610205    0.000277
     15          6           0        2.053048    1.966149    0.000139
     16          6           0        1.022525    0.995691    0.000045
     17          6           0       -0.376059    1.438501   -0.000099
     18          8           0       -0.680203    2.662018   -0.000165
     19          6           0       -1.391768    0.381596   -0.000172
     20          6           0       -2.769222    0.727043   -0.000318
     21         16           0        5.529998   -0.171099   -0.000069
     22          8           0        6.077259    0.453701   -1.243854
     23          8           0        6.078978    0.459095    1.240248
     24          8           0        5.614252   -1.658065    0.003078
     25          1           0       -4.162600   -2.365181   -0.000562
     26          1           0       -1.751013   -3.007945   -0.000170
     27          1           0        3.040002   -1.775046    0.000412
     28          1           0        4.162594    2.365184    0.000554
     29          1           0        1.751007    3.007945    0.000170
     30          1           0       -3.040001    1.775049   -0.000431
 ---------------------------------------------------------------------

 SCF Done:  E(UB3LYP) =  -1936.02911611     A.U. after   19 cycles

 The electronic state is 2-A.
 Alpha  occ. eigenvalues --  -89.03926 -89.03926 -19.08550 -19.08550 -19.08337
 Alpha  occ. eigenvalues --  -19.08337 -19.08336 -19.08336 -19.07708 -19.07707
 Alpha  occ. eigenvalues --  -10.22676 -10.22674 -10.19416 -10.19416 -10.17781
 Alpha  occ. eigenvalues --  -10.17779 -10.17769 -10.17769 -10.17701 -10.17701
 Alpha  occ. eigenvalues --  -10.17612 -10.17611 -10.17278 -10.17278  -8.09803
 Alpha  occ. eigenvalues --   -8.09802  -6.06079  -6.06079  -6.06067  -6.06067
 Alpha  occ. eigenvalues --   -6.05970  -6.05970  -1.09963  -1.09962  -1.00222
 Alpha  occ. eigenvalues --   -0.99968  -0.96547  -0.96546  -0.96107  -0.96106
 Alpha  occ. eigenvalues --   -0.86534  -0.85636  -0.79254  -0.75752  -0.75365
 Alpha  occ. eigenvalues --   -0.74779  -0.67408  -0.66148  -0.62922  -0.61444
 Alpha  occ. eigenvalues --   -0.58441  -0.57101  -0.55597  -0.53264  -0.51456
 Alpha  occ. eigenvalues --   -0.48983  -0.47540  -0.46946  -0.46715  -0.44601
 Alpha  occ. eigenvalues --   -0.44588  -0.44577  -0.43944  -0.43029  -0.42891
 Alpha  occ. eigenvalues --   -0.42468  -0.42241  -0.41289  -0.41036  -0.39862
 Alpha  occ. eigenvalues --   -0.38011  -0.37340  -0.37084  -0.35438  -0.34943
 Alpha  occ. eigenvalues --   -0.33768  -0.32748  -0.32703  -0.32702  -0.32689
 Alpha  occ. eigenvalues --   -0.29752  -0.29595  -0.28935  -0.28932  -0.28588
 Alpha  occ. eigenvalues --   -0.28483  -0.26412  -0.25776  -0.25726  -0.24889
 Alpha  occ. eigenvalues --   -0.24881  -0.24699  -0.24433  -0.23833  -0.14462
 Alpha virt. eigenvalues --   -0.05663  -0.03028  -0.00685   0.00107   0.01003
 Alpha virt. eigenvalues --    0.01720   0.02593   0.02986   0.03789   0.04313
 Alpha virt. eigenvalues --    0.04579   0.04665   0.04989   0.05249   0.06133

  Beta  occ. eigenvalues --  -89.03927 -89.03927 -19.08548 -19.08548 -19.08334
  Beta  occ. eigenvalues --  -19.08334 -19.08334 -19.08333 -19.07144 -19.07143
  Beta  occ. eigenvalues --  -10.22511 -10.22510 -10.19369 -10.19369 -10.17729
  Beta  occ. eigenvalues --  -10.17728 -10.17710 -10.17710 -10.17681 -10.17680
  Beta  occ. eigenvalues --  -10.17520 -10.17520 -10.17284 -10.17284  -8.09803
  Beta  occ. eigenvalues --   -8.09803  -6.06080  -6.06080  -6.06068  -6.06068
  Beta  occ. eigenvalues --   -6.05972  -6.05972  -1.09959  -1.09958  -0.99241
  Beta  occ. eigenvalues --   -0.98962  -0.96543  -0.96542  -0.96102  -0.96101
  Beta  occ. eigenvalues --   -0.86277  -0.85522  -0.78856  -0.75518  -0.75243
  Beta  occ. eigenvalues --   -0.74578  -0.66707  -0.65997  -0.62715  -0.61300
  Beta  occ. eigenvalues --   -0.58372  -0.57010  -0.55333  -0.53086  -0.51358
  Beta  occ. eigenvalues --   -0.48890  -0.47338  -0.46869  -0.46530  -0.44569
  Beta  occ. eigenvalues --   -0.44556  -0.44549  -0.43902  -0.42985  -0.42808
  Beta  occ. eigenvalues --   -0.42405  -0.40988  -0.40842  -0.40787  -0.39596
  Beta  occ. eigenvalues --   -0.37034  -0.36899  -0.35651  -0.35395  -0.34003
  Beta  occ. eigenvalues --   -0.33601  -0.32737  -0.32693  -0.32675  -0.32639
  Beta  occ. eigenvalues --   -0.29629  -0.28938  -0.28929  -0.28928  -0.28553
  Beta  occ. eigenvalues --   -0.28433  -0.25663  -0.24885  -0.24877  -0.24793
  Beta  occ. eigenvalues --   -0.24400  -0.24182  -0.23951  -0.23319
  Beta virt. eigenvalues --   -0.08575  -0.04761  -0.01977  -0.00476   0.00125
  Beta virt. eigenvalues --    0.01004   0.01732   0.02613   0.02983   0.04445
  Beta virt. eigenvalues --    0.04475   0.04583   0.04694   0.04998   0.05287

 Mulliken charges and spin densities:
               1          2
     1  O   -0.379141  -0.000599
     2  S    0.763278   0.002050
     3  O   -0.379650  -0.000610
     4  O   -0.419668   0.000261
     5  C   -0.826205   0.021966
     6  C   -0.590323   0.049300
     7  C   -0.174870   0.018209
     8  C    0.482863   0.046189
     9  C   -0.656662   0.092162
    10  O   -0.444222   0.209195
    11  C    0.272194   0.046692
    12  C    0.254631   0.021485
    13  C   -0.826163   0.021963
    14  C   -0.590332   0.049300
    15  C   -0.174867   0.018208
    16  C    0.482857   0.046184
    17  C   -0.656674   0.092160
    18  O   -0.444220   0.209192
    19  C    0.272213   0.046697
    20  C    0.254646   0.021482
    21  S    0.763271   0.002050
    22  O   -0.379150  -0.000599
    23  O   -0.379642  -0.000610
    24  O   -0.419669   0.000261
    25  H    0.223289  -0.003695
    26  H    0.163327  -0.001234
    27  H    0.211135  -0.001364
    28  H    0.223288  -0.003695
    29  H    0.163328  -0.001234
    30  H    0.211135  -0.001364
 Sum of Mulliken charges =  -3.00000   1.00000

 Dipole moment (field-independent basis, Debye):
    X=              0.0001    Y=              0.0001    Z=             -0.0001  Tot=              0.0001
 Quadrupole moment (field-independent basis, Debye-Ang):
   XX=           -552.2480   YY=           -202.8039   ZZ=           -178.4703
   XY=             25.1242   XZ=              0.0149   YZ=              0.0039

 Normal termination of Gaussian 16 at Tue Jan 16 20:46:01 2024.
