 Gaussian 16, Revision A.03,
 Gaussian 16:  ES64L-G16RevA.03 25-Dec-2016

 --------------------------------------
 #P UB3LYP/6-311++G(d,p) nosym opt freq
 --------------------------------------

 --------
 Oxidized
 --------
 Symbolic Z-matrix:
 Charge =  0 Multiplicity = 1

 SCF Done:  E(UB3LYP) =  -916.859681282     A.U. after   16 cycles
 SCF Done:  E(UB3LYP) =  -916.885241076     A.U. after   16 cycles
 SCF Done:  E(UB3LYP) =  -916.890640206     A.U. after   15 cycles
 SCF Done:  E(UB3LYP) =  -916.891949014     A.U. after   13 cycles
 SCF Done:  E(UB3LYP) =  -916.891828297     A.U. after   13 cycles
 SCF Done:  E(UB3LYP) =  -916.892136407     A.U. after   12 cycles
 SCF Done:  E(UB3LYP) =  -916.892304349     A.U. after   12 cycles
 SCF Done:  E(UB3LYP) =  -916.892430890     A.U. after   13 cycles
 SCF Done:  E(UB3LYP) =  -916.892521183     A.U. after   13 cycles
 SCF Done:  E(UB3LYP) =  -916.892552282     A.U. after   11 cycles
 SCF Done:  E(UB3LYP) =  -916.892609776     A.U. after   13 cycles
 SCF Done:  E(UB3LYP) =  -916.892640653     A.U. after   12 cycles
 SCF Done:  E(UB3LYP) =  -916.892654028     A.U. after   11 cycles
 SCF Done:  E(UB3LYP) =  -916.892658448     A.U. after   11 cycles
 SCF Done:  E(UB3LYP) =  -916.892660501     A.U. after   10 cycles
 SCF Done:  E(UB3LYP) =  -916.892660823     A.U. after   10 cycles
 SCF Done:  E(UB3LYP) =  -916.892660917     A.U. after    9 cycles
 SCF Done:  E(UB3LYP) =  -916.892660955     A.U. after    9 cycles
 SCF Done:  E(UB3LYP) =  -916.892660995     A.U. after    9 cycles
 Optimization completed.
    -- Stationary point found.
 Normal termination of Gaussian 16 at Thu Dec 21 06:54:08 2023.

 ----------------------------------------------------------------------
 #P Geom=AllCheck Guess=TCheck SCRF=Check GenChk UB3LYP/6-311++G(d,p) F
 req
 ----------------------------------------------------------------------

 Structure from the checkpoint file:  "143.chk"
 --------
 Oxidized
 --------
 Charge =  0 Multiplicity = 1

                          Input orientation:
 ---------------------------------------------------------------------
 Center     Atomic      Atomic             Coordinates (Angstroms)
 Number     Number       Type             X           Y           Z
 ---------------------------------------------------------------------
      1          6           0        4.184895    1.588867    0.256009
      2          6           0        3.223929    0.510669    0.657264
      3          8           0        2.839717    0.256426    1.762658
      4          8           0        2.823179   -0.203695   -0.456792
      5          6           0        1.784385   -1.107039   -0.328339
      6          6           0        2.123056   -2.453291   -0.404607
      7          6           0        1.134000   -3.429531   -0.355540
      8          6           0       -0.198276   -3.057399   -0.230371
      9          6           0       -0.546204   -1.708272   -0.161218
     10          6           0       -2.001499   -1.378706   -0.042300
     11          8           0       -2.841398   -2.261752    0.016126
     12          6           0       -2.384926    0.056546   -0.004849
     13          6           0       -3.736849    0.401412    0.094926
     14          6           0       -4.113792    1.737882    0.127862
     15          6           0       -3.141913    2.740774    0.062337
     16          6           0       -1.797148    2.405278   -0.035296
     17          6           0       -1.407956    1.062074   -0.070600
     18          6           0        0.049183    0.741812   -0.167367
     19          8           0        0.867858    1.646195   -0.213869
     20          6           0        0.442138   -0.698745   -0.210366
     21          1           0        4.921455    1.208988   -0.453594
     22          1           0        4.674267    1.988931    1.141603
     23          1           0        3.615005    2.378833   -0.239344
     24          1           0        3.169642   -2.714803   -0.501446
     25          1           0        1.406123   -4.477040   -0.411865
     26          1           0       -0.989859   -3.794201   -0.187229
     27          1           0       -4.470306   -0.393667    0.144985
     28          1           0       -5.162099    2.002815    0.205275
     29          1           0       -3.437114    3.783545    0.089319
     30          1           0       -1.029494    3.167092   -0.083371
 ---------------------------------------------------------------------

 SCF Done:  E(UB3LYP) =  -916.892660995     A.U. after    1 cycles

 Alpha  occ. eigenvalues --  -19.18276 -19.13013 -19.12917 -19.12331 -10.31650
 Alpha  occ. eigenvalues --  -10.28627 -10.28177 -10.26896 -10.21976 -10.21600
 Alpha  occ. eigenvalues --  -10.21168 -10.21051 -10.20860 -10.20598 -10.20446
 Alpha  occ. eigenvalues --  -10.20390 -10.20120 -10.20109 -10.20078 -10.18401
 Alpha  occ. eigenvalues --   -1.12591  -1.06570  -1.06331  -1.04297  -0.89924
 Alpha  occ. eigenvalues --   -0.88749  -0.81938  -0.79646  -0.78177  -0.77827
 Alpha  occ. eigenvalues --   -0.75391  -0.69655  -0.67756  -0.65620  -0.64410
 Alpha  occ. eigenvalues --   -0.60696  -0.57565  -0.56869  -0.54999  -0.51171
 Alpha  occ. eigenvalues --   -0.50566  -0.50288  -0.49752  -0.49297  -0.48564
 Alpha  occ. eigenvalues --   -0.47287  -0.45620  -0.45482  -0.45411  -0.45014
 Alpha  occ. eigenvalues --   -0.44122  -0.42343  -0.41846  -0.41614  -0.41092
 Alpha  occ. eigenvalues --   -0.39635  -0.39082  -0.38766  -0.38293  -0.37263
 Alpha  occ. eigenvalues --   -0.36946  -0.33479  -0.29563  -0.29360  -0.28598
 Alpha  occ. eigenvalues --   -0.28243  -0.28155  -0.27524  -0.27031
 Alpha virt. eigenvalues --   -0.11966  -0.07719  -0.04317  -0.03138  -0.01063
 Alpha virt. eigenvalues --   -0.00682  -0.00602   0.00091   0.01313   0.01537
 Alpha virt. eigenvalues --    0.02458   0.02878   0.03483   0.03562   0.03735

  Beta  occ. eigenvalues --  -19.18276 -19.13013 -19.12917 -19.12331 -10.31650
  Beta  occ. eigenvalues --  -10.28627 -10.28177 -10.26896 -10.21976 -10.21600
  Beta  occ. eigenvalues --  -10.21168 -10.21051 -10.20860 -10.20598 -10.20446
  Beta  occ. eigenvalues --  -10.20390 -10.20120 -10.20109 -10.20078 -10.18401
  Beta  occ. eigenvalues --   -1.12591  -1.06570  -1.06331  -1.04297  -0.89924
  Beta  occ. eigenvalues --   -0.88749  -0.81938  -0.79646  -0.78177  -0.77827
  Beta  occ. eigenvalues --   -0.75391  -0.69655  -0.67756  -0.65620  -0.64410
  Beta  occ. eigenvalues --   -0.60696  -0.57565  -0.56869  -0.54999  -0.51171
  Beta  occ. eigenvalues --   -0.50566  -0.50288  -0.49752  -0.49297  -0.48564
  Beta  occ. eigenvalues --   -0.47287  -0.45620  -0.45482  -0.45411  -0.45014
  Beta  occ. eigenvalues --   -0.44122  -0.42343  -0.41846  -0.41614  -0.41092
  Beta  occ. eigenvalues --   -0.39635  -0.39082  -0.38766  -0.38293  -0.37263
  Beta  occ. eigenvalues --   -0.36946  -0.33479  -0.29563  -0.29360  -0.28598
  Beta  occ. eigenvalues --   -0.28243  -0.28155  -0.27524  -0.27031
  Beta virt. eigenvalues --   -0.11966  -0.07719  -0.04317  -0.03138  -0.01063
  Beta virt. eigenvalues --   -0.00682  -0.00602   0.00091   0.01313   0.01537
  Beta virt. eigenvalues --    0.02458   0.02878   0.03483   0.03562   0.03735

 Mulliken charges and spin densities:
               1          2
     1  C   -0.471776  -0.000000
     2  C   -0.016231  -0.000000
     3  O   -0.194882   0.000000
     4  O    0.011179   0.000000
     5  C    0.049036   0.000000
     6  C    0.177680  -0.000000
     7  C   -0.383265   0.000000
     8  C    0.055998   0.000000
     9  C    0.531131  -0.000000
    10  C   -0.718825   0.000000
    11  O   -0.207208   0.000000
    12  C   -0.099907   0.000000
    13  C    0.043545   0.000000
    14  C   -0.393991   0.000000
    15  C   -0.346594   0.000000
    16  C    0.169670  -0.000000
    17  C    0.083690  -0.000000
    18  C   -0.395942  -0.000000
    19  O   -0.204843  -0.000000
    20  C    0.499233  -0.000000
    21  H    0.165921   0.000000
    22  H    0.167865   0.000000
    23  H    0.195462  -0.000000
    24  H    0.190717  -0.000000
    25  H    0.190359   0.000000
    26  H    0.186109  -0.000000
    27  H    0.182052  -0.000000
    28  H    0.176852   0.000000
    29  H    0.179900   0.000000
    30  H    0.177065   0.000000
 Sum of Mulliken charges =  -0.00000   0.00000

 Dipole moment (field-independent basis, Debye):
    X=              0.2434    Y=              0.7118    Z=             -1.6420  Tot=              1.8061
 Quadrupole moment (field-independent basis, Debye-Ang):
   XX=           -100.4254   YY=           -102.2882   ZZ=           -122.4691
   XY=            -13.1935   XZ=             -4.7789   YZ=              1.7188

  Exact polarizability: 255.271 -16.409 238.852  -6.116   6.713 107.622
 Approx polarizability: 394.816   9.316 399.890 -19.509   4.263 180.023

                      1                      2                      3
                      A                      A                      A
 Frequencies --     26.2154                44.6693                70.8999
 Red. masses --      8.2701                 6.7602                 4.9855
 Frc consts  --      0.0033                 0.0079                 0.0148
 IR Inten    --      3.9866                 1.1339                 2.2552

                      4                      5                      6
                      A                      A                      A
 Frequencies --     80.7584               104.1615               111.4816
 Red. masses --      2.7408                 1.1985                 4.8575
 Frc consts  --      0.0105                 0.0077                 0.0356
 IR Inten    --      3.7782                 0.2324                 0.6619

                      7                      8                      9
                      A                      A                      A
 Frequencies --    126.1585               158.0529               209.5260
 Red. masses --      7.7297                 7.1186                 4.8951
 Frc consts  --      0.0725                 0.1048                 0.1266
 IR Inten    --      2.0219                 1.0289                 0.0744

                     10                     11                     12
                      A                      A                      A
 Frequencies --    216.0731               278.7294               296.4366
 Red. masses --      5.9421                 6.3615                 5.0975
 Frc consts  --      0.1635                 0.2912                 0.2639
 IR Inten    --      1.6180                 0.3926                 3.2201

                     13                     14                     15
                      A                      A                      A
 Frequencies --    315.5863               345.6916               401.1983
 Red. masses --      5.2420                 6.6583                10.3365
 Frc consts  --      0.3076                 0.4688                 0.9803
 IR Inten    --      0.8366                 0.0756                18.7713

                     16                     17                     18
                      A                      A                      A
 Frequencies --    411.6601               425.0772               430.9548
 Red. masses --      7.5374                 3.4233                 5.1495
 Frc consts  --      0.7526                 0.3644                 0.5635
 IR Inten    --      5.8882                 0.1940                 0.0789

                     19                     20                     21
                      A                      A                      A
 Frequencies --    458.7466               484.3335               491.0235
 Red. masses --      7.4022                 9.5829                 3.8919
 Frc consts  --      0.9178                 1.3245                 0.5529
 IR Inten    --      1.9795                 0.5832                 0.5860

                     22                     23                     24
                      A                      A                      A
 Frequencies --    535.1760               551.9682               579.3086
 Red. masses --      5.3303                 4.8319                 3.1279
 Frc consts  --      0.8995                 0.8674                 0.6185
 IR Inten    --      6.6684                12.8183                 7.6246

                     25                     26                     27
                      A                      A                      A
 Frequencies --    626.3452               655.1750               665.1933
 Red. masses --      6.4147                 5.6148                 5.7822
 Frc consts  --      1.4827                 1.4200                 1.5074
 IR Inten    --      0.3174                 3.6683                 7.3804

                     28                     29                     30
                      A                      A                      A
 Frequencies --    696.3317               703.3500               721.7719
 Red. masses --      5.2182                 6.5952                 2.7586
 Frc consts  --      1.4908                 1.9223                 0.8467
 IR Inten    --     12.4745                 3.2951                53.6593

                     31                     32                     33
                      A                      A                      A
 Frequencies --    746.6271               785.9723               794.0592
 Red. masses --      2.7517                 2.1655                 4.8205
 Frc consts  --      0.9038                 0.7882                 1.7908
 IR Inten    --     15.4739                 2.6899                 4.1672

                     34                     35                     36
                      A                      A                      A
 Frequencies --    813.2062               827.1654               868.7154
 Red. masses --      2.8819                 2.3720                 4.0291
 Frc consts  --      1.1229                 0.9562                 1.7915
 IR Inten    --     13.4727                12.4859                43.5232

                     37                     38                     39
                      A                      A                      A
 Frequencies --    910.9272               915.8828               930.6329
 Red. masses --      4.5570                 1.4725                 6.5207
 Frc consts  --      2.2279                 0.7277                 3.3273
 IR Inten    --     96.4563                 8.1937                 4.9965

                     40                     41                     42
                      A                      A                      A
 Frequencies --    955.0008              1002.7972              1003.4875
 Red. masses --      1.5234                 1.5226                 2.2132
 Frc consts  --      0.8186                 0.9021                 1.3131
 IR Inten    --      6.4489                 9.0190                37.9047

                     43                     44                     45
                      A                      A                      A
 Frequencies --   1010.3787              1017.7284              1037.3577
 Red. masses --      1.3343                 1.3237                 3.2581
 Frc consts  --      0.8026                 0.8078                 2.0657
 IR Inten    --      0.9429                 0.0054                85.8279

                     46                     47                     48
                      A                      A                      A
 Frequencies --   1059.9246              1062.3346              1095.0096
 Red. masses --      1.9220                 1.9219                 1.9620
 Frc consts  --      1.2722                 1.2779                 1.3860
 IR Inten    --      6.1662                11.4104                 0.8227

                     49                     50                     51
                      A                      A                      A
 Frequencies --   1113.6527              1175.4727              1184.8928
 Red. masses --      2.3616                 1.7059                 1.4703
 Frc consts  --      1.7257                 1.3888                 1.2162
 IR Inten    --      0.2452                 5.7941                10.5156

                     52                     53                     54
                      A                      A                      A
 Frequencies --   1187.0865              1192.7378              1208.9240
 Red. masses --      1.2775                 3.0491                 2.0572
 Frc consts  --      1.0606                 2.5557                 1.7714
 IR Inten    --     46.3489               552.4665                 1.4322

                     55                     56                     57
                      A                      A                      A
 Frequencies --   1258.2945              1263.9837              1293.0570
 Red. masses --      3.4332                 1.9963                 3.7709
 Frc consts  --      3.2026                 1.8792                 3.7148
 IR Inten    --     39.1024                23.3205               436.5173

                     58                     59                     60
                      A                      A                      A
 Frequencies --   1322.1574              1347.9967              1361.7752
 Red. masses --      2.8523                 8.6480                 7.8868
 Frc consts  --      2.9377                 9.2586                 8.6171
 IR Inten    --     99.1879                95.8799                 0.2374

                     61                     62                     63
                      A                      A                      A
 Frequencies --   1395.1690              1463.8934              1473.0683
 Red. masses --      1.3097                 3.6981                 1.0520
 Frc consts  --      1.5020                 4.6693                 1.3449
 IR Inten    --     67.7549                35.9447                13.6676

                     64                     65                     66
                      A                      A                      A
 Frequencies --   1475.1365              1479.3198              1488.2705
 Red. masses --      1.0954                 2.1933                 2.5713
 Frc consts  --      1.4044                 2.8280                 3.3555
 IR Inten    --      6.2094                 0.6275                 5.1756

                     67                     68                     69
                      A                      A                      A
 Frequencies --   1508.2462              1604.1938              1617.4742
 Red. masses --      2.5861                 6.4235                 6.9708
 Frc consts  --      3.4661                 9.7395                10.7451
 IR Inten    --      1.5102                 3.9083                15.4651

                     70                     71                     72
                      A                      A                      A
 Frequencies --   1626.4318              1630.4017              1716.5131
 Red. masses --      6.4211                 5.8785                12.4212
 Frc consts  --     10.0076                 9.2068                21.5629
 IR Inten    --    143.2654                 5.8892                47.5022

                     73                     74                     75
                      A                      A                      A
 Frequencies --   1726.9821              1832.5206              3053.4944
 Red. masses --     12.2144                11.8238                 1.0356
 Frc consts  --     21.4634                23.3940                 5.6891
 IR Inten    --    334.8609               228.2865                 1.9939

                     76                     77                     78
                      A                      A                      A
 Frequencies --   3118.8998              3156.5907              3170.8968
 Red. masses --      1.0996                 1.1041                 1.0871
 Frc consts  --      6.3020                 6.4818                 6.4400
 IR Inten    --      3.7934                 6.6566                 3.1620

                     79                     80                     81
                      A                      A                      A
 Frequencies --   3179.6818              3185.3602              3198.4789
 Red. masses --      1.0883                 1.0921                 1.0934
 Frc consts  --      6.4826                 6.5287                 6.5904
 IR Inten    --      5.6305                10.6830                 2.6281

                     82                     83                     84
                      A                      A                      A
 Frequencies --   3201.9467              3205.3233              3208.1414
 Red. masses --      1.0930                 1.0941                 1.0941
 Frc consts  --      6.6021                 6.6228                 6.6346
 IR Inten    --      2.2329                 9.6665                 4.1142

 - Thermochemistry -
 -------------------
 Temperature   298.150 Kelvin.  Pressure   1.00000 Atm.
 Atom     1 has atomic number  6 and mass  12.00000

 Molecular mass:   266.05791 amu.
 Principal axes and moments of inertia in atomic units:
                           1         2         3
     Eigenvalues --  3209.523456197.425228978.76671
           X            0.98356   0.17442  -0.04681
           Y           -0.17804   0.97994  -0.08958
           Z            0.03025   0.09644   0.99488
 This molecule is an asymmetric top.
 Rotational symmetry number  1.
 Warning -- assumption of classical behavior for rotation
           may cause significant error
 Rotational temperatures (Kelvin)      0.02699     0.01398     0.00965
 Rotational constants (GHZ):           0.56231     0.29121     0.20100
 Zero-point vibrational energy     578309.1 (Joules/Mol)
                                  138.21919 (Kcal/Mol)
 Warning -- explicit consideration of  24 degrees of freedom as
           vibrations may cause significant error
 Vibrational temperatures:     37.72    64.27   102.01   116.19   149.87
          (Kelvin)            160.40   181.51   227.40   301.46   310.88
                              401.03   426.51   454.06   497.37   577.23
                              592.29   611.59   620.05   660.03   696.85
                              706.47   770.00   794.16   833.50   901.17
                              942.65   957.06  1001.87  1011.96  1038.47
                             1074.23  1130.84  1142.47  1170.02  1190.11
                             1249.89  1310.62  1317.75  1338.97  1374.03
                             1442.80  1443.79  1453.71  1464.28  1492.53
                             1525.00  1528.46  1575.47  1602.30  1691.24
                             1704.80  1707.95  1716.08  1739.37  1810.41
                             1818.59  1860.42  1902.29  1939.47  1959.29
                             2007.34  2106.22  2119.42  2122.39  2128.41
                             2141.29  2170.03  2308.08  2327.18  2340.07
                             2345.78  2469.68  2484.74  2636.59  4393.30
                             4487.40  4541.63  4562.21  4574.85  4583.02
                             4601.90  4606.89  4611.75  4615.80

 Zero-point correction=                           0.220266 (Hartree/Particle)
 Thermal correction to Energy=                    0.236211
 Thermal correction to Enthalpy=                  0.237155
 Thermal correction to Gibbs Free Energy=         0.175685
 Sum of electronic and zero-point Energies=           -916.672395
 Sum of electronic and thermal Energies=              -916.656450
 Sum of electronic and thermal Enthalpies=            -916.655506
 Sum of electronic and thermal Free Energies=         -916.716976

                     E (Thermal)             CV                S
                      KCal/Mol        Cal/Mol-Kelvin    Cal/Mol-Kelvin
 Total                  148.225             61.584            129.376
 Electronic               0.000              0.000              0.000
 Translational            0.889              2.981             42.635
 Rotational               0.889              2.981             33.546
 Vibrational            146.447             55.623             53.195
 Vibration     1          0.593              1.985              6.097
 Vibration     2          0.595              1.980              5.040
 Vibration     3          0.598              1.968              4.128
 Vibration     4          0.600              1.962              3.872
 Vibration     5          0.605              1.946              3.375
 Vibration     6          0.607              1.940              3.243
 Vibration     7          0.611              1.927              3.004
 Vibration     8          0.621              1.894              2.573
 Vibration     9          0.642              1.826              2.048
 Vibration    10          0.645              1.817              1.992
 Vibration    11          0.679              1.713              1.541
 Vibration    12          0.690              1.680              1.437
 Vibration    13          0.703              1.644              1.333
 Vibration    14          0.724              1.584              1.186
 Vibration    15          0.767              1.468              0.958
 Vibration    16          0.776              1.445              0.921
 Vibration    17          0.787              1.416              0.875
 Vibration    18          0.792              1.403              0.856
 Vibration    19          0.817              1.342              0.770
 Vibration    20          0.840              1.285              0.698
 Vibration    21          0.847              1.270              0.681
 Vibration    22          0.890              1.172              0.576
 Vibration    23          0.907              1.135              0.540
 Vibration    24          0.936              1.076              0.487

                           ! Non-Optimized Parameters !
 Normal termination of Gaussian 16 at Thu Dec 21 07:39:13 2023.
