 Gaussian 16, Revision A.03,
 Gaussian 16:  ES64L-G16RevA.03 25-Dec-2016

 ----------------------------------------------------------------------
 #P UB3LYP/6-311++G(d,p) nosym opt freq SCRF=(PCM,Solvent=n,n-DiMethylF
 ormamide)
 ----------------------------------------------------------------------

 -------
 Radical
 -------
 Symbolic Z-matrix:
 Charge = -1 Multiplicity = 2

 SCF Done:  E(UB3LYP) =  -798.887049935     A.U. after   20 cycles
 SCF Done:  E(UB3LYP) =  -798.887444332     A.U. after   16 cycles
 SCF Done:  E(UB3LYP) =  -798.886840294     A.U. after   17 cycles
 SCF Done:  E(UB3LYP) =  -798.887749302     A.U. after   15 cycles
 SCF Done:  E(UB3LYP) =  -798.887875859     A.U. after   14 cycles
 SCF Done:  E(UB3LYP) =  -798.887913682     A.U. after   14 cycles
 SCF Done:  E(UB3LYP) =  -798.887929683     A.U. after   13 cycles
 SCF Done:  E(UB3LYP) =  -798.887935334     A.U. after   14 cycles
 SCF Done:  E(UB3LYP) =  -798.887936532     A.U. after   14 cycles
 SCF Done:  E(UB3LYP) =  -798.887937193     A.U. after   10 cycles
 SCF Done:  E(UB3LYP) =  -798.887937345     A.U. after   10 cycles
 SCF Done:  E(UB3LYP) =  -798.887937394     A.U. after   10 cycles
 SCF Done:  E(UB3LYP) =  -798.887937424     A.U. after    8 cycles
 SCF Done:  E(UB3LYP) =  -798.887937449     A.U. after    7 cycles
 SCF Done:  E(UB3LYP) =  -798.887937471     A.U. after    7 cycles
 SCF Done:  E(UB3LYP) =  -798.887937483     A.U. after    7 cycles
 Optimization completed.
    -- Stationary point found.
 Normal termination of Gaussian 16 at Sun Feb 11 02:00:49 2024.

 ----------------------------------------------------------------------
 #P Geom=AllCheck Guess=TCheck SCRF=Check GenChk UB3LYP/6-311++G(d,p) F
 req
 ----------------------------------------------------------------------

 Structure from the checkpoint file:  "271-rad.chk"
 -------
 Radical
 -------
 Charge = -1 Multiplicity = 2

                          Input orientation:
 ---------------------------------------------------------------------
 Center     Atomic      Atomic             Coordinates (Angstroms)
 Number     Number       Type             X           Y           Z
 ---------------------------------------------------------------------
      1          6           0       -0.985814    3.939491    0.028026
      2          6           0       -2.166122    3.237616    0.196582
      3          6           0       -2.156221    1.829317    0.191722
      4          6           0        0.242562    3.266386   -0.148125
      5          6           0        0.251024    1.844165   -0.150149
      6          6           0       -0.962205    1.149567    0.018774
      7          6           0        1.474468    4.019480   -0.332736
      8          6           0        2.710769    3.270141   -0.504457
      9          6           0        2.713105    1.877186   -0.441010
     10          6           0        1.503171    1.106999   -0.320862
     11          8           0        1.504595    5.289971   -0.362759
     12          8           0        1.537868   -0.161472   -0.381612
     13          7           0        3.831179    4.023517   -0.794310
     14          1           0       -0.981712    5.022809    0.027610
     15          1           0       -3.100483    3.771697    0.332273
     16          1           0       -3.081684    1.279534    0.323932
     17          1           0       -0.937373    0.066496    0.013586
     18          1           0        3.661412    5.009977   -0.631256
     19          1           0        4.698284    3.666607   -0.400314
     20          7           0        3.858732    1.062692   -0.648402
     21          6           0        5.123701    1.188939   -0.173873
     22          6           0        6.051509    0.031874   -0.482060
     23          1           0        3.580217    0.130119   -0.939483
     24          1           0        5.555688   -0.804340   -0.975885
     25          1           0        6.500954   -0.314809    0.450738
     26          1           0        6.859917    0.390297   -1.124177
     27          8           0        5.529939    2.174986    0.455755
 ---------------------------------------------------------------------

 SCF Done:  E(UB3LYP) =  -798.887937483     A.U. after    2 cycles

 Alpha  occ. eigenvalues --  -19.09886 -19.07925 -19.07725 -14.34982 -14.30609
 Alpha  occ. eigenvalues --  -10.28383 -10.22652 -10.22172 -10.21014 -10.19999
 Alpha  occ. eigenvalues --  -10.17435 -10.17430 -10.17389 -10.17226 -10.17146
 Alpha  occ. eigenvalues --  -10.17064 -10.17013  -1.04706  -1.00479  -1.00096
 Alpha  occ. eigenvalues --   -0.93600  -0.90308  -0.85788  -0.79366  -0.75443
 Alpha  occ. eigenvalues --   -0.75081  -0.72077  -0.67622  -0.63228  -0.61776
 Alpha  occ. eigenvalues --   -0.58407  -0.56621  -0.53685  -0.51893  -0.50396
 Alpha  occ. eigenvalues --   -0.48938  -0.47466  -0.45837  -0.45122  -0.44244
 Alpha  occ. eigenvalues --   -0.43159  -0.42441  -0.41805  -0.41730  -0.41119
 Alpha  occ. eigenvalues --   -0.40238  -0.38903  -0.38297  -0.37694  -0.35910
 Alpha  occ. eigenvalues --   -0.35362  -0.33885  -0.32517  -0.29698  -0.27392
 Alpha  occ. eigenvalues --   -0.26421  -0.25751  -0.25367  -0.24521  -0.21055
 Alpha  occ. eigenvalues --   -0.14899
 Alpha virt. eigenvalues --   -0.03580  -0.01467  -0.00644   0.00301   0.01142
 Alpha virt. eigenvalues --    0.01393   0.02002   0.02610   0.03528   0.04048
 Alpha virt. eigenvalues --    0.04306   0.04919   0.05130   0.05516   0.05943

  Beta  occ. eigenvalues --  -19.09879 -19.07268 -19.07254 -14.34979 -14.30518
  Beta  occ. eigenvalues --  -10.28382 -10.22480 -10.21916 -10.20873 -10.19994
  Beta  occ. eigenvalues --  -10.17430 -10.17388 -10.17302 -10.17205 -10.17109
  Beta  occ. eigenvalues --  -10.17044 -10.16977  -1.04687  -0.99643  -0.99028
  Beta  occ. eigenvalues --   -0.93467  -0.90031  -0.85576  -0.78992  -0.75330
  Beta  occ. eigenvalues --   -0.74870  -0.71941  -0.66815  -0.63029  -0.61577
  Beta  occ. eigenvalues --   -0.58214  -0.56414  -0.53499  -0.51782  -0.50220
  Beta  occ. eigenvalues --   -0.48868  -0.47139  -0.45751  -0.45060  -0.44064
  Beta  occ. eigenvalues --   -0.42709  -0.42273  -0.41717  -0.40982  -0.40564
  Beta  occ. eigenvalues --   -0.40080  -0.38512  -0.37780  -0.36154  -0.35389
  Beta  occ. eigenvalues --   -0.34928  -0.33751  -0.31058  -0.29251  -0.27307
  Beta  occ. eigenvalues --   -0.25014  -0.24861  -0.24697  -0.23982  -0.20256
  Beta virt. eigenvalues --   -0.08512  -0.02830  -0.00730  -0.00547   0.00306
  Beta virt. eigenvalues --    0.01217   0.01740   0.02027   0.02619   0.03614
  Beta virt. eigenvalues --    0.04070   0.04374   0.04953   0.05252   0.05934

 Mulliken charges and spin densities:
               1          2
     1  C    0.131830   0.061743
     2  C   -0.332375   0.013617
     3  C   -0.409063   0.061112
     4  C    0.426644   0.010499
     5  C    0.031313   0.055593
     6  C    0.082861   0.021041
     7  C   -0.706792   0.165579
     8  C    0.282495   0.059632
     9  C    0.426821   0.000908
    10  C   -0.764271   0.099701
    11  O   -0.494705   0.243005
    12  O   -0.491834   0.174295
    13  N   -0.433656   0.047890
    14  H    0.164795  -0.003706
    15  H    0.178343  -0.001357
    16  H    0.180096  -0.004475
    17  H    0.165365  -0.000468
    18  H    0.293750  -0.002673
    19  H    0.284299   0.000152
    20  N   -0.048698  -0.002249
    21  C    0.238600  -0.002488
    22  C   -0.577217   0.001768
    23  H    0.332415  -0.001577
    24  H    0.141322   0.000246
    25  H    0.182345   0.000057
    26  H    0.185702   0.000183
    27  O   -0.470386   0.001972
 Sum of Mulliken charges =  -1.00000   1.00000

 Dipole moment (field-independent basis, Debye):
    X=             -8.6365    Y=            -14.8045    Z=              0.4254  Tot=             17.1448
 Quadrupole moment (field-independent basis, Debye-Ang):
   XX=           -123.0503   YY=           -169.7351   ZZ=           -107.6172
   XY=            -34.7340   XZ=             -5.8970   YZ=              4.5045

  Exact polarizability: 387.376  -2.187 332.190 -20.809  -0.637 142.135
 Approx polarizability: 394.086  14.035 393.488 -19.151   0.904 162.872

                      1                      2                      3
                      A                      A                      A
 Frequencies --     48.5902                67.0278                75.9594
 Red. masses --      5.8329                 3.8710                 1.1103
 Frc consts  --      0.0081                 0.0102                 0.0038
 IR Inten    --      3.1131                13.7662                 0.7469

                      4                      5                      6
                      A                      A                      A
 Frequencies --     93.3863               117.7796               143.2087
 Red. masses --      6.4072                 4.8304                 5.3007
 Frc consts  --      0.0329                 0.0395                 0.0641
 IR Inten    --     10.1652                 5.2212                 1.9049

                      7                      8                      9
                      A                      A                      A
 Frequencies --    182.5353               204.6575               261.8909
 Red. masses --      6.3164                 5.6358                 6.2263
 Frc consts  --      0.1240                 0.1391                 0.2516
 IR Inten    --      0.7726                10.3100                10.2236

                     10                     11                     12
                      A                      A                      A
 Frequencies --    278.4145               309.5899               335.6935
 Red. masses --      5.5134                 4.5660                 5.1490
 Frc consts  --      0.2518                 0.2578                 0.3419
 IR Inten    --      7.3140                 1.0875                 7.0003

                     13                     14                     15
                      A                      A                      A
 Frequencies --    367.1908               381.1723               420.2039
 Red. masses --      3.9615                10.0143                 7.1982
 Frc consts  --      0.3147                 0.8573                 0.7489
 IR Inten    --      5.9588                36.9130                 3.0842

                     16                     17                     18
                      A                      A                      A
 Frequencies --    429.5356               455.2337               481.0588
 Red. masses --      6.4044                 3.4369                 5.9245
 Frc consts  --      0.6962                 0.4196                 0.8078
 IR Inten    --      0.5616                 2.3976                20.6159

                     19                     20                     21
                      A                      A                      A
 Frequencies --    521.6793               547.5253               553.6983
 Red. masses --      6.4916                 1.7081                 1.7776
 Frc consts  --      1.0409                 0.3017                 0.3211
 IR Inten    --     16.6921                35.2044                46.3724

                     22                     23                     24
                      A                      A                      A
 Frequencies --    596.4672               612.8821               659.8156
 Red. masses --      4.7899                 2.8933                 2.4628
 Frc consts  --      1.0040                 0.6403                 0.6317
 IR Inten    --     25.8052                34.3773                30.9961

                     25                     26                     27
                      A                      A                      A
 Frequencies --    663.8516               681.8187               693.2172
 Red. masses --      1.9567                 3.9507                 2.4377
 Frc consts  --      0.5081                 1.0821                 0.6902
 IR Inten    --    184.3927                48.6425               257.0674

                     28                     29                     30
                      A                      A                      A
 Frequencies --    708.2731               727.6808               744.2700
 Red. masses --      4.7651                 2.7094                 2.5842
 Frc consts  --      1.4084                 0.8453                 0.8434
 IR Inten    --     17.7484               199.8288               159.0690

                     31                     32                     33
                      A                      A                      A
 Frequencies --    769.9728               784.7839               864.1145
 Red. masses --      4.7809                 1.9147                 5.5953
 Frc consts  --      1.6700                 0.6948                 2.4616
 IR Inten    --     34.5294                61.0116                 4.9095

                     34                     35                     36
                      A                      A                      A
 Frequencies --    880.8626               921.9666               981.0983
 Red. masses --      1.3989                 3.8262                 1.3671
 Frc consts  --      0.6395                 1.9162                 0.7753
 IR Inten    --      0.0755                41.6778                 3.0255

                     37                     38                     39
                      A                      A                      A
 Frequencies --    996.6944              1002.3737              1023.0408
 Red. masses --      1.2826                 4.6237                 2.1936
 Frc consts  --      0.7507                 2.7372                 1.3527
 IR Inten    --      0.0640                17.8891                51.3066

                     40                     41                     42
                      A                      A                      A
 Frequencies --   1043.3917              1053.7645              1070.5490
 Red. masses --      1.7996                 1.7309                 2.8407
 Frc consts  --      1.1543                 1.1324                 1.9182
 IR Inten    --     12.5669                18.7547                 6.6920

                     43                     44                     45
                      A                      A                      A
 Frequencies --   1113.9397              1154.9706              1190.2464
 Red. masses --      1.9346                 1.2454                 3.0359
 Frc consts  --      1.4144                 0.9788                 2.5340
 IR Inten    --     30.7262                 2.3768                19.0949

                     46                     47                     48
                      A                      A                      A
 Frequencies --   1206.7832              1230.3338              1266.9689
 Red. masses --      2.2557                 2.2876                 3.2916
 Frc consts  --      1.9355                 2.0402                 3.1131
 IR Inten    --     26.0049                73.8475                97.2389

                     49                     50                     51
                      A                      A                      A
 Frequencies --   1294.7914              1314.8577              1354.7427
 Red. masses --      2.1324                 2.5083                 9.6140
 Frc consts  --      2.1063                 2.5549                10.3960
 IR Inten    --    129.7330                78.6970                23.6866

                     52                     53                     54
                      A                      A                      A
 Frequencies --   1396.2391              1418.1612              1455.9931
 Red. masses --      1.2461                 2.9329                 4.5424
 Frc consts  --      1.4313                 3.4754                 5.6735
 IR Inten    --     30.0754               320.5294              1037.1987

                     55                     56                     57
                      A                      A                      A
 Frequencies --   1462.3471              1463.1943              1476.0876
 Red. masses --      1.4352                 1.7762                 1.1603
 Frc consts  --      1.8083                 2.2404                 1.4895
 IR Inten    --     59.8320               227.5624               189.0447

                     58                     59                     60
                      A                      A                      A
 Frequencies --   1498.4364              1519.7540              1531.5649
 Red. masses --      3.9186                 5.8585                 2.4526
 Frc consts  --      5.1839                 7.9723                 3.3896
 IR Inten    --    726.2265                17.5746               947.9319

                     61                     62                     63
                      A                      A                      A
 Frequencies --   1559.3093              1597.6506              1621.1779
 Red. masses --      4.1679                 1.9447                 3.9781
 Frc consts  --      5.9708                 2.9246                 6.1601
 IR Inten    --     52.2594                44.6042               176.3300

                     64                     65                     66
                      A                      A                      A
 Frequencies --   1623.9948              1664.3045              3043.1378
 Red. masses --      3.9476                 3.7325                 1.0353
 Frc consts  --      6.1342                 6.0913                 5.6491
 IR Inten    --     74.2863               337.1679                15.3550

                     67                     68                     69
                      A                      A                      A
 Frequencies --   3106.6384              3125.6984              3159.3484
 Red. masses --      1.1004                 1.1044                 1.0859
 Frc consts  --      6.2572                 6.3572                 6.3863
 IR Inten    --     10.2323                23.9525                 9.9539

                     70                     71                     72
                      A                      A                      A
 Frequencies --   3173.3630              3188.9778              3192.5585
 Red. masses --      1.0902                 1.0919                 1.0945
 Frc consts  --      6.4683                 6.5421                 6.5729
 IR Inten    --     21.9849                18.5876                36.1523

                     73                     74                     75
                      A                      A                      A
 Frequencies --   3443.3299              3517.4103              3572.4350
 Red. masses --      1.0527                 1.0756                 1.0941
 Frc consts  --      7.3536                 7.8407                 8.2270
 IR Inten    --    181.6200               136.7371               162.4222

 - Thermochemistry -
 -------------------
 Temperature   298.150 Kelvin.  Pressure   1.00000 Atm.
 Atom     1 has atomic number  6 and mass  12.00000

 Molecular mass:   230.06914 amu.
 Principal axes and moments of inertia in atomic units:
                           1         2         3
     Eigenvalues --  1915.485435558.498927311.17112
           X            0.97025   0.23586   0.05465
           Y           -0.23718   0.97128   0.01887
           Z           -0.04863  -0.03127   0.99833
 This molecule is an asymmetric top.
 Rotational symmetry number  1.
 Warning -- assumption of classical behavior for rotation
           may cause significant error
 Rotational temperatures (Kelvin)      0.04522     0.01558     0.01185
 Rotational constants (GHZ):           0.94218     0.32468     0.24685
 Zero-point vibrational energy     530517.9 (Joules/Mol)
                                  126.79682 (Kcal/Mol)
 Warning -- explicit consideration of  23 degrees of freedom as
           vibrations may cause significant error
 Vibrational temperatures:     69.91    96.44   109.29   134.36   169.46
          (Kelvin)            206.05   262.63   294.46   376.80   400.58
                              445.43   482.99   528.31   548.42   604.58
                              618.01   654.98   692.14   750.58   787.77
                              796.65   858.18   881.80   949.33   955.13
                              980.99   997.38  1019.05  1046.97  1070.84
                             1107.82  1129.13  1243.27  1267.36  1326.50
                             1411.58  1434.02  1442.19  1471.93  1501.21
                             1516.13  1540.28  1602.71  1661.75  1712.50
                             1736.29  1770.18  1822.89  1862.92  1891.79
                             1949.17  2008.88  2040.42  2094.85  2103.99
                             2105.21  2123.76  2155.92  2186.59  2203.58
                             2243.50  2298.66  2332.51  2336.57  2394.56
                             4378.40  4469.76  4497.18  4545.60  4565.76
                             4588.23  4593.38  4954.18  5060.77  5139.94

 Zero-point correction=                           0.202064 (Hartree/Particle)
 Thermal correction to Energy=                    0.216487
 Thermal correction to Enthalpy=                  0.217431
 Thermal correction to Gibbs Free Energy=         0.159855
 Sum of electronic and zero-point Energies=           -798.685874
 Sum of electronic and thermal Energies=              -798.671451
 Sum of electronic and thermal Enthalpies=            -798.670506
 Sum of electronic and thermal Free Energies=         -798.728082

                     E (Thermal)             CV                S
                      KCal/Mol        Cal/Mol-Kelvin    Cal/Mol-Kelvin
 Total                  135.848             56.070            121.179
 Electronic               0.000              0.000              1.377
 Translational            0.889              2.981             42.202
 Rotational               0.889              2.981             32.720
 Vibrational            134.070             50.109             44.880
 Vibration     1          0.595              1.978              4.874
 Vibration     2          0.598              1.970              4.239
 Vibration     3          0.599              1.965              3.993
 Vibration     4          0.602              1.954              3.588
 Vibration     5          0.608              1.935              3.136
 Vibration     6          0.616              1.910              2.761
 Vibration     7          0.630              1.864              2.302
 Vibration     8          0.640              1.833              2.091
 Vibration     9          0.669              1.743              1.649
 Vibration    10          0.679              1.713              1.543
 Vibration    11          0.699              1.655              1.365
 Vibration    12          0.717              1.604              1.233
 Vibration    13          0.740              1.540              1.092
 Vibration    14          0.751              1.510              1.035
 Vibration    15          0.783              1.426              0.891
 Vibration    16          0.791              1.406              0.860
 Vibration    17          0.814              1.349              0.780
 Vibration    18          0.837              1.292              0.707
 Vibration    19          0.877              1.202              0.606
 Vibration    20          0.903              1.145              0.549
 Vibration    21          0.909              1.132              0.537
 Vibration    22          0.954              1.039              0.456
 Vibration    23          0.972              1.005              0.428

 Optimization completed.
    -- Stationary point found.
 Normal termination of Gaussian 16 at Sun Feb 11 02:35:53 2024.
