 Q-Chem 5.4, Q-Chem, Inc., Pleasanton, CA (2021)
 Q-Chem 5.4.0 for Intel X86 EM64T Linux

User input:
--------------------------------------------------------------
$molecule
-2 1
C                 -2.2347270000      3.2377730000      4.0998050000
C                 -3.4582550000      2.6862760000      4.3756490000
C                 -3.8926800000      1.5322970000      3.6715340000
C                 -3.0848650000      0.9694400000      2.6928060000
C                 -1.7970950000      1.5172300000      2.3557230000
C                 -1.3745000000      2.6869280000      3.1101590000
C                 -0.1108660000      3.3509770000      2.9045020000
C                 -0.9330590000      0.9469130000      1.3313700000
C                  0.7373220000      2.8144310000      1.8671690000
C                  0.3458130000      1.6373370000      1.1325490000
C                  2.0189120000      3.4054150000      1.5618060000
C                  2.8635100000      2.8167130000      0.6282080000
C                  2.4716780000      1.6447850000     -0.0616950000
C                  1.2368260000      1.0834510000      0.1790860000
O                  0.2234020000      4.3789290000      3.6339980000
O                 -1.2136180000     -0.0809320000      0.6393260000
N                  2.3871500000      4.6081780000      2.1875220000
O                 -3.4973750000     -0.1451140000      2.0009700000
C                 -4.7489220000     -0.7086280000      2.3005770000
H                 -1.8706170000      4.1160880000      4.6196700000
H                 -4.1061030000      3.1196090000      5.1354010000
H                 -4.8631340000      1.1101880000      3.8975360000
H                  3.8178390000      3.2941320000      0.4091590000
H                  3.1467850000      1.1996080000     -0.7908940000
H                  0.8986570000      0.1936230000     -0.3391800000
H                  1.7362990000      4.7923570000      2.9742190000
H                  3.3724120000      4.6594390000      2.4092890000
H                 -4.8431980000     -1.5914090000      1.6631790000
H                 -5.5841340000     -0.0245950000      2.0838030000
H                 -4.8327590000     -1.0246090000      3.3519920000
$end
$rem
MAX_SCF_CYCLES=200
BASIS  =  6-311++G(d,p)
GUI  =  2
JOB_TYPE  =  SP
METHOD  =  B3LYP
SOLVENT_METHOD = PCM
$end
$pcm
theory = CPCM
$end
$solvent
dielectric 37.219
opticaldielectric 1.43
$end

--------------------------------------------------------------

             Standard Nuclear Orientation (Angstroms)
    I     Atom           X                Y                Z
 ----------------------------------------------------------------
    1      C      -2.2347270000     3.2377730000     4.0998050000
    2      C      -3.4582550000     2.6862760000     4.3756490000
    3      C      -3.8926800000     1.5322970000     3.6715340000
    4      C      -3.0848650000     0.9694400000     2.6928060000
    5      C      -1.7970950000     1.5172300000     2.3557230000
    6      C      -1.3745000000     2.6869280000     3.1101590000
    7      C      -0.1108660000     3.3509770000     2.9045020000
    8      C      -0.9330590000     0.9469130000     1.3313700000
    9      C       0.7373220000     2.8144310000     1.8671690000
   10      C       0.3458130000     1.6373370000     1.1325490000
   11      C       2.0189120000     3.4054150000     1.5618060000
   12      C       2.8635100000     2.8167130000     0.6282080000
   13      C       2.4716780000     1.6447850000    -0.0616950000
   14      C       1.2368260000     1.0834510000     0.1790860000
   15      O       0.2234020000     4.3789290000     3.6339980000
   16      O      -1.2136180000    -0.0809320000     0.6393260000
   17      N       2.3871500000     4.6081780000     2.1875220000
   18      O      -3.4973750000    -0.1451140000     2.0009700000
   19      C      -4.7489220000    -0.7086280000     2.3005770000
   20      H      -1.8706170000     4.1160880000     4.6196700000
   21      H      -4.1061030000     3.1196090000     5.1354010000
   22      H      -4.8631340000     1.1101880000     3.8975360000
   23      H       3.8178390000     3.2941320000     0.4091590000
   24      H       3.1467850000     1.1996080000    -0.7908940000
   25      H       0.8986570000     0.1936230000    -0.3391800000
   26      H       1.7362990000     4.7923570000     2.9742190000
   27      H       3.3724120000     4.6594390000     2.4092890000
   28      H      -4.8431980000    -1.5914090000     1.6631790000
   29      H      -5.5841340000    -0.0245950000     2.0838030000
   30      H      -4.8327590000    -1.0246090000     3.3519920000
 ----------------------------------------------------------------

    9    -859.1218487337      3.89e-06  Convergence criterion met
 Total energy in the final basis set =     -859.1218487337

                    Orbital Energies (a.u.)
 --------------------------------------------------------------

 Alpha MOs
 -- Occupied --
-19.1340 -19.0252 -19.0180 -14.2773 -10.2144 -10.2049 -10.1873 -10.1799
-10.1758 -10.1472 -10.1452 -10.1425 -10.1413 -10.1408 -10.1369 -10.1362
-10.1356 -10.1340 -10.1323  -1.0511  -0.9465  -0.9433  -0.8809  -0.8234
 -0.8051  -0.7504  -0.7351  -0.7079  -0.6991  -0.6757  -0.6340  -0.6008
 -0.5949  -0.5523  -0.5312  -0.5190  -0.4996  -0.4787  -0.4587  -0.4539
 -0.4531  -0.4392  -0.4351  -0.4197  -0.4118  -0.3973  -0.3848  -0.3775
 -0.3714  -0.3617  -0.3556  -0.3522  -0.3332  -0.3311  -0.3234  -0.3217
 -0.3133  -0.3090  -0.2933  -0.2795  -0.2278  -0.2171  -0.2075  -0.2067
 -0.1928  -0.1869  -0.1040

          Ground-State Mulliken Net Atomic Charges

     Atom                 Charge (a.u.)
  ----------------------------------------
      1 C                    -0.260098
      2 C                    -0.529894
      3 C                    -0.264050
      4 C                    -0.004213
      5 C                     0.079146
      6 C                     0.235126
      7 C                    -0.377239
      8 C                    -0.394175
      9 C                     0.171727
     10 C                     0.497486
     11 C                     0.149739
     12 C                    -0.314969
     13 C                    -0.506173
     14 C                    -0.222180
     15 O                    -0.664824
     16 O                    -0.669503
     17 N                    -0.496668
     18 O                    -0.168924
     19 C                    -0.298487
     20 H                     0.139078
     21 H                     0.180910
     22 H                     0.176732
     23 H                     0.155372
     24 H                     0.171510
     25 H                     0.137825
     26 H                     0.312688
     27 H                     0.260937
     28 H                     0.192530
     29 H                     0.158296
     30 H                     0.152296
  ----------------------------------------
  Sum of atomic charges =    -2.000000

                    Cartesian Multipole Moments
 -----------------------------------------------------------------
    Charge (ESU x 10^10)
                -9.6064
    Dipole Moment (Debye)
         X       3.6181      Y     -21.2447      Z     -18.2689
       Tot      28.2521
    Quadrupole Moments (Debye-Ang)
        XX    -123.3348     XY       3.3725     YY    -203.7033
        XZ       7.6180     YZ     -60.0639     ZZ    -176.6179

 Total job time:  222.82s(wall), 429.89s(cpu)
        *  Thank you very much for using Q-Chem.  Have a nice day.  *
