 Gaussian 16, Revision A.03,
 Gaussian 16:  ES64L-G16RevA.03 25-Dec-2016

 ----------------------------------------------------------------------
 #P UB3LYP/6-311++G(d,p) nosym opt freq SCRF=(PCM,Solvent=n,n-DiMethylF
 ormamide)
 ----------------------------------------------------------------------

 --------
 Oxidized
 --------
 Symbolic Z-matrix:
 Charge =  0 Multiplicity = 1

 SCF Done:  E(UB3LYP) =  -1219.07373258     A.U. after   16 cycles
 SCF Done:  E(UB3LYP) =  -1219.07370487     A.U. after   14 cycles
 SCF Done:  E(UB3LYP) =  -1219.07441174     A.U. after   14 cycles
 SCF Done:  E(UB3LYP) =  -1219.07436092     A.U. after   12 cycles
 SCF Done:  E(UB3LYP) =  -1219.07460372     A.U. after   13 cycles
 SCF Done:  E(UB3LYP) =  -1219.07466451     A.U. after   12 cycles
 SCF Done:  E(UB3LYP) =  -1219.07469441     A.U. after   12 cycles
 SCF Done:  E(UB3LYP) =  -1219.07470844     A.U. after   11 cycles
 SCF Done:  E(UB3LYP) =  -1219.07471797     A.U. after   12 cycles
 SCF Done:  E(UB3LYP) =  -1219.07472496     A.U. after   11 cycles
 SCF Done:  E(UB3LYP) =  -1219.07472892     A.U. after   11 cycles
 SCF Done:  E(UB3LYP) =  -1219.07473169     A.U. after   10 cycles
 SCF Done:  E(UB3LYP) =  -1219.07473351     A.U. after   11 cycles
 SCF Done:  E(UB3LYP) =  -1219.07473438     A.U. after   10 cycles
 SCF Done:  E(UB3LYP) =  -1219.07473489     A.U. after   11 cycles
 SCF Done:  E(UB3LYP) =  -1219.07473517     A.U. after   11 cycles
 SCF Done:  E(UB3LYP) =  -1219.07473532     A.U. after   10 cycles
 SCF Done:  E(UB3LYP) =  -1219.07473540     A.U. after    9 cycles
 SCF Done:  E(UB3LYP) =  -1219.07473543     A.U. after    9 cycles
 Optimization completed.
    -- Stationary point found.
 Normal termination of Gaussian 16 at Sun Feb 11 02:45:23 2024.

 ----------------------------------------------------------------------
 #P Geom=AllCheck Guess=TCheck SCRF=Check GenChk UB3LYP/6-311++G(d,p) F
 req
 ----------------------------------------------------------------------

 Structure from the checkpoint file:  "265.chk"
 --------
 Oxidized
 --------
 Charge =  0 Multiplicity = 1

                          Input orientation:
 ---------------------------------------------------------------------
 Center     Atomic      Atomic             Coordinates (Angstroms)
 Number     Number       Type             X           Y           Z
 ---------------------------------------------------------------------
      1          6           0       -0.778502    2.824820   -0.620705
      2          6           0       -2.129063    2.477664   -0.685997
      3          6           0       -2.561880    1.231876   -0.247144
      4          6           0        0.145261    1.896151   -0.122218
      5          6           0       -0.291836    0.628356    0.309798
      6          6           0       -1.651853    0.297896    0.247667
      7          6           0        1.586198    2.269924   -0.031289
      8          6           0        2.559880    1.205203    0.339270
      9          6           0        2.132976    0.016312    0.789042
     10          6           0        0.699331   -0.341956    0.852500
     11          8           0        1.947689    3.420895   -0.209958
     12          8           0        0.360082   -1.410953    1.336115
     13          1           0       -3.615091    0.984065   -0.300160
     14          1           0        2.825454   -0.745609    1.127991
     15          6           0       -2.205287   -1.023847    0.719643
     16          8           0       -2.760669   -1.166873    1.784715
     17          8           0       -2.100265   -1.960663   -0.222287
     18          6           0       -2.614118   -3.274726    0.108506
     19          1           0       -2.849713    3.180886   -1.085997
     20          1           0       -2.444275   -3.879367   -0.777941
     21          1           0       -3.677848   -3.215241    0.336646
     22          1           0       -2.070138   -3.680007    0.961434
     23          6           0        4.036578    1.491477    0.284992
     24          8           0        4.795195    1.241006    1.193924
     25          8           0        4.390672    2.001613   -0.890534
     26          6           0       -0.381352    4.156127   -1.222904
     27          8           0       -0.124390    4.248403   -2.401351
     28          8           0       -0.452690    5.257765   -0.468972
     29          6           0       -0.653194    5.174184    0.963635
     30          6           0        5.798134    2.297081   -1.076406
     31          1           0       -0.672783    6.205621    1.305454
     32          1           0        0.178329    4.645875    1.428644
     33          1           0       -1.600724    4.690018    1.197602
     34          1           0        5.873829    2.697819   -2.083031
     35          1           0        6.386446    1.385380   -0.977804
     36          1           0        6.122347    3.033435   -0.341807
 ---------------------------------------------------------------------

 SCF Done:  E(UB3LYP) =  -1219.07473543     A.U. after    1 cycles

 Alpha  occ. eigenvalues --  -19.19435 -19.18954 -19.18807 -19.15807 -19.15612
 Alpha  occ. eigenvalues --  -19.14137 -19.13605 -19.13317 -10.33585 -10.33411
 Alpha  occ. eigenvalues --  -10.33140 -10.31008 -10.30511 -10.24449 -10.23827
 Alpha  occ. eigenvalues --  -10.23766 -10.23686 -10.23635 -10.23588 -10.23483
 Alpha  occ. eigenvalues --  -10.23439 -10.23180 -10.22247 -10.22164  -1.13814
 Alpha  occ. eigenvalues --   -1.13236  -1.12799  -1.09209  -1.08771  -1.05073
 Alpha  occ. eigenvalues --   -1.04604  -1.04548  -0.91978  -0.87254  -0.82650
 Alpha  occ. eigenvalues --   -0.80940  -0.76257  -0.75260  -0.74365  -0.72237
 Alpha  occ. eigenvalues --   -0.69393  -0.67632  -0.65183  -0.60804  -0.59603
 Alpha  occ. eigenvalues --   -0.58160  -0.56936  -0.56292  -0.54732  -0.54016
 Alpha  occ. eigenvalues --   -0.53285  -0.51275  -0.50758  -0.50212  -0.49915
 Alpha  occ. eigenvalues --   -0.49752  -0.49509  -0.48982  -0.47855  -0.47282
 Alpha  occ. eigenvalues --   -0.46918  -0.46506  -0.45055  -0.44087  -0.44011
 Alpha  occ. eigenvalues --   -0.43911  -0.42250  -0.41999  -0.41789  -0.41155
 Alpha  occ. eigenvalues --   -0.40528  -0.40134  -0.38247  -0.37737  -0.37166
 Alpha  occ. eigenvalues --   -0.33901  -0.33317  -0.32873  -0.32366  -0.32177
 Alpha  occ. eigenvalues --   -0.31490  -0.31133  -0.30825  -0.30118  -0.29415
 Alpha  occ. eigenvalues --   -0.28550
 Alpha virt. eigenvalues --   -0.14825  -0.08385  -0.06473  -0.02451  -0.02310
 Alpha virt. eigenvalues --   -0.01668  -0.00888  -0.00126   0.00117   0.00714
 Alpha virt. eigenvalues --    0.01008   0.01551   0.01902   0.02364   0.02891

  Beta  occ. eigenvalues --  -19.19435 -19.18954 -19.18807 -19.15807 -19.15612
  Beta  occ. eigenvalues --  -19.14137 -19.13605 -19.13317 -10.33585 -10.33411
  Beta  occ. eigenvalues --  -10.33140 -10.31008 -10.30511 -10.24449 -10.23827
  Beta  occ. eigenvalues --  -10.23766 -10.23686 -10.23635 -10.23588 -10.23483
  Beta  occ. eigenvalues --  -10.23439 -10.23180 -10.22247 -10.22164  -1.13814
  Beta  occ. eigenvalues --   -1.13236  -1.12799  -1.09209  -1.08771  -1.05073
  Beta  occ. eigenvalues --   -1.04604  -1.04548  -0.91978  -0.87254  -0.82650
  Beta  occ. eigenvalues --   -0.80940  -0.76257  -0.75260  -0.74365  -0.72237
  Beta  occ. eigenvalues --   -0.69393  -0.67632  -0.65183  -0.60804  -0.59603
  Beta  occ. eigenvalues --   -0.58160  -0.56936  -0.56292  -0.54732  -0.54016
  Beta  occ. eigenvalues --   -0.53285  -0.51275  -0.50758  -0.50212  -0.49915
  Beta  occ. eigenvalues --   -0.49752  -0.49509  -0.48982  -0.47855  -0.47282
  Beta  occ. eigenvalues --   -0.46918  -0.46506  -0.45055  -0.44087  -0.44011
  Beta  occ. eigenvalues --   -0.43911  -0.42250  -0.41999  -0.41789  -0.41155
  Beta  occ. eigenvalues --   -0.40528  -0.40134  -0.38247  -0.37737  -0.37166
  Beta  occ. eigenvalues --   -0.33901  -0.33317  -0.32873  -0.32366  -0.32177
  Beta  occ. eigenvalues --   -0.31490  -0.31133  -0.30825  -0.30118  -0.29415
  Beta  occ. eigenvalues --   -0.28550
  Beta virt. eigenvalues --   -0.14825  -0.08385  -0.06473  -0.02451  -0.02310
  Beta virt. eigenvalues --   -0.01668  -0.00888  -0.00126   0.00117   0.00714
  Beta virt. eigenvalues --    0.01008   0.01551   0.01902   0.02364   0.02891

 Mulliken charges and spin densities:
               1          2
     1  C    0.042412   0.000000
     2  C    0.324210   0.000000
     3  C    0.036106   0.000000
     4  C    0.664016  -0.000000
     5  C    0.681543  -0.000000
     6  C    0.597032  -0.000000
     7  C   -0.794563   0.000000
     8  C    0.212244  -0.000000
     9  C   -0.419730   0.000000
    10  C   -0.570146  -0.000000
    11  O   -0.165965  -0.000000
    12  O   -0.193319  -0.000000
    13  H    0.237777   0.000000
    14  H    0.249647  -0.000000
    15  C   -0.883870  -0.000000
    16  O   -0.195962  -0.000000
    17  O    0.067405  -0.000000
    18  C   -0.231838   0.000000
    19  H    0.254687  -0.000000
    20  H    0.179237  -0.000000
    21  H    0.180698   0.000000
    22  H    0.191630  -0.000000
    23  C   -0.106333   0.000000
    24  O   -0.256621  -0.000000
    25  O   -0.015757  -0.000000
    26  C   -0.354518  -0.000000
    27  O   -0.245217  -0.000000
    28  O   -0.015426  -0.000000
    29  C   -0.354870   0.000000
    30  C   -0.249031   0.000000
    31  H    0.184750  -0.000000
    32  H    0.203372  -0.000000
    33  H    0.181409   0.000000
    34  H    0.179747  -0.000000
    35  H    0.185960   0.000000
    36  H    0.199285   0.000000
 Sum of Mulliken charges =  -0.00000   0.00000

 Dipole moment (field-independent basis, Debye):
    X=             -1.9798    Y=             -1.6991    Z=              0.0219  Tot=              2.6090
 Quadrupole moment (field-independent basis, Debye-Ang):
   XX=           -115.6437   YY=           -141.4675   ZZ=           -155.9318
   XY=             -5.3435   XZ=             -4.0194   YZ=             26.3742

  Exact polarizability: 317.697  30.727 329.667  -1.719 -51.621 223.536
 Approx polarizability: 346.746  36.357 390.038  -2.140 -68.439 273.444

                      1                      2                      3
                      A                      A                      A
 Frequencies --     18.0193                23.8339                37.2425
 Red. masses --      6.3520                 6.6862                 5.2340
 Frc consts  --      0.0012                 0.0022                 0.0043
 IR Inten    --      1.9801                 5.8458                 6.9683

                      4                      5                      6
                      A                      A                      A
 Frequencies --     48.0567                62.2870                67.5729
 Red. masses --      5.2302                 3.8291                 4.7825
 Frc consts  --      0.0071                 0.0088                 0.0129
 IR Inten    --      8.7268                 0.6011                 0.7315

                      7                      8                      9
                      A                      A                      A
 Frequencies --     78.8118                96.1870               106.4775
 Red. masses --      3.3529                 1.7648                 2.4726
 Frc consts  --      0.0123                 0.0096                 0.0165
 IR Inten    --      1.4914                 1.1504                 0.5645

                     10                     11                     12
                      A                      A                      A
 Frequencies --    121.8666               136.4398               139.4021
 Red. masses --      4.6840                 2.7232                 1.4213
 Frc consts  --      0.0410                 0.0299                 0.0163
 IR Inten    --      8.5517                 5.0212                 1.9537

                     13                     14                     15
                      A                      A                      A
 Frequencies --    143.5497               148.3485               170.5021
 Red. masses --      2.0719                 2.1200                 4.6955
 Frc consts  --      0.0252                 0.0275                 0.0804
 IR Inten    --      2.4794                 0.9059                 0.6989

                     16                     17                     18
                      A                      A                      A
 Frequencies --    186.0019               198.3534               204.6153
 Red. masses --      3.5478                 5.3597                 4.9847
 Frc consts  --      0.0723                 0.1242                 0.1230
 IR Inten    --      4.6826                 5.3080                13.4253

                     19                     20                     21
                      A                      A                      A
 Frequencies --    236.8311               255.7672               261.5977
 Red. masses --      6.0914                 6.8100                 7.6651
 Frc consts  --      0.2013                 0.2625                 0.3091
 IR Inten    --      1.5121                 1.1401                 4.8996

                     22                     23                     24
                      A                      A                      A
 Frequencies --    278.5595               308.6533               314.9610
 Red. masses --      7.7309                 4.2948                 6.4014
 Frc consts  --      0.3534                 0.2411                 0.3741
 IR Inten    --      4.1726                20.9227                20.4116

                     25                     26                     27
                      A                      A                      A
 Frequencies --    325.9155               371.1035               375.0406
 Red. masses --      5.9956                 7.7596                10.4666
 Frc consts  --      0.3752                 0.6296                 0.8674
 IR Inten    --      9.6485                17.8868                55.5462

                     28                     29                     30
                      A                      A                      A
 Frequencies --    388.3505               439.7017               461.8033
 Red. masses --      5.3607                 5.0598                 6.5612
 Frc consts  --      0.4763                 0.5764                 0.8244
 IR Inten    --     12.4220                 1.2553                 2.6000

                     31                     32                     33
                      A                      A                      A
 Frequencies --    487.3251               522.7858               550.3946
 Red. masses --      9.8558                 8.0836                 7.6739
 Frc consts  --      1.3790                 1.3017                 1.3697
 IR Inten    --     12.8206                11.4077                 5.6646

                     34                     35                     36
                      A                      A                      A
 Frequencies --    611.0565               619.9178               656.3503
 Red. masses --      6.5071                 6.6176                 5.7735
 Frc consts  --      1.4315                 1.4984                 1.4654
 IR Inten    --     28.7708                25.3963                 9.4269

                     37                     38                     39
                      A                      A                      A
 Frequencies --    671.9258               728.0606               739.4904
 Red. masses --      7.2398                 4.8596                 8.5347
 Frc consts  --      1.9258                 1.5177                 2.7498
 IR Inten    --      4.5558                 4.0368                12.2813

                     40                     41                     42
                      A                      A                      A
 Frequencies --    746.6016               761.2813               781.2867
 Red. masses --      8.9562                 8.2541                 6.7429
 Frc consts  --      2.9414                 2.8184                 2.4250
 IR Inten    --     85.7877                10.7783                22.2694

                     43                     44                     45
                      A                      A                      A
 Frequencies --    796.9067               810.6946               826.2845
 Red. masses --      6.3904                 8.3586                 8.1966
 Frc consts  --      2.3911                 3.2367                 3.2972
 IR Inten    --     14.7244                 2.2121                22.2127

                     46                     47                     48
                      A                      A                      A
 Frequencies --    866.2312               867.7969               884.4620
 Red. masses --      6.0127                 1.8344                 4.0766
 Frc consts  --      2.6582                 0.8139                 1.8789
 IR Inten    --     29.1139                46.6779                14.9181

                     49                     50                     51
                      A                      A                      A
 Frequencies --    914.9073               950.8075               970.5278
 Red. masses --      5.2118                 1.7229                 6.0100
 Frc consts  --      2.5704                 0.9177                 3.3354
 IR Inten    --     14.4360                26.9480                56.2582

                     52                     53                     54
                      A                      A                      A
 Frequencies --    998.5464              1002.6185              1032.7823
 Red. masses --      7.0704                 1.4034                 7.7291
 Frc consts  --      4.1536                 0.8312                 4.8573
 IR Inten    --     59.2106                 0.3258               131.3296

                     55                     56                     57
                      A                      A                      A
 Frequencies --   1119.3250              1126.0306              1161.6393
 Red. masses --      5.0230                 4.3121                 1.3314
 Frc consts  --      3.7079                 3.2214                 1.0585
 IR Inten    --    192.6783               336.4153                29.5090

                     58                     59                     60
                      A                      A                      A
 Frequencies --   1161.8860              1164.6964              1166.6358
 Red. masses --      2.0792                 1.3539                 1.2765
 Frc consts  --      1.6538                 1.0821                 1.0236
 IR Inten    --    223.4911                32.1744                 1.2754

                     61                     62                     63
                      A                      A                      A
 Frequencies --   1174.7546              1199.7629              1209.4993
 Red. masses --      1.8986                 1.6088                 1.5766
 Frc consts  --      1.5437                 1.3644                 1.3589
 IR Inten    --     85.1332                31.6199                19.7691

                     64                     65                     66
                      A                      A                      A
 Frequencies --   1215.3284              1239.2967              1269.5610
 Red. masses --      1.8353                 2.5837                 5.5199
 Frc consts  --      1.5972                 2.3380                 5.2419
 IR Inten    --    218.5411               269.1766               695.0778

                     67                     68                     69
                      A                      A                      A
 Frequencies --   1283.8055              1303.0482              1308.8242
 Red. masses --      2.3062                 4.7570                 3.4267
 Frc consts  --      2.2395                 4.7589                 3.4585
 IR Inten    --    191.5619               192.7716               430.5800

                     70                     71                     72
                      A                      A                      A
 Frequencies --   1344.9841              1366.5274              1420.7956
 Red. masses --      7.8520                 3.3408                 4.9372
 Frc consts  --      8.3689                 3.6757                 5.8721
 IR Inten    --     70.5591               147.6139                52.7646

                     73                     74                     75
                      A                      A                      A
 Frequencies --   1465.4780              1468.6630              1472.9714
 Red. masses --      1.2269                 1.2135                 1.1612
 Frc consts  --      1.5525                 1.5422                 1.4844
 IR Inten    --     18.8563                24.4199                 3.6249

                     76                     77                     78
                      A                      A                      A
 Frequencies --   1475.8329              1476.2807              1482.9324
 Red. masses --      1.0449                 1.0453                 1.0440
 Frc consts  --      1.3409                 1.3422                 1.3527
 IR Inten    --     16.9556                16.8514                18.1811

                     79                     80                     81
                      A                      A                      A
 Frequencies --   1483.7556              1485.1474              1492.1474
 Red. masses --      1.0456                 1.0839                 1.0514
 Frc consts  --      1.3563                 1.4086                 1.3792
 IR Inten    --     17.8141                43.4472                35.8140

                     82                     83                     84
                      A                      A                      A
 Frequencies --   1502.6699              1580.0075              1626.6507
 Red. masses --      3.0425                 6.3598                 6.9105
 Frc consts  --      4.0477                 9.3543                10.7733
 IR Inten    --     94.6162                94.3916                 0.0133

                     85                     86                     87
                      A                      A                      A
 Frequencies --   1676.7500              1709.7413              1715.8242
 Red. masses --     10.0364                11.7885                11.3506
 Frc consts  --     16.6251                20.3034                19.6886
 IR Inten    --     44.1303               903.9802               113.6786

                     88                     89                     90
                      A                      A                      A
 Frequencies --   1746.1874              1746.8467              1750.3452
 Red. masses --     12.2997                11.6891                12.0274
 Frc consts  --     22.0966                21.0155                21.7106
 IR Inten    --   1350.2603               340.8355                65.3745

                     91                     92                     93
                      A                      A                      A
 Frequencies --   3060.1232              3060.8771              3062.4240
 Red. masses --      1.0293                 1.0295                 1.0293
 Frc consts  --      5.6789                 5.6829                 5.6874
 IR Inten    --     36.5004                29.9823                31.1695

                     94                     95                     96
                      A                      A                      A
 Frequencies --   3140.2137              3142.7913              3144.9644
 Red. masses --      1.1082                 1.1084                 1.1088
 Frc consts  --      6.4388                 6.4501                 6.4617
 IR Inten    --     20.4058                19.8403                17.1768

                     97                     98                     99
                      A                      A                      A
 Frequencies --   3166.4835              3173.4708              3177.4154
 Red. masses --      1.1057                 1.1067                 1.1068
 Frc consts  --      6.5322                 6.5668                 6.5839
 IR Inten    --     18.4934                13.1415                12.1278

                    100                    101                    102
                      A                      A                      A
 Frequencies --   3187.7764              3195.1277              3200.3491
 Red. masses --      1.0891                 1.0932                 1.0958
 Frc consts  --      6.5207                 6.5752                 6.6129
 IR Inten    --      0.5416                 0.1771                 2.5030

 - Thermochemistry -
 -------------------
 Temperature   298.150 Kelvin.  Pressure   1.00000 Atm.
 Atom     1 has atomic number  6 and mass  12.00000

 Molecular mass:   332.05322 amu.
 Principal axes and moments of inertia in atomic units:
                           1         2         3
     Eigenvalues --  5929.499709703.48373**********
           X            0.80743  -0.58947  -0.02400
           Y            0.57656   0.77981   0.24387
           Z           -0.12504  -0.21075   0.96951
 This molecule is an asymmetric top.
 Rotational symmetry number  1.
 Warning -- assumption of classical behavior for rotation
           may cause significant error
 Rotational temperatures (Kelvin)      0.01461     0.00893     0.00615
 Rotational constants (GHZ):           0.30437     0.18599     0.12820
 Zero-point vibrational energy     676557.3 (Joules/Mol)
                                  161.70107 (Kcal/Mol)
 Warning -- explicit consideration of  35 degrees of freedom as
           vibrations may cause significant error
 Vibrational temperatures:     25.93    34.29    53.58    69.14    89.62
          (Kelvin)             97.22   113.39   138.39   153.20   175.34
                              196.31   200.57   206.54   213.44   245.31
                              267.62   285.39   294.40   340.75   367.99
                              376.38   400.79   444.08   453.16   468.92
                              533.94   539.60   558.75   632.63   664.43
                              701.15   752.17   791.90   879.17   891.92
                              944.34   966.75  1047.52  1063.96  1074.19
                             1095.31  1124.10  1146.57  1166.41  1188.84
                             1246.31  1248.57  1272.54  1316.35  1368.00
                             1396.37  1436.69  1442.54  1485.94  1610.46
                             1620.11  1671.34  1671.69  1675.74  1678.53
                             1690.21  1726.19  1740.20  1748.59  1783.07
                             1826.62  1847.11  1874.80  1883.11  1935.13
                             1966.13  2044.21  2108.50  2113.08  2119.28
                             2123.39  2124.04  2133.61  2134.79  2136.80
                             2146.87  2162.01  2273.28  2340.39  2412.47
                             2459.94  2468.69  2512.37  2513.32  2518.36
                             4402.83  4403.92  4406.15  4518.07  4521.78
                             4524.90  4555.86  4565.92  4571.59  4586.50
                             4597.08  4604.59

 Zero-point correction=                           0.257687 (Hartree/Particle)
 Thermal correction to Energy=                    0.280772
 Thermal correction to Enthalpy=                  0.281716
 Thermal correction to Gibbs Free Energy=         0.202425
 Sum of electronic and zero-point Energies=          -1218.817048
 Sum of electronic and thermal Energies=             -1218.793964
 Sum of electronic and thermal Enthalpies=           -1218.793019
 Sum of electronic and thermal Free Energies=        -1218.872310

                     E (Thermal)             CV                S
                      KCal/Mol        Cal/Mol-Kelvin    Cal/Mol-Kelvin
 Total                  176.187             81.399            166.881
 Electronic               0.000              0.000              0.000
 Translational            0.889              2.981             43.295
 Rotational               0.889              2.981             35.048
 Vibrational            174.410             75.437             88.538
 Vibration     1          0.593              1.986              6.841
 Vibration     2          0.593              1.985              6.286
 Vibration     3          0.594              1.982              5.401
 Vibration     4          0.595              1.978              4.896
 Vibration     5          0.597              1.972              4.383
 Vibration     6          0.598              1.970              4.223
 Vibration     7          0.600              1.963              3.920
 Vibration     8          0.603              1.952              3.530
 Vibration     9          0.605              1.944              3.332
 Vibration    10          0.609              1.931              3.071
 Vibration    11          0.614              1.917              2.853
 Vibration    12          0.615              1.914              2.812
 Vibration    13          0.616              1.910              2.756
 Vibration    14          0.618              1.904              2.693
 Vibration    15          0.626              1.879              2.430
 Vibration    16          0.632              1.859              2.267
 Vibration    17          0.637              1.842              2.148
 Vibration    18          0.640              1.833              2.091
 Vibration    19          0.656              1.784              1.827
 Vibration    20          0.666              1.753              1.690
 Vibration    21          0.669              1.743              1.651
 Vibration    22          0.679              1.713              1.543
 Vibration    23          0.698              1.657              1.370
 Vibration    24          0.702              1.645              1.336
 Vibration    25          0.710              1.624              1.280
 Vibration    26          0.743              1.532              1.075
 Vibration    27          0.746              1.523              1.059
 Vibration    28          0.757              1.495              1.006
 Vibration    29          0.800              1.384              0.828
 Vibration    30          0.820              1.335              0.761
 Vibration    31          0.843              1.278              0.691
 Vibration    32          0.878              1.200              0.604
 Vibration    33          0.906              1.139              0.543
 Vibration    34          0.970              1.008              0.431
 Vibration    35          0.980              0.990              0.417

 Optimization completed.
    -- Stationary point found.
 Normal termination of Gaussian 16 at Sun Feb 11 04:34:13 2024.
