 Gaussian 16, Revision A.03,
 Gaussian 16:  ES64L-G16RevA.03 25-Dec-2016

 ----------------------------------------------------------------
 #P UB3LYP/6-311++G(d,p) SCRF=(PCM,Solvent=n,n-DiMethylFormamide)
 ----------------------------------------------------------------

 ------------------
 Radical PCM in DMF
 ------------------
 Symbolic Z-matrix:
 Charge = -1 Multiplicity = 2

                         Standard orientation:
 ---------------------------------------------------------------------
 Center     Atomic      Atomic             Coordinates (Angstroms)
 Number     Number       Type             X           Y           Z
 ---------------------------------------------------------------------
      1          6           0       -2.521186   -0.924020    0.030025
      2          6           0       -2.429689   -2.299777   -0.075949
      3          6           0       -1.165658   -2.905543   -0.219219
      4          6           0       -1.375996   -0.101021    0.014197
      5          6           0       -0.090275   -0.718525   -0.094938
      6          6           0       -0.023400   -2.123520   -0.230590
      7          6           0       -1.551434    1.360561    0.078355
      8          6           0       -0.312144    2.193188    0.003035
      9          6           0        0.951388    1.484500   -0.056343
     10          6           0        1.086440    0.119062   -0.090677
     11          8           0       -2.685364    1.873556    0.179772
     12          8           0       -0.350296    3.445047    0.017602
     13          1           0       -3.480701   -0.427207    0.119918
     14          1           0       -3.327870   -2.910376   -0.062763
     15          1           0       -1.085740   -3.982999   -0.330527
     16          1           0        0.948704   -2.582966   -0.367498
     17          1           0        1.826568    2.126513   -0.059725
     18          7           0        2.372106   -0.528545   -0.131852
     19          6           0        3.442270    0.211686   -0.777511
     20          6           0        2.799074   -1.067116    1.157325
     21          1           0        3.099472    0.589989   -1.741841
     22          1           0        4.289629   -0.462561   -0.946739
     23          1           0        3.813111    1.068175   -0.185302
     24          1           0        1.988750   -1.637093    1.612165
     25          1           0        3.096067   -0.271436    1.865149
     26          1           0        3.656211   -1.735903    1.014868
 ---------------------------------------------------------------------

 SCF Done:  E(UB3LYP) =  -669.406137288     A.U. after   19 cycles

 The electronic state is 2-A.
 Alpha  occ. eigenvalues --  -19.07651 -19.07152 -14.31663 -10.21525 -10.21349
 Alpha  occ. eigenvalues --  -10.20398 -10.18822 -10.18640 -10.17817 -10.17126
 Alpha  occ. eigenvalues --  -10.17012 -10.17005 -10.16998 -10.16724 -10.15375
 Alpha  occ. eigenvalues --   -1.01213  -0.98478  -0.93494  -0.85650  -0.79597
 Alpha  occ. eigenvalues --   -0.75245  -0.72777  -0.70569  -0.68970  -0.63115
 Alpha  occ. eigenvalues --   -0.61174  -0.59076  -0.55527  -0.51129  -0.49793
 Alpha  occ. eigenvalues --   -0.48933  -0.45916  -0.45388  -0.44475  -0.43433
 Alpha  occ. eigenvalues --   -0.42050  -0.41567  -0.41376  -0.40275  -0.39585
 Alpha  occ. eigenvalues --   -0.38516  -0.37701  -0.36933  -0.36590  -0.35075
 Alpha  occ. eigenvalues --   -0.34532  -0.33351  -0.30446  -0.25976  -0.25658
 Alpha  occ. eigenvalues --   -0.23629  -0.22283  -0.21607  -0.15084
 Alpha virt. eigenvalues --   -0.03427  -0.00561  -0.00369   0.00572   0.01361
 Alpha virt. eigenvalues --    0.01929   0.02642   0.02784   0.03661   0.03816
 Alpha virt. eigenvalues --    0.04734   0.04989   0.05349   0.05603   0.06375

  Beta  occ. eigenvalues --  -19.07024 -19.06587 -14.31617 -10.21334 -10.21191
  Beta  occ. eigenvalues --  -10.20169 -10.18801 -10.18641 -10.17736 -10.17067
  Beta  occ. eigenvalues --  -10.17012 -10.16978 -10.16969 -10.16684 -10.15433
  Beta  occ. eigenvalues --   -1.00165  -0.97384  -0.93304  -0.85462  -0.79252
  Beta  occ. eigenvalues --   -0.74992  -0.72640  -0.70513  -0.68314  -0.62757
  Beta  occ. eigenvalues --   -0.61051  -0.58690  -0.55309  -0.50954  -0.49603
  Beta  occ. eigenvalues --   -0.48701  -0.45718  -0.45235  -0.44282  -0.43301
  Beta  occ. eigenvalues --   -0.41902  -0.41180  -0.39974  -0.39832  -0.39196
  Beta  occ. eigenvalues --   -0.38401  -0.37520  -0.36844  -0.35574  -0.34929
  Beta  occ. eigenvalues --   -0.33252  -0.32102  -0.29186  -0.25330  -0.24760
  Beta  occ. eigenvalues --   -0.23108  -0.21685  -0.20888
  Beta virt. eigenvalues --   -0.08522  -0.02641  -0.00473   0.00559   0.00956
  Beta virt. eigenvalues --    0.01393   0.01998   0.02670   0.02795   0.03817
  Beta virt. eigenvalues --    0.04417   0.04771   0.05088   0.05492   0.05954

 Mulliken charges and spin densities:
               1          2
     1  C    0.076586   0.060299
     2  C   -0.485957   0.007573
     3  C   -0.414168   0.061971
     4  C    0.393711   0.020698
     5  C    0.168100   0.051018
     6  C   -0.064832  -0.000357
     7  C   -0.450312   0.115531
     8  C   -0.113325   0.165187
     9  C   -0.158078  -0.061686
    10  C   -0.229869   0.111077
    11  O   -0.488296   0.236260
    12  O   -0.518914   0.202777
    13  H    0.171009  -0.004070
    14  H    0.177079  -0.001345
    15  H    0.183576  -0.004329
    16  H    0.178492  -0.000139
    17  H    0.172009   0.002024
    18  N    0.144335   0.024042
    19  C   -0.255122  -0.001588
    20  C   -0.357376   0.009829
    21  H    0.158929  -0.000033
    22  H    0.152810   0.000626
    23  H    0.124130   0.002397
    24  H    0.124535  -0.000156
    25  H    0.141525  -0.001037
    26  H    0.169421   0.003436
 Sum of Mulliken charges =  -1.00000   1.00000

 Dipole moment (field-independent basis, Debye):
    X=              8.5878    Y=            -12.4746    Z=              0.0048  Tot=             15.1448
 Quadrupole moment (field-independent basis, Debye-Ang):
   XX=           -102.7551   YY=           -131.2637   ZZ=            -93.9233
   XY=             16.4047   XZ=              1.7246   YZ=             -2.2139

 Normal termination of Gaussian 16 at Sat Jan 13 19:19:36 2024.
