 Q-Chem 5.4, Q-Chem, Inc., Pleasanton, CA (2021)
 Q-Chem 5.4.0 for Intel X86 EM64T Linux

User input:
--------------------------------------------------------------
$molecule
-2 1
O                  0.0157050000     -2.4362130000     -0.8498160000
C                  0.0408500000     -1.2389450000     -0.4570830000
C                  1.3220380000     -0.6171030000     -0.1627870000
C                  2.4396360000     -1.5158250000     -0.1823140000
C                  3.7353760000     -1.1295030000      0.0526690000
C                  4.0298640000      0.2411810000      0.3089990000
C                  2.9856790000      1.1351340000      0.3511450000
C                  1.6197550000      0.7725160000      0.1599960000
C                  0.6828870000      1.8346790000      0.2219380000
C                 -0.6852330000      1.8486200000      0.0837620000
C                 -1.6371320000      0.7689910000     -0.0125860000
C                 -3.0059380000      1.1259580000      0.1399100000
C                 -4.0452080000      0.2037930000      0.0581320000
C                 -3.7462610000     -1.1354810000     -0.1583700000
C                 -2.4006630000     -1.5178880000     -0.2837950000
C                 -1.3349900000     -0.6105350000     -0.2292280000
H                  2.2091460000     -2.5534490000     -0.3904800000
H                  4.5374190000     -1.8649050000      0.0358230000
H                  5.0541740000      0.5741690000      0.4620360000
H                  3.1968710000      2.1860560000      0.5431510000
H                  1.1337100000      2.8137060000      0.3878740000
H                 -1.1485270000      2.8289460000      0.1823910000
H                 -3.2420860000      2.1754080000      0.2967050000
H                 -5.0792130000      0.5383900000      0.1453410000
H                 -4.5387360000     -1.8751890000     -0.2390560000
H                 -2.1391210000     -2.5525080000     -0.4643560000
$end
$rem
MAX_SCF_CYCLES=200
BASIS  =  6-311++G(d,p)
GUI  =  2
JOB_TYPE  =  SP
METHOD  =  B3LYP
SOLVENT_METHOD = COSMO
$end
$solvent
dielectric 37.219
opticaldielectric 1.43
$end

--------------------------------------------------------------

             Standard Nuclear Orientation (Angstroms)
    I     Atom           X                Y                Z
 ----------------------------------------------------------------
    1      O       0.0158313518    -2.3931378516     0.3494404061
    2      C      -0.0246052880    -1.1439013755     0.1879001668
    3      C      -1.3159547264    -0.4887128360     0.0541657081
    4      C      -2.4302123512    -1.3845302836    -0.0600659552
    5      C      -3.7336636640    -0.9719016295    -0.1790454257
    6      C      -4.0394081332     0.4200588802    -0.1660401265
    7      C      -2.9992308107     1.3148000904    -0.0726598810
    8      C      -1.6270748535     0.9342087227     0.0055473298
    9      C      -0.6951910895     1.9970096144     0.1141549465
   10      C       0.6765786724     1.9962573483     0.2105211600
   11      C       1.6336412986     0.9254904654     0.0745695768
   12      C       2.9960746520     1.3159215839    -0.0505273216
   13      C       4.0396248526     0.4032916389    -0.1740895473
   14      C       3.7508974494    -0.9552905843    -0.2021626890
   15      C       2.4108649258    -1.3654779779    -0.1091053963
   16      C       1.3418216585    -0.4726895852     0.0392231093
   17      H      -2.1907580397    -2.4408302218    -0.0562761895
   18      H      -4.5330025073    -1.7041594033    -0.2751122231
   19      H      -5.0688449630     0.7672598805    -0.2228167629
   20      H      -3.2189174425     2.3813122038    -0.0586916759
   21      H      -1.1533903307     2.9860501985     0.1476538819
   22      H       1.1341627138     2.9815826280     0.2823474402
   23      H       3.2246204384     2.3781212135    -0.0159640035
   24      H       5.0695454741     0.7568113813    -0.2289913440
   25      H       4.5473039600    -1.6905023438    -0.2851995496
   26      H       2.1576543253    -2.4177471571    -0.1167867503
 ----------------------------------------------------------------

   16    -652.9239636265      4.29e-06  Convergence criterion met
 Total energy in the final basis set =     -652.9239636265
    7    -653.1740352194      9.22e-06  Convergence criterion met
 Total energy in the final basis set =     -653.1740352194

                    Orbital Energies (a.u.)
 --------------------------------------------------------------

 Alpha MOs
 -- Occupied --
-19.0240 -10.1744 -10.1603 -10.1501 -10.1453 -10.1412 -10.1364 -10.1360
-10.1353 -10.1304 -10.1297 -10.1282 -10.1282 -10.1230 -10.1211 -10.1195
 -0.9563  -0.8267  -0.8135  -0.7620  -0.7241  -0.7186  -0.7082  -0.6772
 -0.6079  -0.6021  -0.5636  -0.5549  -0.5243  -0.5136  -0.4672  -0.4558
 -0.4415  -0.4274  -0.4147  -0.3990  -0.3868  -0.3835  -0.3745  -0.3726
 -0.3626  -0.3459  -0.3385  -0.3205  -0.3158  -0.3111  -0.3033  -0.2925
 -0.2827  -0.2387  -0.2260  -0.2169  -0.2005  -0.1794  -0.0723

          Ground-State Mulliken Net Atomic Charges

     Atom                 Charge (a.u.)
  ----------------------------------------
      1 O                    -0.610493
      2 C                    -0.856360
      3 C                     0.658800
      4 C                    -0.153291
      5 C                    -0.482128
      6 C                    -0.547235
      7 C                    -0.313355
      8 C                    -0.110844
      9 C                    -0.267859
     10 C                    -0.480487
     11 C                     0.086298
     12 C                    -0.262531
     13 C                    -0.448619
     14 C                    -0.566071
     15 C                     0.045872
     16 C                     0.847611
     17 H                     0.138972
     18 H                     0.161821
     19 H                     0.152320
     20 H                     0.128823
     21 H                     0.131938
     22 H                     0.120605
     23 H                     0.137005
     24 H                     0.167914
     25 H                     0.164231
     26 H                     0.157062
  ----------------------------------------
  Sum of atomic charges =    -2.000000

                    Cartesian Multipole Moments
 -----------------------------------------------------------------
    Charge (ESU x 10^10)
                -9.6064
    Dipole Moment (Debye)
         X       1.8828      Y       5.9633      Z      -1.1657
       Tot       6.3612
    Quadrupole Moments (Debye-Ang)
        XX    -144.0142     XY       0.1099     YY    -126.5158
        XZ      -0.3019     YZ       2.8032     ZZ    -112.3108

 Total job time:  77.77s(wall), 582.15s(cpu)
        *  Thank you very much for using Q-Chem.  Have a nice day.  *
