 Gaussian 16, Revision A.03,
 Gaussian 16:  ES64L-G16RevA.03 25-Dec-2016

 ----------------------------------------------------------------------
 #P UB3LYP/6-311++G(d,p) nosym opt freq SCRF=(PCM,Solvent=n,n-DiMethylF
 ormamide)
 ----------------------------------------------------------------------

 --------
 Oxidized
 --------
 Symbolic Z-matrix:
 Charge =  0 Multiplicity = 1

 SCF Done:  E(UB3LYP) =  -1043.10154489     A.U. after   16 cycles
 SCF Done:  E(UB3LYP) =  -1043.10161963     A.U. after   11 cycles
 SCF Done:  E(UB3LYP) =  -1043.10162201     A.U. after   11 cycles
 SCF Done:  E(UB3LYP) =  -1043.10162778     A.U. after   11 cycles
 SCF Done:  E(UB3LYP) =  -1043.10162871     A.U. after   10 cycles
 Optimization completed.
    -- Stationary point found.
 Normal termination of Gaussian 16 at Sun Feb 11 01:51:54 2024.

 ----------------------------------------------------------------------
 #P Geom=AllCheck Guess=TCheck SCRF=Check GenChk UB3LYP/6-311++G(d,p) F
 req
 ----------------------------------------------------------------------

 Structure from the checkpoint file:  "288.chk"
 --------
 Oxidized
 --------
 Charge =  0 Multiplicity = 1

                          Input orientation:
 ---------------------------------------------------------------------
 Center     Atomic      Atomic             Coordinates (Angstroms)
 Number     Number       Type             X           Y           Z
 ---------------------------------------------------------------------
      1          6           0       -2.040797    3.000872    0.533802
      2          6           0       -2.768566    2.311337    1.500038
      3          6           0       -2.309449    1.080462    1.970921
      4          6           0       -0.852650    2.457474    0.039598
      5          6           0       -0.387342    1.217508    0.511625
      6          6           0       -1.123835    0.535308    1.478372
      7          6           0       -0.072814    3.175346   -0.982163
      8          6           0        1.192987    2.553089   -1.469008
      9          6           0        1.656999    1.354951   -1.035436
     10          6           0        0.886519    0.622821   -0.012106
     11          8           0       -0.395758    4.258357   -1.460684
     12          8           0        1.275779   -0.463735    0.407017
     13          1           0       -2.382812    3.956748    0.157167
     14          1           0       -3.690013    2.731166    1.885275
     15          1           0       -2.875741    0.544083    2.723183
     16          1           0       -0.761353   -0.418993    1.838443
     17          6           0        2.943085    0.761440   -1.539514
     18          8           0        1.843671    3.280370   -2.391011
     19          1           0        3.113282    1.093739   -2.566676
     20          1           0        2.843694   -0.326602   -1.553295
     21          1           0        1.307415    4.081481   -2.544235
     22          6           0        4.162762    1.144207   -0.673546
     23          6           0        5.465699    0.522140   -1.186275
     24          6           0        6.688969    0.892499   -0.340045
     25          1           0        3.984923    0.824396    0.358921
     26          1           0        4.260133    2.235496   -0.652421
     27          1           0        5.633397    0.838146   -2.223873
     28          1           0        5.359135   -0.569873   -1.210979
     29          1           0        6.518985    0.577112    0.697488
     30          1           0        6.793651    1.984867   -0.314857
     31          6           0        7.995290    0.271775   -0.848390
     32          6           0        9.218999    0.637529   -0.000652
     33          6           0       10.525455    0.015272   -0.506615
     34          6           0       11.748963    0.379359    0.342244
     35          6           0       13.055361   -0.243544   -0.162482
     36          6           0       14.279230    0.119483    0.686332
     37          6           0       15.579426   -0.507860    0.174334
     38          1           0        8.166182    0.588794   -1.885397
     39          1           0        7.888814   -0.820469   -0.876231
     40          1           0        9.046791    0.321589    1.036527
     41          1           0        9.326046    1.729786    0.026565
     42          1           0       10.698313    0.331806   -1.543517
     43          1           0       10.417784   -1.076911   -0.534687
     44          1           0       11.575668    0.063283    1.379244
     45          1           0       11.857057    1.471539    0.369967
     46          1           0       13.230192    0.072526   -1.199369
     47          1           0       12.948318   -1.335956   -0.190490
     48          1           0       14.105267   -0.196415    1.722282
     49          1           0       14.387159    1.210733    0.714133
     50          1           0       15.514119   -1.600733    0.167466
     51          1           0       16.431647   -0.229705    0.801063
     52          1           0       15.798265   -0.183107   -0.848077
 ---------------------------------------------------------------------

 SCF Done:  E(UB3LYP) =  -1043.10162871     A.U. after    1 cycles

 Alpha  occ. eigenvalues --  -19.18091 -19.15104 -19.13022 -10.29526 -10.28222
 Alpha  occ. eigenvalues --  -10.26922 -10.21322 -10.21210 -10.20545 -10.20378
 Alpha  occ. eigenvalues --  -10.20189 -10.20020 -10.20002 -10.17796 -10.16899
 Alpha  occ. eigenvalues --  -10.16283 -10.16159 -10.16083 -10.15982 -10.15942
 Alpha  occ. eigenvalues --  -10.15930 -10.15916 -10.15902 -10.15529  -1.11012
 Alpha  occ. eigenvalues --   -1.06862  -1.06145  -0.89490  -0.84617  -0.81421
 Alpha  occ. eigenvalues --   -0.80426  -0.79050  -0.78247  -0.77266  -0.74835
 Alpha  occ. eigenvalues --   -0.72015  -0.69752  -0.67626  -0.65778  -0.64270
 Alpha  occ. eigenvalues --   -0.61851  -0.60728  -0.59278  -0.57963  -0.57602
 Alpha  occ. eigenvalues --   -0.57365  -0.57153  -0.54486  -0.52078  -0.49992
 Alpha  occ. eigenvalues --   -0.48670  -0.48129  -0.47505  -0.47272  -0.46882
 Alpha  occ. eigenvalues --   -0.45849  -0.45517  -0.44722  -0.43931  -0.43200
 Alpha  occ. eigenvalues --   -0.42814  -0.42676  -0.42325  -0.41368  -0.41038
 Alpha  occ. eigenvalues --   -0.40229  -0.40092  -0.38983  -0.38232  -0.38042
 Alpha  occ. eigenvalues --   -0.37783  -0.37288  -0.37210  -0.35659  -0.35049
 Alpha  occ. eigenvalues --   -0.34174  -0.33746  -0.33424  -0.32812  -0.32500
 Alpha  occ. eigenvalues --   -0.32268  -0.32066  -0.31983  -0.30550  -0.29967
 Alpha  occ. eigenvalues --   -0.29157  -0.28233  -0.28043  -0.25846
 Alpha virt. eigenvalues --   -0.12788  -0.05858  -0.02804  -0.00973  -0.00410
 Alpha virt. eigenvalues --    0.00113   0.00412   0.00551   0.00957   0.01276
 Alpha virt. eigenvalues --    0.01585   0.01965   0.02110   0.02239   0.02918

  Beta  occ. eigenvalues --  -19.18091 -19.15104 -19.13022 -10.29526 -10.28222
  Beta  occ. eigenvalues --  -10.26922 -10.21322 -10.21210 -10.20545 -10.20378
  Beta  occ. eigenvalues --  -10.20189 -10.20020 -10.20002 -10.17796 -10.16899
  Beta  occ. eigenvalues --  -10.16283 -10.16159 -10.16083 -10.15982 -10.15942
  Beta  occ. eigenvalues --  -10.15930 -10.15916 -10.15902 -10.15529  -1.11012
  Beta  occ. eigenvalues --   -1.06862  -1.06145  -0.89490  -0.84617  -0.81421
  Beta  occ. eigenvalues --   -0.80426  -0.79050  -0.78247  -0.77266  -0.74835
  Beta  occ. eigenvalues --   -0.72015  -0.69752  -0.67626  -0.65778  -0.64270
  Beta  occ. eigenvalues --   -0.61851  -0.60728  -0.59278  -0.57963  -0.57602
  Beta  occ. eigenvalues --   -0.57365  -0.57153  -0.54486  -0.52078  -0.49992
  Beta  occ. eigenvalues --   -0.48670  -0.48129  -0.47505  -0.47272  -0.46882
  Beta  occ. eigenvalues --   -0.45849  -0.45517  -0.44722  -0.43931  -0.43200
  Beta  occ. eigenvalues --   -0.42814  -0.42676  -0.42325  -0.41368  -0.41038
  Beta  occ. eigenvalues --   -0.40229  -0.40092  -0.38983  -0.38232  -0.38042
  Beta  occ. eigenvalues --   -0.37783  -0.37288  -0.37210  -0.35659  -0.35049
  Beta  occ. eigenvalues --   -0.34174  -0.33746  -0.33424  -0.32812  -0.32500
  Beta  occ. eigenvalues --   -0.32268  -0.32066  -0.31983  -0.30550  -0.29967
  Beta  occ. eigenvalues --   -0.29157  -0.28233  -0.28043  -0.25846
  Beta virt. eigenvalues --   -0.12788  -0.05858  -0.02804  -0.00973  -0.00410
  Beta virt. eigenvalues --    0.00113   0.00412   0.00551   0.00957   0.01276
  Beta virt. eigenvalues --    0.01585   0.01965   0.02110   0.02239   0.02918

 Mulliken charges and spin densities:
               1          2
     1  C    0.133418  -0.000000
     2  C   -0.378400   0.000000
     3  C   -0.393317  -0.000000
     4  C    0.583084   0.000000
     5  C   -0.139840  -0.000000
     6  C    0.136477   0.000000
     7  C   -0.842436  -0.000000
     8  C   -0.476407  -0.000000
     9  C    1.941593   0.000000
    10  C   -0.768133   0.000000
    11  O   -0.315106  -0.000000
    12  O   -0.281220  -0.000000
    13  H    0.191537   0.000000
    14  H    0.211507   0.000000
    15  H    0.207693  -0.000000
    16  H    0.192184   0.000000
    17  C   -0.383978  -0.000000
    18  O   -0.221041   0.000000
    19  H    0.235256   0.000000
    20  H    0.221705   0.000000
    21  H    0.307838  -0.000000
    22  C   -0.892830  -0.000000
    23  C   -0.335716  -0.000000
    24  C   -0.030637  -0.000000
    25  H    0.179459   0.000000
    26  H    0.178104  -0.000000
    27  H    0.119050  -0.000000
    28  H    0.121283  -0.000000
    29  H    0.127838  -0.000000
    30  H    0.128334  -0.000000
    31  C    0.030703  -0.000000
    32  C    0.057237   0.000000
    33  C   -0.041991   0.000000
    34  C   -0.305353   0.000000
    35  C   -0.495605  -0.000000
    36  C   -0.286924  -0.000000
    37  C   -0.689782  -0.000000
    38  H    0.133283  -0.000000
    39  H    0.133290  -0.000000
    40  H    0.129451   0.000000
    41  H    0.129957   0.000000
    42  H    0.128728   0.000000
    43  H    0.128682   0.000000
    44  H    0.126912   0.000000
    45  H    0.126782   0.000000
    46  H    0.123854   0.000000
    47  H    0.123708   0.000000
    48  H    0.130959   0.000000
    49  H    0.130895   0.000000
    50  H    0.139865   0.000000
    51  H    0.148209   0.000000
    52  H    0.139841   0.000000
 Sum of Mulliken charges =  -0.00000   0.00000

 Dipole moment (field-independent basis, Debye):
    X=             -2.4656    Y=              1.1792    Z=              1.3259  Tot=              3.0377
 Quadrupole moment (field-independent basis, Debye-Ang):
   XX=           -141.8480   YY=           -152.3497   ZZ=           -145.7400
   XY=              0.1666   XZ=             -7.5231   YZ=              2.7963

  Exact polarizability: 394.278 -44.917 366.411 -48.301 -50.725 317.262
 Approx polarizability: 392.370 -53.793 458.237 -46.597 -80.417 362.919

                      1                      2                      3
                      A                      A                      A
 Frequencies --     10.6707                18.0153                23.2636
 Red. masses --      5.2399                 4.5869                 1.8427
 Frc consts  --      0.0004                 0.0009                 0.0006
 IR Inten    --      0.1334                 0.6136                 0.0290

                      4                      5                      6
                      A                      A                      A
 Frequencies --     29.1992                40.8399                59.6521
 Red. masses --      3.2444                 5.0816                 2.7754
 Frc consts  --      0.0016                 0.0050                 0.0058
 IR Inten    --      0.1957                 2.3167                 0.5408

                      7                      8                      9
                      A                      A                      A
 Frequencies --     69.6466                73.0770                94.8441
 Red. masses --      6.2093                 1.7782                 5.0588
 Frc consts  --      0.0177                 0.0056                 0.0268
 IR Inten    --      5.0110                 0.1420                 0.0815

                     10                     11                     12
                      A                      A                      A
 Frequencies --    103.1629               110.8759               119.4311
 Red. masses --      2.2206                 4.6593                 1.9318
 Frc consts  --      0.0139                 0.0337                 0.0162
 IR Inten    --      0.1815                 0.0600                 0.0367

                     13                     14                     15
                      A                      A                      A
 Frequencies --    121.7657               140.8771               159.0719
 Red. masses --      5.7748                 1.9907                 2.0255
 Frc consts  --      0.0504                 0.0233                 0.0302
 IR Inten    --      0.0046                 0.0274                 0.0378

                     16                     17                     18
                      A                      A                      A
 Frequencies --    161.6130               167.6644               177.2779
 Red. masses --      4.6601                 1.9961                 5.0999
 Frc consts  --      0.0717                 0.0331                 0.0944
 IR Inten    --      0.9716                 0.0288                 0.5901

                     19                     20                     21
                      A                      A                      A
 Frequencies --    228.5875               243.1883               253.0486
 Red. masses --      4.2201                 1.1203                 4.3152
 Frc consts  --      0.1299                 0.0390                 0.1628
 IR Inten    --      0.0732                 0.0025                 0.4276

                     22                     23                     24
                      A                      A                      A
 Frequencies --    276.1241               305.1569               317.8722
 Red. masses --      3.7392                 2.9229                 4.5461
 Frc consts  --      0.1680                 0.1604                 0.2706
 IR Inten    --      0.2213                 5.6093                 0.5843

                     25                     26                     27
                      A                      A                      A
 Frequencies --    347.8582               382.1869               387.3300
 Red. masses --      5.4744                 3.6677                 8.3449
 Frc consts  --      0.3903                 0.3156                 0.7376
 IR Inten    --     21.8478                 0.7054                29.1672

                     28                     29                     30
                      A                      A                      A
 Frequencies --    400.6576               418.7524               430.3577
 Red. masses --      3.9938                 9.5975                 3.7048
 Frc consts  --      0.3777                 0.9916                 0.4043
 IR Inten    --     12.2858                14.7954                 5.8635

                     31                     32                     33
                      A                      A                      A
 Frequencies --    445.5593               468.0815               487.7246
 Red. masses --      4.8987                 4.6624                 3.7007
 Frc consts  --      0.5730                 0.6019                 0.5187
 IR Inten    --      6.8144                 8.1634                 1.8395

                     34                     35                     36
                      A                      A                      A
 Frequencies --    500.8908               528.3471               584.6300
 Red. masses --      3.4702                 6.1613                 3.1986
 Frc consts  --      0.5130                 1.0134                 0.6441
 IR Inten    --      1.0227                 6.0784                53.5057

                     37                     38                     39
                      A                      A                      A
 Frequencies --    611.2904               653.4950               676.4365
 Red. masses --      1.3013                 6.3370                 5.9785
 Frc consts  --      0.2865                 1.5945                 1.6117
 IR Inten    --     88.5845                 9.2853                 5.2936

                     40                     41                     42
                      A                      A                      A
 Frequencies --    705.7910               712.2411               728.5383
 Red. masses --      3.0824                 4.6425                 1.0571
 Frc consts  --      0.9047                 1.3876                 0.3306
 IR Inten    --      3.3251                 8.9370                16.9076

                     43                     44                     45
                      A                      A                      A
 Frequencies --    729.6390               734.5530               735.0934
 Red. masses --      1.0854                 1.2196                 2.0958
 Frc consts  --      0.3405                 0.3877                 0.6672
 IR Inten    --      1.4776                17.6712               103.8198

                     46                     47                     48
                      A                      A                      A
 Frequencies --    748.0246               773.9323               775.6702
 Red. masses --      1.2017                 1.3133                 5.7388
 Frc consts  --      0.3962                 0.4635                 2.0344
 IR Inten    --      0.4223                 1.3613                 1.8368

                     49                     50                     51
                      A                      A                      A
 Frequencies --    806.5592               812.8254               853.1860
 Red. masses --      1.9719                 1.3822                 1.7461
 Frc consts  --      0.7558                 0.5380                 0.7489
 IR Inten    --     15.4176                 2.5477                 9.7216

                     52                     53                     54
                      A                      A                      A
 Frequencies --    890.8159               893.8816               910.9476
 Red. masses --      1.6299                 1.9619                 1.3465
 Frc consts  --      0.7621                 0.9236                 0.6583
 IR Inten    --     17.7257                 2.5318                 0.0143

                     55                     56                     57
                      A                      A                      A
 Frequencies --    939.8511               945.9034               979.4838
 Red. masses --      1.4310                 4.9880                 4.9430
 Frc consts  --      0.7447                 2.6295                 2.7941
 IR Inten    --      1.5886                66.4397                10.0335

                     58                     59                     60
                      A                      A                      A
 Frequencies --    989.1568               994.8655               997.9178
 Red. masses --      3.3268                 1.5500                 1.3901
 Frc consts  --      1.9178                 0.9039                 0.8156
 IR Inten    --     19.0074                 6.0420                 1.6980

                     61                     62                     63
                      A                      A                      A
 Frequencies --   1019.2636              1021.0679              1021.9958
 Red. masses --      3.3896                 3.6312                 1.3349
 Frc consts  --      2.0748                 2.2306                 0.8215
 IR Inten    --     33.3997                 3.4130                 0.0838

                     64                     65                     66
                      A                      A                      A
 Frequencies --   1032.0825              1046.5619              1050.2428
 Red. masses --      2.4444                 2.4994                 1.6405
 Frc consts  --      1.5341                 1.6130                 1.0661
 IR Inten    --     27.5475                 1.5625                 9.8575

                     67                     68                     69
                      A                      A                      A
 Frequencies --   1058.6099              1059.7941              1064.5736
 Red. masses --      1.5686                 2.4811                 2.1663
 Frc consts  --      1.0357                 1.6419                 1.4465
 IR Inten    --     15.1947                 0.8641                 0.0123

                     70                     71                     72
                      A                      A                      A
 Frequencies --   1065.1730              1085.0342              1109.7082
 Red. masses --      2.2840                 3.0042                 2.1514
 Frc consts  --      1.5268                 2.0838                 1.5610
 IR Inten    --      0.1006                 6.2274                 4.9954

                     73                     74                     75
                      A                      A                      A
 Frequencies --   1130.9989              1137.7436              1178.3454
 Red. masses --      1.6111                 2.8533                 1.1724
 Frc consts  --      1.2142                 2.1762                 0.9591
 IR Inten    --     67.5680                 7.2851                42.4711

                     76                     77                     78
                      A                      A                      A
 Frequencies --   1192.3309              1203.3385              1224.5305
 Red. masses --      2.2385                 1.8404                 2.2161
 Frc consts  --      1.8750                 1.5702                 1.9579
 IR Inten    --     52.5760                25.9597                63.9967

                     79                     80                     81
                      A                      A                      A
 Frequencies --   1225.7682              1235.5936              1258.9313
 Red. masses --      1.2491                 1.7373                 1.2919
 Frc consts  --      1.1058                 1.5627                 1.2064
 IR Inten    --      1.1253               152.6037                 1.0358

                     82                     83                     84
                      A                      A                      A
 Frequencies --   1264.9836              1279.0553              1290.7991
 Red. masses --      1.4191                 1.8202                 1.3960
 Frc consts  --      1.3379                 1.7545                 1.3704
 IR Inten    --    121.2315               119.5587               165.4392

                     85                     86                     87
                      A                      A                      A
 Frequencies --   1293.7959              1303.6424              1311.5196
 Red. masses --      1.4487                 1.6892                 1.5456
 Frc consts  --      1.4287                 1.6914                 1.5664
 IR Inten    --     77.7591               150.1083                55.5784

                     88                     89                     90
                      A                      A                      A
 Frequencies --   1322.3991              1323.3494              1324.7742
 Red. masses --      1.1849                 1.2593                 1.2845
 Frc consts  --      1.2208                 1.2993                 1.3282
 IR Inten    --     26.5335                 1.7933                36.1740

                     91                     92                     93
                      A                      A                      A
 Frequencies --   1328.2601              1332.5107              1333.7295
 Red. masses --      1.0461                 1.2439                 1.0889
 Frc consts  --      1.0874                 1.3013                 1.1412
 IR Inten    --      0.3825                28.7860                 1.8172

                     94                     95                     96
                      A                      A                      A
 Frequencies --   1338.4764              1348.8196              1367.1983
 Red. masses --      1.6154                 1.3861                 6.4505
 Frc consts  --      1.7051                 1.4858                 7.1040
 IR Inten    --     77.3262                 1.1312               121.1588

                     97                     98                     99
                      A                      A                      A
 Frequencies --   1367.8490              1379.2299              1382.9377
 Red. masses --      1.4193                 2.1153                 1.5295
 Frc consts  --      1.5646                 2.3709                 1.7235
 IR Inten    --      6.0967               563.2321                45.1979

                    100                    101                    102
                      A                      A                      A
 Frequencies --   1392.9156              1396.0901              1396.9938
 Red. masses --      1.5743                 1.6082                 1.6353
 Frc consts  --      1.7997                 1.8468                 1.8804
 IR Inten    --      3.5846                 0.7550                 0.7156

                    103                    104                    105
                      A                      A                      A
 Frequencies --   1403.4642              1470.1718              1470.5986
 Red. masses --      1.2635                 1.1029                 1.0781
 Frc consts  --      1.4663                 1.4045                 1.3738
 IR Inten    --      2.3380                 7.7329                 2.2133

                    106                    107                    108
                      A                      A                      A
 Frequencies --   1471.0291              1473.2785              1477.2812
 Red. masses --      1.0712                 1.0773                 1.0818
 Frc consts  --      1.3658                 1.3777                 1.3910
 IR Inten    --      0.1701                 1.3409                 1.7626

                    109                    110                    111
                      A                      A                      A
 Frequencies --   1482.4967              1483.9332              1487.6271
 Red. masses --      1.1263                 2.1396                 1.0401
 Frc consts  --      1.4585                 2.7759                 1.3562
 IR Inten    --      0.2912                 7.2970                10.3869

                    112                    113                    114
                      A                      A                      A
 Frequencies --   1488.6045              1494.7755              1500.5657
 Red. masses --      1.0901                 1.0934                 1.0976
 Frc consts  --      1.4232                 1.4394                 1.4562
 IR Inten    --      2.8868                 0.8882                 4.9778

                    115                    116                    117
                      A                      A                      A
 Frequencies --   1504.5216              1505.2248              1508.2027
 Red. masses --      2.5948                 1.1147                 1.0993
 Frc consts  --      3.4606                 1.4880                 1.4732
 IR Inten    --      7.7523                 0.6931                32.4517

                    118                    119                    120
                      A                      A                      A
 Frequencies --   1610.0692              1618.9089              1672.8061
 Red. masses --      6.6591                 6.0667                10.5722
 Frc consts  --     10.1708                 9.3681                17.4305
 IR Inten    --     30.2521               307.6558               590.2777

                    121                    122                    123
                      A                      A                      A
 Frequencies --   1686.3820              1688.2721              2987.4677
 Red. masses --     11.9947                 7.5135                 1.0571
 Frc consts  --     20.0979                12.6176                 5.5589
 IR Inten    --    383.7856               133.1124                 1.8139

                    124                    125                    126
                      A                      A                      A
 Frequencies --   2988.2373              2990.2573              2991.5796
 Red. masses --      1.0573                 1.0576                 1.0579
 Frc consts  --      5.5626                 5.5718                 5.5784
 IR Inten    --      0.2746                 1.5647                 1.9014

                    127                    128                    129
                      A                      A                      A
 Frequencies --   2993.6741              2996.9117              3000.5363
 Red. masses --      1.0583                 1.0590                 1.0592
 Frc consts  --      5.5882                 5.6042                 5.6188
 IR Inten    --      6.9008                 9.5117               224.1843

                    130                    131                    132
                      A                      A                      A
 Frequencies --   3002.8112              3003.4762              3005.9497
 Red. masses --      1.0594                 1.0981                 1.0991
 Frc consts  --      5.6284                 5.8363                 5.8514
 IR Inten    --    276.4936                 0.1380                 0.0222

                    133                    134                    135
                      A                      A                      A
 Frequencies --   3010.2934              3013.0481              3016.0157
 Red. masses --      1.1006                 1.0355                 1.0746
 Frc consts  --      5.8763                 5.5387                 5.7591
 IR Inten    --      0.5356                57.0901                41.6016

                    136                    137                    138
                      A                      A                      A
 Frequencies --   3017.0441              3024.6945              3032.8990
 Red. masses --      1.0862                 1.1041                 1.1053
 Frc consts  --      5.8254                 5.9515                 5.9905
 IR Inten    --     24.3331                 0.8514                 7.6734

                    139                    140                    141
                      A                      A                      A
 Frequencies --   3039.9168              3044.9345              3047.0382
 Red. masses --      1.1056                 1.1049                 1.0599
 Frc consts  --      6.0199                 6.0358                 5.7978
 IR Inten    --      2.8060               364.6560                68.3300

                    142                    143                    144
                      A                      A                      A
 Frequencies --   3054.4801              3071.6786              3076.6603
 Red. masses --      1.1040                 1.1026                 1.1011
 Frc consts  --      6.0685                 6.1296                 6.1410
 IR Inten    --    155.7478               118.4226                72.7070

                    145                    146                    147
                      A                      A                      A
 Frequencies --   3092.7117              3180.1283              3191.9741
 Red. masses --      1.1050                 1.0875                 1.0909
 Frc consts  --      6.2273                 6.4796                 6.5490
 IR Inten    --     34.8585                 3.1767                 7.9309

                    148                    149                    150
                      A                      A                      A
 Frequencies --   3202.6882              3206.3933              3619.6610
 Red. masses --      1.0932                 1.0956                 1.0645
 Frc consts  --      6.6069                 6.6367                 8.2176
 IR Inten    --      4.3861                14.9319               280.6492

 - Thermochemistry -
 -------------------
 Temperature   298.150 Kelvin.  Pressure   1.00000 Atm.
 Atom     1 has atomic number  6 and mass  12.00000

 Molecular mass:   328.20384 amu.
 Principal axes and moments of inertia in atomic units:
                           1         2         3
     Eigenvalues --  2670.33609********************
           X            0.98791  -0.09796   0.12017
           Y           -0.15481  -0.66544   0.73022
           Z           -0.00843   0.74000   0.67256
 This molecule is an asymmetric top.
 Rotational symmetry number  1.
 Warning -- assumption of classical behavior for rotation
           may cause significant error
 Rotational temperatures (Kelvin)      0.03244     0.00226     0.00219
 Rotational constants (GHZ):           0.67585     0.04717     0.04557
 Zero-point vibrational energy    1173475.6 (Joules/Mol)
                                  280.46739 (Kcal/Mol)
 Warning -- explicit consideration of  37 degrees of freedom as
           vibrations may cause significant error
 Vibrational temperatures:     15.35    25.92    33.47    42.01    58.76
          (Kelvin)             85.83   100.21   105.14   136.46   148.43
                              159.53   171.83   175.19   202.69   228.87
                              232.53   241.23   255.06   328.89   349.89
                              364.08   397.28   439.05   457.35   500.49
                              549.88   557.28   576.46   602.49   619.19
                              641.06   673.46   701.73   720.67   760.17
                              841.15   879.51   940.23   973.24  1015.48
                             1024.76  1048.20  1049.79  1056.86  1057.64
                             1076.24  1113.52  1116.02  1160.46  1169.47
                             1227.54  1281.69  1286.10  1310.65  1352.24
                             1360.94  1409.26  1423.18  1431.39  1435.78
                             1466.49  1469.09  1470.42  1484.94  1505.77
                             1511.07  1523.10  1524.81  1531.68  1532.55
                             1561.12  1596.62  1627.26  1636.96  1695.38
                             1715.50  1731.34  1761.83  1763.61  1777.74
                             1811.32  1820.03  1840.28  1857.17  1861.48
                             1875.65  1886.98  1902.64  1904.00  1906.05
                             1911.07  1917.19  1918.94  1925.77  1940.65
                             1967.09  1968.03  1984.40  1989.74  2004.09
                             2008.66  2009.96  2019.27  2115.25  2115.86
                             2116.48  2119.72  2125.48  2132.98  2135.05
                             2140.36  2141.77  2150.65  2158.98  2164.67
                             2165.68  2169.97  2316.53  2329.25  2406.79
                             2426.33  2429.05  4298.30  4299.41  4302.31
                             4304.22  4307.23  4311.89  4317.10  4320.38
                             4321.33  4324.89  4331.14  4335.10  4339.37
                             4340.85  4351.86  4363.67  4373.76  4380.98
                             4384.01  4394.72  4419.46  4426.63  4449.72
                             4575.50  4592.54  4607.95  4613.28  5207.88

 Zero-point correction=                           0.446953 (Hartree/Particle)
 Thermal correction to Energy=                    0.472062
 Thermal correction to Enthalpy=                  0.473007
 Thermal correction to Gibbs Free Energy=         0.387227
 Sum of electronic and zero-point Energies=          -1042.654675
 Sum of electronic and thermal Energies=             -1042.629566
 Sum of electronic and thermal Enthalpies=           -1042.628622
 Sum of electronic and thermal Free Energies=        -1042.714402

                     E (Thermal)             CV                S
                      KCal/Mol        Cal/Mol-Kelvin    Cal/Mol-Kelvin
 Total                  296.224             93.008            180.538
 Electronic               0.000              0.000              0.000
 Translational            0.889              2.981             43.261
 Rotational               0.889              2.981             36.646
 Vibrational            294.446             87.047            100.631
 Vibration     1          0.593              1.987              7.882
 Vibration     2          0.593              1.986              6.842
 Vibration     3          0.593              1.985              6.334
 Vibration     4          0.593              1.984              5.883
 Vibration     5          0.594              1.981              5.218
 Vibration     6          0.597              1.974              4.469
 Vibration     7          0.598              1.969              4.163
 Vibration     8          0.599              1.967              4.069
 Vibration     9          0.603              1.953              3.558
 Vibration    10          0.605              1.947              3.394
 Vibration    11          0.607              1.940              3.254
 Vibration    12          0.609              1.933              3.110
 Vibration    13          0.609              1.931              3.072
 Vibration    14          0.615              1.912              2.792
 Vibration    15          0.621              1.892              2.561
 Vibration    16          0.622              1.889              2.531
 Vibration    17          0.624              1.882              2.462
 Vibration    18          0.628              1.870              2.357
 Vibration    19          0.651              1.797              1.890
 Vibration    20          0.659              1.774              1.779
 Vibration    21          0.664              1.758              1.709
 Vibration    22          0.678              1.718              1.558
 Vibration    23          0.696              1.664              1.388
 Vibration    24          0.704              1.639              1.321
 Vibration    25          0.725              1.580              1.176
 Vibration    26          0.752              1.508              1.030
 Vibration    27          0.756              1.497              1.010
 Vibration    28          0.766              1.469              0.960
 Vibration    29          0.782              1.429              0.896
 Vibration    30          0.792              1.404              0.857
 Vibration    31          0.805              1.371              0.809
 Vibration    32          0.825              1.321              0.743
 Vibration    33          0.844              1.277              0.690
 Vibration    34          0.856              1.248              0.656
 Vibration    35          0.883              1.187              0.591
 Vibration    36          0.942              1.065              0.477
 Vibration    37          0.970              1.008              0.431

                           ! Non-Optimized Parameters !
 Normal termination of Gaussian 16 at Sun Feb 11 08:06:39 2024.
