 Gaussian 16, Revision A.03,
 Gaussian 16:  ES64L-G16RevA.03 25-Dec-2016

 --------------------------------------
 #P UB3LYP/6-311++G(d,p) nosym opt freq
 --------------------------------------

 -------
 Radical
 -------
 Symbolic Z-matrix:
 Charge = -1 Multiplicity = 2

 SCF Done:  E(UB3LYP) =  -878.388646902     A.U. after   19 cycles
 SCF Done:  E(UB3LYP) =  -878.399348239     A.U. after   16 cycles
 SCF Done:  E(UB3LYP) =  -878.401739515     A.U. after   18 cycles
 SCF Done:  E(UB3LYP) =  -878.402716180     A.U. after   16 cycles
 SCF Done:  E(UB3LYP) =  -878.403430759     A.U. after   16 cycles
 SCF Done:  E(UB3LYP) =  -878.403804592     A.U. after   16 cycles
 SCF Done:  E(UB3LYP) =  -878.404047785     A.U. after   15 cycles
 SCF Done:  E(UB3LYP) =  -878.404109142     A.U. after   16 cycles
 SCF Done:  E(UB3LYP) =  -878.404160131     A.U. after   16 cycles
 SCF Done:  E(UB3LYP) =  -878.404190642     A.U. after   14 cycles
 SCF Done:  E(UB3LYP) =  -878.404201418     A.U. after   13 cycles
 SCF Done:  E(UB3LYP) =  -878.404203244     A.U. after   12 cycles
 SCF Done:  E(UB3LYP) =  -878.404204174     A.U. after   11 cycles
 SCF Done:  E(UB3LYP) =  -878.404204297     A.U. after   10 cycles
 SCF Done:  E(UB3LYP) =  -878.404204375     A.U. after   10 cycles
 Optimization completed.
    -- Stationary point found.
 Normal termination of Gaussian 16 at Thu Dec 21 08:22:10 2023.

 ----------------------------------------------------------------------
 #P Geom=AllCheck Guess=TCheck SCRF=Check GenChk UB3LYP/6-311++G(d,p) F
 req
 ----------------------------------------------------------------------

 Structure from the checkpoint file:  "172-rad.chk"
 -------
 Radical
 -------
 Charge = -1 Multiplicity = 2

                          Input orientation:
 ---------------------------------------------------------------------
 Center     Atomic      Atomic             Coordinates (Angstroms)
 Number     Number       Type             X           Y           Z
 ---------------------------------------------------------------------
      1          6           0       -1.391895    2.009081   -4.728538
      2          6           0       -1.430789    0.657388   -5.006800
      3          6           0       -1.335577   -0.280498   -3.955333
      4          6           0       -1.259685    2.476780   -3.402055
      5          6           0       -1.164105    1.536292   -2.347688
      6          6           0       -1.203834    0.157475   -2.652702
      7          6           0       -1.220687    3.913016   -3.146918
      8          6           0       -1.022125    1.961329   -0.958943
      9          6           0       -1.093701    4.351211   -1.765148
     10          6           0       -0.995932    3.390873   -0.688524
     11          6           0       -1.035309    5.759962   -1.464088
     12          6           0       -0.833024    6.160952   -0.142602
     13          6           0       -0.738370    5.232186    0.898615
     14          6           0       -0.841676    3.859870    0.666074
     15          8           0       -1.290189    4.715450   -4.134543
     16          8           0       -0.919396    1.072862   -0.051084
     17          1           0       -1.461677    2.752016   -5.513988
     18          1           0       -1.534319    0.314602   -6.032255
     19          1           0       -1.365935   -1.344323   -4.172432
     20          1           0       -1.127574   -0.538018   -1.825523
     21          1           0       -0.598135    5.596805    1.909025
     22          1           0       -0.763165    7.215780    0.094044
     23          7           0       -1.188625    6.692695   -2.470531
     24          7           0       -0.808237    2.960637    1.713330
     25          6           0       -0.894761    8.087051   -2.295199
     26          6           0       -0.408263    3.324535    3.043357
     27          1           0       -1.202465    6.270253   -3.401943
     28          1           0       -0.766042    1.988523    1.398053
     29          1           0        0.127469    8.271973   -1.921590
     30          1           0       -1.587816    8.575020   -1.593654
     31          1           0       -0.997766    8.588838   -3.260089
     32          1           0       -1.121114    4.013878    3.520045
     33          1           0        0.583870    3.807160    3.081972
     34          1           0       -0.368052    2.420127    3.654788
 ---------------------------------------------------------------------

 SCF Done:  E(UB3LYP) =  -878.404204375     A.U. after    1 cycles

 Alpha  occ. eigenvalues --  -18.94690 -18.94689 -14.18693 -14.18692 -10.09732
 Alpha  occ. eigenvalues --  -10.09731 -10.09437 -10.09437 -10.08451 -10.08449
 Alpha  occ. eigenvalues --  -10.05712 -10.05665 -10.04963 -10.04962 -10.04882
 Alpha  occ. eigenvalues --  -10.04844 -10.04734 -10.04687 -10.04349 -10.04297
 Alpha  occ. eigenvalues --   -0.87424  -0.87138  -0.80869  -0.80371  -0.73620
 Alpha  occ. eigenvalues --   -0.70935  -0.66013  -0.62947  -0.62766  -0.61984
 Alpha  occ. eigenvalues --   -0.58300  -0.55466  -0.54123  -0.50852  -0.49773
 Alpha  occ. eigenvalues --   -0.46041  -0.44462  -0.41552  -0.40570  -0.38566
 Alpha  occ. eigenvalues --   -0.38370  -0.35647  -0.34515  -0.34125  -0.34005
 Alpha  occ. eigenvalues --   -0.33334  -0.33005  -0.31283  -0.30347  -0.29477
 Alpha  occ. eigenvalues --   -0.29278  -0.29239  -0.28637  -0.27002  -0.26781
 Alpha  occ. eigenvalues --   -0.25441  -0.25056  -0.24952  -0.24699  -0.22743
 Alpha  occ. eigenvalues --   -0.21815  -0.21469  -0.19489  -0.14366  -0.13380
 Alpha  occ. eigenvalues --   -0.13213  -0.12094  -0.11704  -0.10936  -0.06096
 Alpha  occ. eigenvalues --   -0.00945
 Alpha virt. eigenvalues --    0.07284   0.07798   0.07873   0.08329   0.09843
 Alpha virt. eigenvalues --    0.09938   0.10220   0.11034   0.11125   0.11775
 Alpha virt. eigenvalues --    0.11907   0.13306   0.13353   0.13606   0.13947

  Beta  occ. eigenvalues --  -18.94191 -18.94190 -14.18648 -14.18647 -10.09574
  Beta  occ. eigenvalues --  -10.09573 -10.09439 -10.09438 -10.08428 -10.08427
  Beta  occ. eigenvalues --  -10.05666 -10.05618 -10.04972 -10.04970 -10.04866
  Beta  occ. eigenvalues --  -10.04828 -10.04652 -10.04605 -10.04222 -10.04169
  Beta  occ. eigenvalues --   -0.86599  -0.86283  -0.80719  -0.80242  -0.73422
  Beta  occ. eigenvalues --   -0.70761  -0.65615  -0.62741  -0.62675  -0.61801
  Beta  occ. eigenvalues --   -0.58261  -0.55177  -0.53539  -0.50700  -0.49569
  Beta  occ. eigenvalues --   -0.45952  -0.44311  -0.41335  -0.40468  -0.38445
  Beta  occ. eigenvalues --   -0.38308  -0.35386  -0.34445  -0.34002  -0.33871
  Beta  occ. eigenvalues --   -0.33218  -0.32927  -0.31158  -0.30318  -0.29384
  Beta  occ. eigenvalues --   -0.29001  -0.28536  -0.28316  -0.26672  -0.26625
  Beta  occ. eigenvalues --   -0.25256  -0.24849  -0.24395  -0.23256  -0.22594
  Beta  occ. eigenvalues --   -0.21332  -0.20642  -0.18828  -0.13044  -0.12778
  Beta  occ. eigenvalues --   -0.11917  -0.11736  -0.11271  -0.10498  -0.04979
  Beta virt. eigenvalues --    0.04303   0.07289   0.07797   0.08321   0.08682
  Beta virt. eigenvalues --    0.09838   0.10214   0.10902   0.11050   0.11141
  Beta virt. eigenvalues --    0.11777   0.11973   0.13311   0.13458   0.13709

 Mulliken charges and spin densities:
               1          2
     1  C    0.004332   0.015144
     2  C   -0.517042   0.037706
     3  C   -0.517066   0.037715
     4  C    0.195322   0.028970
     5  C    0.194968   0.028969
     6  C    0.004418   0.015137
     7  C   -0.363562   0.081280
     8  C   -0.363911   0.081280
     9  C    0.378472   0.016283
    10  C    0.378920   0.016299
    11  C   -0.086280   0.024347
    12  C   -0.258099   0.101021
    13  C   -0.257428   0.101023
    14  C   -0.085349   0.024393
    15  O   -0.378137   0.185168
    16  O   -0.378115   0.185173
    17  H    0.152478  -0.000662
    18  H    0.121624  -0.003138
    19  H    0.121624  -0.003138
    20  H    0.152492  -0.000662
    21  H    0.128325  -0.007514
    22  H    0.128364  -0.007513
    23  N   -0.240896   0.020991
    24  N   -0.240695   0.020991
    25  C   -0.389589  -0.004070
    26  C   -0.389627  -0.004057
    27  H    0.378263  -0.003335
    28  H    0.378175  -0.003335
    29  H    0.127541   0.005329
    30  H    0.119556   0.002400
    31  H    0.126914   0.000038
    32  H    0.119555   0.002394
    33  H    0.127568   0.005327
    34  H    0.126885   0.000042
 Sum of Mulliken charges =  -1.00000   1.00000

 Dipole moment (field-independent basis, Debye):
    X=              5.7391    Y=            -14.6429    Z=              9.3504  Tot=             18.2970
 Quadrupole moment (field-independent basis, Debye-Ang):
   XX=           -134.7401   YY=           -185.0726   ZZ=           -159.5915
   XY=             18.4714   XZ=            -11.8547   YZ=             32.4995

  Exact polarizability: 129.171  11.699 356.169  25.969  49.026 341.378
 Approx polarizability: 204.699  12.663 564.113  39.520  42.268 549.548

                      1                      2                      3
                      A                      A                      A
 Frequencies --     44.5865                55.3484                68.7309
 Red. masses --      4.5696                 4.3113                 3.7576
 Frc consts  --      0.0054                 0.0078                 0.0105
 IR Inten    --      7.2171                 0.2113                 1.4184

                      4                      5                      6
                      A                      A                      A
 Frequencies --     77.2350               103.6277               133.9566
 Red. masses --      4.0481                 3.7246                 4.9126
 Frc consts  --      0.0142                 0.0236                 0.0519
 IR Inten    --      8.6634                 1.0461                 0.6573

                      7                      8                      9
                      A                      A                      A
 Frequencies --    178.6534               179.0806               190.3333
 Red. masses --      5.5471                 3.9860                 3.3305
 Frc consts  --      0.1043                 0.0753                 0.0711
 IR Inten    --      0.9843                 0.7797                 4.1933

                     10                     11                     12
                      A                      A                      A
 Frequencies --    211.1171               233.3755               267.9885
 Red. masses --      1.0829                 1.1694                 5.4092
 Frc consts  --      0.0284                 0.0375                 0.2289
 IR Inten    --      0.0032                 1.4254                 1.6978

                     13                     14                     15
                      A                      A                      A
 Frequencies --    295.4299               325.5880               331.5347
 Red. masses --      3.9329                 4.5154                 4.9907
 Frc consts  --      0.2022                 0.2820                 0.3232
 IR Inten    --      3.4503                 3.9726                 0.0284

                     16                     17                     18
                      A                      A                      A
 Frequencies --    370.6013               393.2124               398.6908
 Red. masses --      4.9456                 6.3375                 9.8202
 Frc consts  --      0.4002                 0.5773                 0.9197
 IR Inten    --      1.1900                 8.2931                 0.0426

                     19                     20                     21
                      A                      A                      A
 Frequencies --    417.6891               438.3442               443.5938
 Red. masses --      6.6628                 3.7061                 9.4488
 Frc consts  --      0.6849                 0.4196                 1.0955
 IR Inten    --      0.0023                 2.8927                11.9257

                     22                     23                     24
                      A                      A                      A
 Frequencies --    482.4389               500.8884               517.7247
 Red. masses --      9.6940                 4.5891                 6.1905
 Frc consts  --      1.3293                 0.6784                 0.9776
 IR Inten    --      8.3754                 0.3511                 9.1443

                     25                     26                     27
                      A                      A                      A
 Frequencies --    573.9146               600.8231               630.2019
 Red. masses --      3.8475                 3.2024                 4.7445
 Frc consts  --      0.7467                 0.6811                 1.1102
 IR Inten    --     18.0066                16.2268                 3.4504

                     28                     29                     30
                      A                      A                      A
 Frequencies --    644.6707               667.3673               697.5082
 Red. masses --      4.7183                 4.8812                 1.4769
 Frc consts  --      1.1553                 1.2809                 0.4233
 IR Inten    --      3.1569                15.6804                62.3921

                     31                     32                     33
                      A                      A                      A
 Frequencies --    707.6685               731.1490               736.0417
 Red. masses --      1.5116                 5.3448                 1.3974
 Frc consts  --      0.4460                 1.6834                 0.4460
 IR Inten    --     11.5287                 2.1865               142.2017

                     34                     35                     36
                      A                      A                      A
 Frequencies --    739.9307               772.6389               777.9485
 Red. masses --      5.4724                 2.4218                 1.6060
 Frc consts  --      1.7653                 0.8518                 0.5727
 IR Inten    --      2.3734                 1.1165                38.7022

                     37                     38                     39
                      A                      A                      A
 Frequencies --    790.6776               801.7668               850.9398
 Red. masses --      2.6107                 5.1278                 1.3770
 Frc consts  --      0.9616                 1.9421                 0.5875
 IR Inten    --      0.8840                 0.3584                 0.0515

                     40                     41                     42
                      A                      A                      A
 Frequencies --    860.0026               867.2563               889.9919
 Red. masses --      5.8530                 1.5068                 6.8602
 Frc consts  --      2.5505                 0.6677                 3.2015
 IR Inten    --     21.9587                 0.0021                22.1399

                     43                     44                     45
                      A                      A                      A
 Frequencies --    945.7357               980.8979               981.0611
 Red. masses --      5.2124                 1.3529                 1.2617
 Frc consts  --      2.7468                 0.7669                 0.7155
 IR Inten    --      6.4952                 2.2578                 0.1974

                     46                     47                     48
                      A                      A                      A
 Frequencies --   1024.8753              1046.1223              1110.2039
 Red. masses --      3.9105                 2.1494                 2.1166
 Frc consts  --      2.4200                 1.3859                 1.5371
 IR Inten    --     63.8508                 1.2876                23.4673

                     49                     50                     51
                      A                      A                      A
 Frequencies --   1110.6414              1125.1285              1144.9885
 Red. masses --      1.8651                 2.0414                 1.2942
 Frc consts  --      1.3555                 1.5226                 0.9997
 IR Inten    --     12.1804                 6.5831                 3.2706

                     52                     53                     54
                      A                      A                      A
 Frequencies --   1145.4090              1149.2212              1176.4845
 Red. masses --      1.3548                 1.3022                 2.8142
 Frc consts  --      1.0473                 1.0133                 2.2950
 IR Inten    --     10.6444                 5.7444                 4.9184

                     55                     56                     57
                      A                      A                      A
 Frequencies --   1182.3947              1197.1004              1199.3921
 Red. masses --      2.1065                 2.1497                 1.3922
 Frc consts  --      1.7352                 1.8151                 1.1800
 IR Inten    --     19.1228                 2.6700                69.0882

                     58                     59                     60
                      A                      A                      A
 Frequencies --   1233.3786              1249.5395              1279.9109
 Red. masses --      3.4139                 1.9240                 2.3997
 Frc consts  --      3.0598                 1.7700                 2.3162
 IR Inten    --      0.2697                15.7552                 0.6630

                     61                     62                     63
                      A                      A                      A
 Frequencies --   1295.8297              1328.7245              1335.3086
 Red. masses --      2.8976                 9.7328                 2.0597
 Frc consts  --      2.8667                10.1241                 2.1638
 IR Inten    --     24.5987                99.7286               194.7821

                     64                     65                     66
                      A                      A                      A
 Frequencies --   1366.1320              1386.1573              1398.0162
 Red. masses --      9.2842                 4.3077                 2.8379
 Frc consts  --     10.2090                 4.8767                 3.2679
 IR Inten    --      0.4664                73.7406               302.2385

                     67                     68                     69
                      A                      A                      A
 Frequencies --   1452.1339              1452.8348              1464.0551
 Red. masses --      1.2624                 3.1276                 1.5368
 Frc consts  --      1.5684                 3.8896                 1.9408
 IR Inten    --    136.6509                 3.7969                16.1403

                     70                     71                     72
                      A                      A                      A
 Frequencies --   1475.3140              1475.4598              1478.0854
 Red. masses --      1.0456                 1.0457                 3.4786
 Frc consts  --      1.3408                 1.3412                 4.4777
 IR Inten    --      0.2318                 7.2082                70.6998

                     73                     74                     75
                      A                      A                      A
 Frequencies --   1481.4039              1513.6709              1519.1465
 Red. masses --      2.3133                 1.8486                 1.0619
 Frc consts  --      2.9910                 2.4955                 1.4439
 IR Inten    --     45.6443               432.2694                24.3289

                     76                     77                     78
                      A                      A                      A
 Frequencies --   1521.1120              1554.2335              1557.3784
 Red. masses --      1.6989                 2.2418                 3.1873
 Frc consts  --      2.3160                 3.1906                 4.5547
 IR Inten    --    124.1420               485.1390                 9.0389

                     79                     80                     81
                      A                      A                      A
 Frequencies --   1601.3004              1607.2055              1622.8362
 Red. masses --      2.5479                 2.7247                 5.5267
 Frc consts  --      3.8493                 4.1467                 8.5756
 IR Inten    --    332.6258                22.1003                 5.4177

                     82                     83                     84
                      A                      A                      A
 Frequencies --   1633.5454              2917.1202              2919.4899
 Red. masses --      7.3290                 1.0593                 1.0606
 Frc consts  --     11.5227                 5.3113                 5.3264
 IR Inten    --     63.3944               148.3115               350.7936

                     85                     86                     87
                      A                      A                      A
 Frequencies --   2961.0228              2961.9431              3080.0450
 Red. masses --      1.0820                 1.0809                 1.0909
 Frc consts  --      5.5894                 5.5872                 6.0975
 IR Inten    --     49.4980               233.4771                87.2131

                     88                     89                     90
                      A                      A                      A
 Frequencies --   3080.2185              3132.8508              3152.3836
 Red. masses --      1.0909                 1.0848                 1.0917
 Frc consts  --      6.0981                 6.2729                 6.3916
 IR Inten    --      0.3566                19.3366                63.3125

                     91                     92                     93
                      A                      A                      A
 Frequencies --   3166.2717              3185.4611              3187.9658
 Red. masses --      1.0846                 1.0918                 1.0911
 Frc consts  --      6.4064                 6.5271                 6.5334
 IR Inten    --     31.5636                36.9613                 8.7186

                     94                     95                     96
                      A                      A                      A
 Frequencies --   3190.1689              3332.2943              3333.3330
 Red. masses --      1.0923                 1.0820                 1.0822
 Frc consts  --      6.5499                 7.0788                 7.0848
 IR Inten    --     29.1556                 0.6537               272.5522

 - Thermochemistry -
 -------------------
 Temperature   298.150 Kelvin.  Pressure   1.00000 Atm.
 Atom     1 has atomic number  6 and mass  12.00000

 Molecular mass:   266.10553 amu.
 Principal axes and moments of inertia in atomic units:
                           1         2         3
     Eigenvalues --  3927.295575772.906589669.58921
           X            0.08545   0.06771   0.99404
           Y            0.74737  -0.66414  -0.01901
           Z            0.65889   0.74454  -0.10735
 This molecule is an asymmetric top.
 Rotational symmetry number  1.
 Warning -- assumption of classical behavior for rotation
           may cause significant error
 Rotational temperatures (Kelvin)      0.02205     0.01500     0.00896
 Rotational constants (GHZ):           0.45954     0.31262     0.18664
 Zero-point vibrational energy     696245.8 (Joules/Mol)
                                  166.40674 (Kcal/Mol)
 Warning -- explicit consideration of  26 degrees of freedom as
           vibrations may cause significant error
 Vibrational temperatures:     64.15    79.63    98.89   111.12   149.10
          (Kelvin)            192.73   257.04   257.66   273.85   303.75
                              335.78   385.58   425.06   468.45   477.00
                              533.21   565.75   573.63   600.96   630.68
                              638.23   694.12   720.67   744.89   825.74
                              864.45   906.72   927.54   960.19  1003.56
                             1018.18  1051.96  1059.00  1064.60  1111.66
                             1119.29  1137.61  1153.56  1224.31  1237.35
                             1247.79  1280.50  1360.70  1411.29  1411.53
                             1474.57  1505.14  1597.34  1597.97  1618.81
                             1647.38  1647.99  1653.47  1692.70  1701.20
                             1722.36  1725.66  1774.56  1797.81  1841.51
                             1864.41  1911.74  1921.21  1965.56  1994.37
                             2011.43  2089.30  2090.31  2106.45  2122.65
                             2122.86  2126.64  2131.41  2177.83  2185.71
                             2188.54  2236.20  2240.72  2303.91  2312.41
                             2334.90  2350.31  4197.09  4200.49  4260.25
                             4261.58  4431.50  4431.75  4507.47  4535.58
                             4555.56  4583.17  4586.77  4589.94  4794.43
                             4795.92

 Zero-point correction=                           0.265186 (Hartree/Particle)
 Thermal correction to Energy=                    0.282013
 Thermal correction to Enthalpy=                  0.282957
 Thermal correction to Gibbs Free Energy=         0.220163
 Sum of electronic and zero-point Energies=           -878.139018
 Sum of electronic and thermal Energies=              -878.122191
 Sum of electronic and thermal Enthalpies=            -878.121247
 Sum of electronic and thermal Free Energies=         -878.184042

                     E (Thermal)             CV                S
                      KCal/Mol        Cal/Mol-Kelvin    Cal/Mol-Kelvin
 Total                  176.966             66.428            132.162
 Electronic               0.000              0.000              1.377
 Translational            0.889              2.981             42.635
 Rotational               0.889              2.981             33.749
 Vibrational            175.188             60.466             54.400
 Vibration     1          0.595              1.980              5.044
 Vibration     2          0.596              1.975              4.617
 Vibration     3          0.598              1.969              4.189
 Vibration     4          0.599              1.964              3.960
 Vibration     5          0.605              1.946              3.385
 Vibration     6          0.613              1.919              2.888
 Vibration     7          0.629              1.869              2.342
 Vibration     8          0.629              1.868              2.338
 Vibration     9          0.634              1.853              2.225
 Vibration    10          0.643              1.824              2.034
 Vibration    11          0.654              1.790              1.853
 Vibration    12          0.673              1.732              1.609
 Vibration    13          0.690              1.682              1.443
 Vibration    14          0.710              1.624              1.282
 Vibration    15          0.714              1.613              1.253
 Vibration    16          0.743              1.533              1.077
 Vibration    17          0.760              1.485              0.988
 Vibration    18          0.765              1.473              0.967
 Vibration    19          0.781              1.432              0.900
 Vibration    20          0.799              1.387              0.832
 Vibration    21          0.803              1.375              0.815
 Vibration    22          0.839              1.289              0.704
 Vibration    23          0.856              1.248              0.656
 Vibration    24          0.873              1.211              0.615
 Vibration    25          0.930              1.088              0.497
 Vibration    26          0.959              1.030              0.448

                           ! Non-Optimized Parameters !
 Normal termination of Gaussian 16 at Thu Dec 21 10:41:03 2023.
