 Gaussian 16, Revision A.03,
 Gaussian 16:  ES64L-G16RevA.03 25-Dec-2016

 ----------------------------------------------------------------
 #P UB3LYP/6-311++G(d,p) SCRF=(PCM,Solvent=n,n-DiMethylFormamide)
 ----------------------------------------------------------------

 -------
 Reduced
 -------
 Symbolic Z-matrix:
 Charge = -2 Multiplicity = 1

                         Standard orientation:
 ---------------------------------------------------------------------
 Center     Atomic      Atomic             Coordinates (Angstroms)
 Number     Number       Type             X           Y           Z
 ---------------------------------------------------------------------
      1          6           0        2.576048    2.198020   -0.000075
      2          6           0        1.766480    0.924585    0.000133
      3          6           0        2.402323   -0.320506   -0.000062
      4          6           0        1.719551   -1.581321   -0.000044
      5          8           0        2.323336   -2.733016   -0.000030
      6          6           0        0.294202   -1.435549    0.000004
      7          6           0       -0.310956   -0.176107    0.000263
      8         35           0       -2.310801   -0.152623   -0.000045
      9          6           0        0.329745    1.093764    0.000160
     10          8           0       -0.235952    2.257095   -0.000015
     11          1           0        2.339389    2.823325   -0.873482
     12          1           0        3.651880    1.979341   -0.001024
     13          1           0        2.340588    2.822853    0.873963
     14          1           0        3.493691   -0.357458   -0.000055
     15          1           0       -0.310928   -2.336228    0.000261
 ---------------------------------------------------------------------

 SCF Done:  E(UB3LYP) =  -2994.70768100     A.U. after   17 cycles

 The electronic state is 1-A.
 Alpha  occ. eigenvalues -- -482.79848 -62.45126 -56.27115 -56.26803 -56.26787
 Alpha  occ. eigenvalues --  -19.01816 -19.01577 -10.17904 -10.17596 -10.17299
 Alpha  occ. eigenvalues --  -10.14236 -10.13812 -10.12753 -10.12257  -8.66067
 Alpha  occ. eigenvalues --   -6.49044  -6.48014  -6.47966  -2.60162  -2.59877
 Alpha  occ. eigenvalues --   -2.59841  -2.59023  -2.59023  -0.93263  -0.92481
 Alpha  occ. eigenvalues --   -0.79768  -0.76167  -0.71329  -0.65720  -0.63915
 Alpha  occ. eigenvalues --   -0.53978  -0.52158  -0.44459  -0.43050  -0.39562
 Alpha  occ. eigenvalues --   -0.38926  -0.37234  -0.35863  -0.35586  -0.35107
 Alpha  occ. eigenvalues --   -0.32679  -0.31412  -0.31323  -0.28209  -0.26675
 Alpha  occ. eigenvalues --   -0.22482  -0.20726  -0.19869  -0.19535  -0.12181
 Alpha virt. eigenvalues --   -0.00273   0.00653   0.01608   0.01799   0.02251
 Alpha virt. eigenvalues --    0.03913   0.04101   0.04499   0.05972   0.06059
 Alpha virt. eigenvalues --    0.06597   0.06950   0.07947   0.08391   0.08796

  Beta  occ. eigenvalues -- -482.79848 -62.45126 -56.27115 -56.26803 -56.26787
  Beta  occ. eigenvalues --  -19.01816 -19.01577 -10.17904 -10.17596 -10.17299
  Beta  occ. eigenvalues --  -10.14236 -10.13812 -10.12753 -10.12257  -8.66067
  Beta  occ. eigenvalues --   -6.49044  -6.48014  -6.47966  -2.60162  -2.59877
  Beta  occ. eigenvalues --   -2.59841  -2.59023  -2.59023  -0.93263  -0.92481
  Beta  occ. eigenvalues --   -0.79768  -0.76167  -0.71329  -0.65720  -0.63915
  Beta  occ. eigenvalues --   -0.53978  -0.52158  -0.44459  -0.43050  -0.39562
  Beta  occ. eigenvalues --   -0.38926  -0.37234  -0.35863  -0.35586  -0.35107
  Beta  occ. eigenvalues --   -0.32679  -0.31412  -0.31323  -0.28209  -0.26675
  Beta  occ. eigenvalues --   -0.22482  -0.20726  -0.19869  -0.19535  -0.12181
  Beta virt. eigenvalues --   -0.00273   0.00653   0.01608   0.01799   0.02251
  Beta virt. eigenvalues --    0.03913   0.04101   0.04499   0.05972   0.06059
  Beta virt. eigenvalues --    0.06597   0.06950   0.07947   0.08391   0.08796

 Mulliken charges and spin densities:
               1          2
     1  C   -0.449590  -0.000000
     2  C    1.362803  -0.000000
     3  C   -0.678536   0.000000
     4  C   -0.460596  -0.000000
     5  O   -0.732603  -0.000000
     6  C   -0.078236   0.000000
     7  C    0.803390  -0.000000
     8  Br  -0.301377  -0.000000
     9  C   -1.501900  -0.000000
    10  O   -0.662386  -0.000000
    11  H    0.141942   0.000000
    12  H    0.130610  -0.000000
    13  H    0.141942   0.000000
    14  H    0.109333  -0.000000
    15  H    0.175204  -0.000000
 Sum of Mulliken charges =  -2.00000   0.00000

 Dipole moment (field-independent basis, Debye):
    X=             -5.8527    Y=              3.0114    Z=              0.0002  Tot=              6.5820
 Quadrupole moment (field-independent basis, Debye-Ang):
   XX=           -109.9207   YY=           -128.9732   ZZ=            -80.6546
   XY=             27.3490   XZ=             -0.0000   YZ=             -0.0011

 Normal termination of Gaussian 16 at Sun Jan 21 07:26:40 2024.
