 Gaussian 16, Revision A.03,
 Gaussian 16:  ES64L-G16RevA.03 25-Dec-2016

 --------------------------------------
 #P UB3LYP/6-311++G(d,p) nosym opt freq
 --------------------------------------

 --------
 Oxidized
 --------
 Symbolic Z-matrix:
 Charge =  0 Multiplicity = 1

 SCF Done:  E(UB3LYP) =  -5990.81612161     A.U. after   17 cycles
 SCF Done:  E(UB3LYP) =  -5990.84399198     A.U. after   18 cycles
 SCF Done:  E(UB3LYP) =  -5990.85136046     A.U. after   18 cycles
 SCF Done:  E(UB3LYP) =  -5990.85256733     A.U. after   16 cycles
 SCF Done:  E(UB3LYP) =  -5990.85259870     A.U. after   15 cycles
 SCF Done:  E(UB3LYP) =  -5990.85284431     A.U. after   14 cycles
 SCF Done:  E(UB3LYP) =  -5990.85285852     A.U. after   13 cycles
 SCF Done:  E(UB3LYP) =  -5990.85286648     A.U. after   13 cycles
 SCF Done:  E(UB3LYP) =  -5990.85286836     A.U. after   12 cycles
 SCF Done:  E(UB3LYP) =  -5990.85286913     A.U. after   12 cycles
 SCF Done:  E(UB3LYP) =  -5990.85286937     A.U. after   12 cycles
 SCF Done:  E(UB3LYP) =  -5990.85286964     A.U. after   11 cycles
 SCF Done:  E(UB3LYP) =  -5990.85286974     A.U. after   11 cycles
 SCF Done:  E(UB3LYP) =  -5990.85286976     A.U. after   11 cycles
 Optimization completed.
    -- Stationary point found.
 Normal termination of Gaussian 16 at Sun Dec 17 23:34:13 2023.

 ----------------------------------------------------------------------
 #P Geom=AllCheck Guess=TCheck SCRF=Check GenChk UB3LYP/6-311++G(d,p) F
 req
 ----------------------------------------------------------------------

 Structure from the checkpoint file:  "021.chk"
 --------
 Oxidized
 --------
 Charge =  0 Multiplicity = 1

                          Input orientation:
 ---------------------------------------------------------------------
 Center     Atomic      Atomic             Coordinates (Angstroms)
 Number     Number       Type             X           Y           Z
 ---------------------------------------------------------------------
      1         35           0       -1.603574    2.547951    1.344981
      2          6           0       -0.774768    1.056201    0.504910
      3          6           0       -1.477122    0.051812   -0.057218
      4          6           0       -0.726262   -1.040013   -0.775053
      5          8           0       -1.326922   -1.946116   -1.310601
      6          6           0        0.769275   -0.970010   -0.808062
      7          6           0        1.473411    0.006301   -0.200505
      8          6           0        0.721802    1.110383    0.497501
      9          8           0        1.322515    2.015790    1.034166
     10          6           0        2.954703    0.093918   -0.158477
     11          6           0        3.617132    1.192488   -0.719006
     12          6           0        5.005813    1.271028   -0.676935
     13          6           0        5.746166    0.268762   -0.052395
     14          6           0        5.091687   -0.817598    0.525468
     15          6           0        3.704155   -0.908635    0.467708
     16         35           0        1.591456   -2.358984   -1.814301
     17          6           0       -2.955812   -0.076977   -0.033136
     18          6           0       -3.686673   -0.091382   -1.227081
     19          6           0       -5.072549   -0.213750   -1.200249
     20          6           0       -5.740990   -0.349665    0.015244
     21          6           0       -5.017515   -0.356278    1.206456
     22          6           0       -3.633230   -0.214416    1.183857
     23          1           0        3.047260    1.983101   -1.191394
     24          1           0        5.508418    2.120776   -1.124391
     25          1           0        6.827394    0.336374   -0.012145
     26          1           0        5.660376   -1.596199    1.020836
     27          1           0        3.200023   -1.756103    0.916692
     28          1           0       -3.172308   -0.002879   -2.176070
     29          1           0       -5.628900   -0.212289   -2.130500
     30          1           0       -6.819832   -0.454594    0.033724
     31          1           0       -5.529800   -0.470667    2.154871
     32          1           0       -3.075326   -0.218331    2.112653
 ---------------------------------------------------------------------

 SCF Done:  E(UB3LYP) =  -5990.85286976     A.U. after    1 cycles

 Alpha  occ. eigenvalues -- -482.84800-482.84800 -62.50071 -62.50071 -56.32122
 Alpha  occ. eigenvalues --  -56.32121 -56.31734 -56.31734 -56.31679 -56.31679
 Alpha  occ. eigenvalues --  -19.15099 -19.15098 -10.30443 -10.30442 -10.27045
 Alpha  occ. eigenvalues --  -10.27044 -10.24039 -10.24038 -10.20822 -10.20822
 Alpha  occ. eigenvalues --  -10.19335 -10.19335 -10.19269 -10.19269 -10.19023
 Alpha  occ. eigenvalues --  -10.19023 -10.18905 -10.18905 -10.18861 -10.18861
 Alpha  occ. eigenvalues --   -8.71043  -8.71043  -6.54228  -6.54228  -6.52935
 Alpha  occ. eigenvalues --   -6.52934  -6.52770  -6.52770  -2.65318  -2.65317
 Alpha  occ. eigenvalues --   -2.64977  -2.64976  -2.64851  -2.64850  -2.63820
 Alpha  occ. eigenvalues --   -2.63820  -2.63817  -2.63817  -1.08859  -1.08654
 Alpha  occ. eigenvalues --   -0.90491  -0.88787  -0.87021  -0.85468  -0.80536
 Alpha  occ. eigenvalues --   -0.79722  -0.77258  -0.76480  -0.76472  -0.73891
 Alpha  occ. eigenvalues --   -0.70454  -0.66425  -0.62839  -0.62587  -0.61767
 Alpha  occ. eigenvalues --   -0.60340  -0.59383  -0.55424  -0.54184  -0.53645
 Alpha  occ. eigenvalues --   -0.50002  -0.48740  -0.48495  -0.47491  -0.47178
 Alpha  occ. eigenvalues --   -0.46772  -0.45712  -0.44584  -0.44224  -0.44076
 Alpha  occ. eigenvalues --   -0.43993  -0.43807  -0.43296  -0.41837  -0.38648
 Alpha  occ. eigenvalues --   -0.38373  -0.37374  -0.37134  -0.36786  -0.36530
 Alpha  occ. eigenvalues --   -0.35817  -0.34929  -0.31112  -0.30873  -0.30416
 Alpha  occ. eigenvalues --   -0.29957  -0.28866  -0.28729  -0.26959  -0.26932
 Alpha  occ. eigenvalues --   -0.26379  -0.25917
 Alpha virt. eigenvalues --   -0.14522  -0.06156  -0.03450  -0.03324  -0.02880
 Alpha virt. eigenvalues --   -0.02727  -0.02493  -0.01936  -0.01053  -0.00644
 Alpha virt. eigenvalues --   -0.00545   0.00417   0.00576   0.00915   0.02125

  Beta  occ. eigenvalues -- -482.84800-482.84800 -62.50071 -62.50071 -56.32122
  Beta  occ. eigenvalues --  -56.32121 -56.31734 -56.31734 -56.31679 -56.31679
  Beta  occ. eigenvalues --  -19.15099 -19.15098 -10.30443 -10.30442 -10.27045
  Beta  occ. eigenvalues --  -10.27044 -10.24039 -10.24038 -10.20822 -10.20822
  Beta  occ. eigenvalues --  -10.19335 -10.19335 -10.19269 -10.19269 -10.19023
  Beta  occ. eigenvalues --  -10.19023 -10.18905 -10.18905 -10.18861 -10.18861
  Beta  occ. eigenvalues --   -8.71043  -8.71043  -6.54228  -6.54228  -6.52935
  Beta  occ. eigenvalues --   -6.52934  -6.52770  -6.52770  -2.65318  -2.65317
  Beta  occ. eigenvalues --   -2.64977  -2.64976  -2.64851  -2.64850  -2.63820
  Beta  occ. eigenvalues --   -2.63820  -2.63817  -2.63817  -1.08859  -1.08654
  Beta  occ. eigenvalues --   -0.90491  -0.88787  -0.87021  -0.85468  -0.80536
  Beta  occ. eigenvalues --   -0.79722  -0.77258  -0.76480  -0.76472  -0.73891
  Beta  occ. eigenvalues --   -0.70454  -0.66425  -0.62839  -0.62587  -0.61767
  Beta  occ. eigenvalues --   -0.60340  -0.59383  -0.55424  -0.54184  -0.53645
  Beta  occ. eigenvalues --   -0.50002  -0.48740  -0.48495  -0.47491  -0.47178
  Beta  occ. eigenvalues --   -0.46772  -0.45712  -0.44584  -0.44224  -0.44076
  Beta  occ. eigenvalues --   -0.43993  -0.43807  -0.43296  -0.41837  -0.38648
  Beta  occ. eigenvalues --   -0.38373  -0.37374  -0.37134  -0.36786  -0.36530
  Beta  occ. eigenvalues --   -0.35817  -0.34929  -0.31112  -0.30873  -0.30416
  Beta  occ. eigenvalues --   -0.29957  -0.28866  -0.28729  -0.26959  -0.26932
  Beta  occ. eigenvalues --   -0.26379  -0.25917
  Beta virt. eigenvalues --   -0.14522  -0.06156  -0.03450  -0.03324  -0.02880
  Beta virt. eigenvalues --   -0.02727  -0.02493  -0.01936  -0.01053  -0.00644
  Beta virt. eigenvalues --   -0.00545   0.00417   0.00576   0.00915   0.02125

 Mulliken charges and spin densities:
               1          2
     1  Br  -0.013436   0.000000
     2  C   -0.474901   0.000000
     3  C    1.055871  -0.000000
     4  C   -1.132043  -0.000000
     5  O   -0.099099  -0.000000
     6  C   -0.476083  -0.000000
     7  C    1.055421   0.000000
     8  C   -1.131629   0.000000
     9  O   -0.099207  -0.000000
    10  C    1.292220   0.000000
    11  C   -0.119737   0.000000
    12  C   -0.254021   0.000000
    13  C   -0.344719  -0.000000
    14  C   -0.365366   0.000000
    15  C   -0.461743  -0.000000
    16  Br  -0.013397  -0.000000
    17  C    1.291597  -0.000000
    18  C   -0.119726   0.000000
    19  C   -0.254157  -0.000000
    20  C   -0.344572   0.000000
    21  C   -0.365527  -0.000000
    22  C   -0.461727   0.000000
    23  H    0.207042  -0.000000
    24  H    0.178504   0.000000
    25  H    0.161231  -0.000000
    26  H    0.179080   0.000000
    27  H    0.192157  -0.000000
    28  H    0.207002  -0.000000
    29  H    0.178515   0.000000
    30  H    0.161236  -0.000000
    31  H    0.179079  -0.000000
    32  H    0.192134   0.000000
 Sum of Mulliken charges =  -0.00000  -0.00000

 Dipole moment (field-independent basis, Debye):
    X=              0.0027    Y=             -0.0403    Z=              0.0623  Tot=              0.0743
 Quadrupole moment (field-independent basis, Debye-Ang):
   XX=           -127.5861   YY=           -159.2226   ZZ=           -149.2028
   XY=             -3.9181   XZ=             -3.0421   YZ=             -9.6594

  Exact polarizability: 364.180  18.016 234.235   3.924  32.635 200.330
 Approx polarizability: 493.269  59.950 444.744  30.338  73.216 366.591

                      1                      2                      3
                      A                      A                      A
 Frequencies --     20.4652                28.0883                44.4762
 Red. masses --      6.6479                 7.6062                 4.5189
 Frc consts  --      0.0016                 0.0035                 0.0053
 IR Inten    --      1.0948                 0.2866                 0.6755

                      4                      5                      6
                      A                      A                      A
 Frequencies --     51.1414                55.5920                57.0908
 Red. masses --      5.7384                 7.8111                 6.8154
 Frc consts  --      0.0088                 0.0142                 0.0131
 IR Inten    --      0.4392                 0.1919                 0.9046

                      7                      8                      9
                      A                      A                      A
 Frequencies --     69.1934               118.8650               134.8299
 Red. masses --      7.8595                 7.7781                12.6363
 Frc consts  --      0.0222                 0.0647                 0.1353
 IR Inten    --      0.0533                 1.8596                 0.0201

                     10                     11                     12
                      A                      A                      A
 Frequencies --    149.7033               180.7780               204.3173
 Red. masses --      6.3270                11.2687                 6.7177
 Frc consts  --      0.0835                 0.2170                 0.1652
 IR Inten    --      0.1485                 0.0254                 0.2240

                     13                     14                     15
                      A                      A                      A
 Frequencies --    207.5942               242.2074               281.1231
 Red. masses --     12.7799                 5.5176                 7.2852
 Frc consts  --      0.3245                 0.1907                 0.3392
 IR Inten    --      0.0013                 0.0643                 0.8463

                     16                     17                     18
                      A                      A                      A
 Frequencies --    325.1769               336.6492               340.5910
 Red. masses --      7.3213                 9.9331                10.7063
 Frc consts  --      0.4561                 0.6633                 0.7317
 IR Inten    --      0.0357                 1.6103                 5.0829

                     19                     20                     21
                      A                      A                      A
 Frequencies --    349.1138               409.5711               409.8801
 Red. masses --     11.7285                 2.8742                 2.8772
 Frc consts  --      0.8422                 0.2841                 0.2848
 IR Inten    --      2.2611                 0.0938                 3.5559

                     22                     23                     24
                      A                      A                      A
 Frequencies --    471.5831               477.9173               498.1872
 Red. masses --      9.9824                 5.6715                 4.6755
 Frc consts  --      1.3080                 0.7632                 0.6837
 IR Inten    --      0.5126                13.0397                 1.7582

                     25                     26                     27
                      A                      A                      A
 Frequencies --    539.4190               581.2563               606.8999
 Red. masses --      4.9991                 8.5758                 8.1315
 Frc consts  --      0.8570                 1.7071                 1.7646
 IR Inten    --      2.5880                98.6267                 4.5468

                     28                     29                     30
                      A                      A                      A
 Frequencies --    625.4812               633.3334               635.3294
 Red. masses --      7.9353                 6.4670                 6.6106
 Frc consts  --      1.8291                 1.5283                 1.5721
 IR Inten    --      0.0158                 0.4269                 1.1915

                     31                     32                     33
                      A                      A                      A
 Frequencies --    705.0013               707.1522               717.0263
 Red. masses --      2.7402                 1.7843                 1.8509
 Frc consts  --      0.8024                 0.5257                 0.5607
 IR Inten    --     10.4364                37.2623                14.5541

                     34                     35                     36
                      A                      A                      A
 Frequencies --    729.2106               753.1334               764.2134
 Red. masses --      4.7134                11.0172                 2.2912
 Frc consts  --      1.4767                 3.6818                 0.7884
 IR Inten    --    111.2007                 7.2429                 8.3001

                     37                     38                     39
                      A                      A                      A
 Frequencies --    792.9603               810.2097               812.1068
 Red. masses --      5.6665                 3.7592                 9.2127
 Frc consts  --      2.0993                 1.4539                 3.5798
 IR Inten    --      5.9740                 4.5633                 3.1855

                     40                     41                     42
                      A                      A                      A
 Frequencies --    851.6881               851.8246               893.3554
 Red. masses --      1.2487                 1.2485                 5.1257
 Frc consts  --      0.5337                 0.5338                 2.4102
 IR Inten    --      1.9741                 0.2752                12.3054

                     43                     44                     45
                      A                      A                      A
 Frequencies --    910.1666               936.0667               937.3508
 Red. masses --      7.3316                 1.5931                 1.4852
 Frc consts  --      3.5784                 0.8225                 0.7688
 IR Inten    --      0.1743                12.7226                 1.5391

                     46                     47                     48
                      A                      A                      A
 Frequencies --    984.2904               984.3738              1005.6609
 Red. masses --      1.3767                 1.3764                 1.3048
 Frc consts  --      0.7858                 0.7858                 0.7775
 IR Inten    --      0.4025                 0.1007                 1.3212

                     49                     50                     51
                      A                      A                      A
 Frequencies --   1006.0594              1016.7951              1017.1190
 Red. masses --      1.3011                 6.2350                 6.2532
 Frc consts  --      0.7759                 3.7980                 3.8115
 IR Inten    --      0.0455                 7.2518                 0.0147

                     52                     53                     54
                      A                      A                      A
 Frequencies --   1039.6377              1050.7714              1064.7093
 Red. masses --      4.4483                 2.2124                 2.5901
 Frc consts  --      2.8327                 1.4393                 1.7299
 IR Inten    --     80.9293                 0.0577                89.4233

                     55                     56                     57
                      A                      A                      A
 Frequencies --   1105.1581              1106.4700              1178.7123
 Red. masses --      1.6054                 1.6219                 7.7428
 Frc consts  --      1.1553                 1.1699                 6.3382
 IR Inten    --     10.3590                 7.6981               280.9351

                     58                     59                     60
                      A                      A                      A
 Frequencies --   1184.4023              1184.4418              1188.6314
 Red. masses --      1.1238                 1.1142                 5.2771
 Frc consts  --      0.9288                 0.9210                 4.3928
 IR Inten    --      0.1139                 0.3200                 0.2604

                     61                     62                     63
                      A                      A                      A
 Frequencies --   1207.4381              1207.5339              1276.4657
 Red. masses --      1.1418                 1.1455                 5.5115
 Frc consts  --      0.9808                 0.9841                 5.2910
 IR Inten    --      0.1886                 0.2833               165.3428

                     64                     65                     66
                      A                      A                      A
 Frequencies --   1281.0662              1319.6060              1320.1995
 Red. masses --      6.0136                 4.6762                 4.8592
 Frc consts  --      5.8147                 4.7976                 4.9900
 IR Inten    --      0.6887                 2.7047                 0.3613

                     67                     68                     69
                      A                      A                      A
 Frequencies --   1356.1180              1356.3738              1472.6000
 Red. masses --      1.4832                 1.4803                 2.1708
 Frc consts  --      1.6071                 1.6046                 2.7736
 IR Inten    --      0.2752                 2.2364                 6.2925

                     70                     71                     72
                      A                      A                      A
 Frequencies --   1472.8246              1522.4212              1523.3697
 Red. masses --      2.1740                 2.1953                 2.1910
 Frc consts  --      2.7785                 2.9978                 2.9957
 IR Inten    --      9.9054                24.0093                 0.0099

                     73                     74                     75
                      A                      A                      A
 Frequencies --   1608.2926              1615.2565              1618.6767
 Red. masses --      8.6021                 5.3600                 6.2862
 Frc consts  --     13.1094                 8.2394                 9.7042
 IR Inten    --    142.2123                 1.4158                43.8686

                     76                     77                     78
                      A                      A                      A
 Frequencies --   1639.7256              1639.8128              1645.1344
 Red. masses --      5.5454                 5.6019                11.2417
 Frc consts  --      8.7847                 8.8751                17.9260
 IR Inten    --     11.1355                 0.0657                 0.0199

                     79                     80                     81
                      A                      A                      A
 Frequencies --   1725.9695              1731.1134              3165.3884
 Red. masses --     13.2795                13.1844                 1.0854
 Frc consts  --     23.3077                23.2789                 6.4079
 IR Inten    --      0.3773               380.6523                 0.4175

                     82                     83                     84
                      A                      A                      A
 Frequencies --   3165.3938              3174.2847              3174.3098
 Red. masses --      1.0854                 1.0882                 1.0882
 Frc consts  --      6.4078                 6.4601                 6.4602
 IR Inten    --      0.0182                 3.1607                 3.5851

                     85                     86                     87
                      A                      A                      A
 Frequencies --   3182.8645              3182.8806              3190.4234
 Red. masses --      1.0920                 1.0919                 1.0949
 Frc consts  --      6.5177                 6.5176                 6.5660
 IR Inten    --     31.6556                 1.2193                 9.2437

                     88                     89                     90
                      A                      A                      A
 Frequencies --   3190.4510              3195.8065              3195.8297
 Red. masses --      1.0948                 1.0976                 1.0976
 Frc consts  --      6.5661                 6.6047                 6.6046
 IR Inten    --     20.7314                 7.4893                 6.2312

 - Thermochemistry -
 -------------------
 Temperature   298.150 Kelvin.  Pressure   1.00000 Atm.
 Atom     1 has atomic number 35 and mass  78.91834

 Molecular mass:   415.90475 amu.
 Principal axes and moments of inertia in atomic units:
                           1         2         3
     Eigenvalues --  5860.06384********************
           X            0.97090   0.23717   0.03329
           Y           -0.18483   0.83041  -0.52560
           Z           -0.15230   0.50415   0.85008
 This molecule is an asymmetric top.
 Rotational symmetry number  1.
 Warning -- assumption of classical behavior for rotation
           may cause significant error
 Rotational temperatures (Kelvin)      0.01478     0.00616     0.00458
 Rotational constants (GHZ):           0.30797     0.12835     0.09539
 Zero-point vibrational energy     590549.6 (Joules/Mol)
                                  141.14474 (Kcal/Mol)
 Warning -- explicit consideration of  27 degrees of freedom as
           vibrations may cause significant error
 Vibrational temperatures:     29.44    40.41    63.99    73.58    79.98
          (Kelvin)             82.14    99.55   171.02   193.99   215.39
                              260.10   293.97   298.68   348.48   404.47
                              467.86   484.36   490.03   502.30   589.28
                              589.73   678.50   687.62   716.78   776.10
                              836.30   873.19   899.93   911.23   914.10
                             1014.34  1017.43  1031.64  1049.17  1083.59
                             1099.53  1140.89  1165.71  1168.44  1225.39
                             1225.59  1285.34  1309.53  1346.79  1348.64
                             1416.17  1416.29  1446.92  1447.50  1462.94
                             1463.41  1495.81  1511.83  1531.88  1590.08
                             1591.96  1695.90  1704.09  1704.15  1710.18
                             1737.23  1737.37  1836.55  1843.17  1898.62
                             1899.47  1951.15  1951.52  2118.74  2119.07
                             2190.42  2191.79  2313.97  2323.99  2328.91
                             2359.20  2359.32  2366.98  2483.29  2490.69
                             4554.29  4554.30  4567.09  4567.12  4579.43
                             4579.46  4590.31  4590.35  4598.05  4598.09

 Zero-point correction=                           0.224928 (Hartree/Particle)
 Thermal correction to Energy=                    0.243812
 Thermal correction to Enthalpy=                  0.244757
 Thermal correction to Gibbs Free Energy=         0.173532
 Sum of electronic and zero-point Energies=          -5990.627941
 Sum of electronic and thermal Energies=             -5990.609057
 Sum of electronic and thermal Enthalpies=           -5990.608113
 Sum of electronic and thermal Free Energies=        -5990.679338

                     E (Thermal)             CV                S
                      KCal/Mol        Cal/Mol-Kelvin    Cal/Mol-Kelvin
 Total                  152.995             70.032            149.906
 Electronic               0.000              0.000              0.000
 Translational            0.889              2.981             43.967
 Rotational               0.889              2.981             35.698
 Vibrational            151.217             64.070             70.241
 Vibration     1          0.593              1.986              6.589
 Vibration     2          0.593              1.984              5.960
 Vibration     3          0.595              1.980              5.049
 Vibration     4          0.595              1.977              4.773
 Vibration     5          0.596              1.975              4.608
 Vibration     6          0.596              1.975              4.555
 Vibration     7          0.598              1.969              4.176
 Vibration     8          0.609              1.934              3.119
 Vibration     9          0.613              1.919              2.876
 Vibration    10          0.618              1.903              2.676
 Vibration    11          0.630              1.866              2.320
 Vibration    12          0.640              1.834              2.094
 Vibration    13          0.641              1.829              2.065
 Vibration    14          0.658              1.776              1.787
 Vibration    15          0.681              1.709              1.527
 Vibration    16          0.709              1.625              1.284
 Vibration    17          0.717              1.602              1.228
 Vibration    18          0.720              1.594              1.209
 Vibration    19          0.726              1.577              1.170
 Vibration    20          0.774              1.449              0.928
 Vibration    21          0.774              1.449              0.927
 Vibration    22          0.829              1.313              0.733
 Vibration    23          0.834              1.299              0.716
 Vibration    24          0.854              1.254              0.663
 Vibration    25          0.894              1.163              0.567
 Vibration    26          0.938              1.072              0.483
 Vibration    27          0.966              1.017              0.438

                           ! Non-Optimized Parameters !
 Normal termination of Gaussian 16 at Mon Dec 18 01:28:25 2023.
