 Gaussian 16, Revision A.03,
 Gaussian 16:  ES64L-G16RevA.03 25-Dec-2016

 ----------------------------------------------------------------------
 #P UB3LYP/6-311++G(d,p) nosym opt freq SCRF=(PCM,Solvent=n,n-DiMethylF
 ormamide)
 ----------------------------------------------------------------------

 --------
 Oxidized
 --------
 Symbolic Z-matrix:
 Charge =  0 Multiplicity = 1

 SCF Done:  E(UB3LYP) =  -1148.57390415     A.U. after   16 cycles
 SCF Done:  E(UB3LYP) =  -1148.57400472     A.U. after   11 cycles
 SCF Done:  E(UB3LYP) =  -1148.57401438     A.U. after   12 cycles
 SCF Done:  E(UB3LYP) =  -1148.57401950     A.U. after   10 cycles
 SCF Done:  E(UB3LYP) =  -1148.57402052     A.U. after    9 cycles
 SCF Done:  E(UB3LYP) =  -1148.57402066     A.U. after    8 cycles
 SCF Done:  E(UB3LYP) =  -1148.57402084     A.U. after   10 cycles
 SCF Done:  E(UB3LYP) =  -1148.57402101     A.U. after   10 cycles
 SCF Done:  E(UB3LYP) =  -1148.57402127     A.U. after   10 cycles
 SCF Done:  E(UB3LYP) =  -1148.57402154     A.U. after   10 cycles
 SCF Done:  E(UB3LYP) =  -1148.57402182     A.U. after   10 cycles
 SCF Done:  E(UB3LYP) =  -1148.57402200     A.U. after    9 cycles
 SCF Done:  E(UB3LYP) =  -1148.57402203     A.U. after    9 cycles
 Optimization completed.
    -- Stationary point found.
 Normal termination of Gaussian 16 at Sat Feb 10 16:18:57 2024.

 ----------------------------------------------------------------------
 #P Geom=AllCheck Guess=TCheck SCRF=Check GenChk UB3LYP/6-311++G(d,p) F
 req
 ----------------------------------------------------------------------

 Structure from the checkpoint file:  "117.chk"
 --------
 Oxidized
 --------
 Charge =  0 Multiplicity = 1

                          Input orientation:
 ---------------------------------------------------------------------
 Center     Atomic      Atomic             Coordinates (Angstroms)
 Number     Number       Type             X           Y           Z
 ---------------------------------------------------------------------
      1         17           0        2.995786    2.854564    0.319776
      2          6           0        2.631881    1.137335    0.258498
      3          6           0        3.744154    0.299395    0.331706
      4          6           0        3.587239   -1.079957    0.291185
      5          6           0        2.315487   -1.625065    0.174220
      6          6           0        1.198252   -0.795144    0.098507
      7          6           0       -0.135065   -1.464038   -0.031413
      8          8           0       -0.218981   -2.684746   -0.058835
      9          6           0       -1.338818   -0.607136   -0.128026
     10          6           0       -2.599063   -1.199288   -0.265056
     11          6           0       -3.736372   -0.406568   -0.359321
     12          6           0       -3.621915    0.985958   -0.316105
     13          6           0       -2.372829    1.580593   -0.177970
     14          6           0       -1.221640    0.791096   -0.083359
     15          6           0        0.100433    1.470879    0.066307
     16          8           0        0.148506    2.689586    0.124675
     17          6           0        1.327859    0.616384    0.141010
     18          1           0        4.729220    0.738423    0.420447
     19          1           0        4.457914   -1.721521    0.349912
     20          1           0        2.168643   -2.696139    0.139166
     21          1           0       -2.668771   -2.279015   -0.296485
     22          1           0       -4.710847   -0.868085   -0.466316
     23          1           0       -4.508251    1.604946   -0.390092
     24          1           0       -2.272821    2.657541   -0.142431
 ---------------------------------------------------------------------

 SCF Done:  E(UB3LYP) =  -1148.57402203     A.U. after    1 cycles

 Alpha  occ. eigenvalues -- -101.56664 -19.13492 -19.13400 -10.29107 -10.28785
 Alpha  occ. eigenvalues --  -10.26803 -10.22794 -10.21993 -10.21266 -10.21123
 Alpha  occ. eigenvalues --  -10.20990 -10.20744 -10.20324 -10.20125 -10.20090
 Alpha  occ. eigenvalues --  -10.20038 -10.19983  -9.48142  -7.24617  -7.23655
 Alpha  occ. eigenvalues --   -7.23535  -1.07069  -1.06816  -0.91780  -0.89236
 Alpha  occ. eigenvalues --   -0.86360  -0.81879  -0.78170  -0.77844  -0.76650
 Alpha  occ. eigenvalues --   -0.69549  -0.67410  -0.65268  -0.61752  -0.58758
 Alpha  occ. eigenvalues --   -0.57000  -0.56234  -0.51245  -0.49955  -0.49567
 Alpha  occ. eigenvalues --   -0.49234  -0.46406  -0.46274  -0.45850  -0.45369
 Alpha  occ. eigenvalues --   -0.45168  -0.44723  -0.42533  -0.41083  -0.40607
 Alpha  occ. eigenvalues --   -0.39060  -0.38236  -0.37882  -0.37141  -0.35263
 Alpha  occ. eigenvalues --   -0.33635  -0.29673  -0.29024  -0.28274  -0.28124
 Alpha  occ. eigenvalues --   -0.27312  -0.27282
 Alpha virt. eigenvalues --   -0.12346  -0.08077  -0.04402  -0.03376  -0.00668
 Alpha virt. eigenvalues --   -0.00140   0.00260   0.01306   0.01971   0.02441
 Alpha virt. eigenvalues --    0.02690   0.03081   0.03878   0.04223   0.04302

  Beta  occ. eigenvalues -- -101.56664 -19.13492 -19.13400 -10.29107 -10.28785
  Beta  occ. eigenvalues --  -10.26803 -10.22794 -10.21993 -10.21266 -10.21123
  Beta  occ. eigenvalues --  -10.20990 -10.20744 -10.20324 -10.20125 -10.20090
  Beta  occ. eigenvalues --  -10.20038 -10.19983  -9.48142  -7.24617  -7.23655
  Beta  occ. eigenvalues --   -7.23535  -1.07069  -1.06816  -0.91780  -0.89236
  Beta  occ. eigenvalues --   -0.86360  -0.81879  -0.78170  -0.77844  -0.76650
  Beta  occ. eigenvalues --   -0.69549  -0.67410  -0.65268  -0.61752  -0.58758
  Beta  occ. eigenvalues --   -0.57000  -0.56234  -0.51245  -0.49955  -0.49567
  Beta  occ. eigenvalues --   -0.49234  -0.46406  -0.46274  -0.45850  -0.45369
  Beta  occ. eigenvalues --   -0.45168  -0.44723  -0.42533  -0.41083  -0.40607
  Beta  occ. eigenvalues --   -0.39060  -0.38236  -0.37882  -0.37141  -0.35263
  Beta  occ. eigenvalues --   -0.33635  -0.29673  -0.29024  -0.28274  -0.28124
  Beta  occ. eigenvalues --   -0.27312  -0.27282
  Beta virt. eigenvalues --   -0.12346  -0.08077  -0.04402  -0.03376  -0.00668
  Beta virt. eigenvalues --   -0.00140   0.00260   0.01306   0.01971   0.02441
  Beta virt. eigenvalues --    0.02690   0.03081   0.03878   0.04223   0.04302

 Mulliken charges and spin densities:
               1          2
     1  Cl   0.410215   0.000000
     2  C    1.000421  -0.000000
     3  C   -0.047332   0.000000
     4  C   -0.562527  -0.000000
     5  C    0.361091   0.000000
     6  C    0.232719   0.000000
     7  C   -0.828112  -0.000000
     8  O   -0.264030   0.000000
     9  C   -0.008994  -0.000000
    10  C    0.187953  -0.000000
    11  C   -0.387292  -0.000000
    12  C   -0.421662  -0.000000
    13  C    0.269441   0.000000
    14  C    0.058582  -0.000000
    15  C   -1.292613   0.000000
    16  O   -0.179570  -0.000000
    17  C    0.039283  -0.000000
    18  H    0.229303   0.000000
    19  H    0.215147  -0.000000
    20  H    0.194062   0.000000
    21  H    0.187620   0.000000
    22  H    0.207827   0.000000
    23  H    0.209895   0.000000
    24  H    0.188573   0.000000
 Sum of Mulliken charges =  -0.00000  -0.00000

 Dipole moment (field-independent basis, Debye):
    X=             -0.5525    Y=             -1.7942    Z=             -0.2058  Tot=              1.8885
 Quadrupole moment (field-independent basis, Debye-Ang):
   XX=            -72.8426   YY=           -119.7822   ZZ=           -105.9347
   XY=             -9.3958   XZ=              2.8233   YZ=             -1.2868

  Exact polarizability: 347.997   5.400 309.968  20.964   4.930 118.602
 Approx polarizability: 375.435   4.874 397.777  21.496   6.598 140.551

                      1                      2                      3
                      A                      A                      A
 Frequencies --     18.0471                49.2852               105.6933
 Red. masses --      9.6621                 8.8083                 4.6557
 Frc consts  --      0.0019                 0.0126                 0.0306
 IR Inten    --      8.9160                 3.4185                 0.0510

                      4                      5                      6
                      A                      A                      A
 Frequencies --    154.7060               180.0506               190.1003
 Red. masses --      6.6795                 9.8414                 4.6938
 Frc consts  --      0.0942                 0.1880                 0.0999
 IR Inten    --      1.4766                 2.2106                 0.0389

                      7                      8                      9
                      A                      A                      A
 Frequencies --    240.2231               272.0420               331.3937
 Red. masses --      5.9196                 7.5150                 9.6424
 Frc consts  --      0.2013                 0.3277                 0.6239
 IR Inten    --      0.0014                 0.2271                 0.5508

                     10                     11                     12
                      A                      A                      A
 Frequencies --    360.2127               397.2189               405.9921
 Red. masses --      7.9336                 8.8075                10.5685
 Frc consts  --      0.6065                 0.8188                 1.0264
 IR Inten    --      0.7407                24.8112                28.4320

                     13                     14                     15
                      A                      A                      A
 Frequencies --    422.5470               431.4773               460.2382
 Red. masses --      3.3052                 5.0170                 9.5295
 Frc consts  --      0.3477                 0.5503                 1.1893
 IR Inten    --      0.1863                 0.0310                 5.4829

                     16                     17                     18
                      A                      A                      A
 Frequencies --    487.0811               490.2487               522.5001
 Red. masses --     11.4233                 3.8494                 5.0225
 Frc consts  --      1.5968                 0.5451                 0.8079
 IR Inten    --      2.7876                 1.6294                 5.4991

                     19                     20                     21
                      A                      A                      A
 Frequencies --    623.8851               656.5773               662.7811
 Red. masses --      6.6815                 6.9908                 4.5968
 Frc consts  --      1.5323                 1.7756                 1.1897
 IR Inten    --      2.5268                34.7485                 4.8013

                     22                     23                     24
                      A                      A                      A
 Frequencies --    696.9670               722.3179               735.9857
 Red. masses --      7.2357                 3.1227                 2.4293
 Frc consts  --      2.0709                 0.9599                 0.7753
 IR Inten    --      1.3450                55.4785                94.1906

                     25                     26                     27
                      A                      A                      A
 Frequencies --    757.7438               792.7140               814.5848
 Red. masses --      7.3831                 1.6185                 3.2410
 Frc consts  --      2.4977                 0.5992                 1.2671
 IR Inten    --     63.3080                 4.6483                 6.4317

                     28                     29                     30
                      A                      A                      A
 Frequencies --    817.0770               834.1657               915.4791
 Red. masses --      7.4041                 2.1323                 1.4210
 Frc consts  --      2.9124                 0.8742                 0.7017
 IR Inten    --     47.3219                40.6086                 0.0203

                     31                     32                     33
                      A                      A                      A
 Frequencies --    928.2602               954.5766               968.6886
 Red. masses --      6.7442                 1.3824                 7.7952
 Frc consts  --      3.4239                 0.7422                 4.3097
 IR Inten    --     14.8115                 0.0346               149.6773

                     34                     35                     36
                      A                      A                      A
 Frequencies --   1004.0709              1019.4785              1025.2910
 Red. masses --      1.3840                 1.3456                 1.3365
 Frc consts  --      0.8221                 0.8240                 0.8278
 IR Inten    --      2.0027                 0.9256                 0.0119

                     37                     38                     39
                      A                      A                      A
 Frequencies --   1056.5922              1097.4494              1114.2372
 Red. masses --      2.0800                 2.2329                 2.2681
 Frc consts  --      1.3682                 1.5845                 1.6590
 IR Inten    --      2.0430                 2.7784                 0.1629

                     40                     41                     42
                      A                      A                      A
 Frequencies --   1140.3863              1174.7639              1182.5836
 Red. masses --      4.0405                 1.6474                 1.3023
 Frc consts  --      3.0959                 1.3395                 1.0731
 IR Inten    --    136.6252                 5.0497                27.7804

                     43                     44                     45
                      A                      A                      A
 Frequencies --   1196.0122              1210.8105              1258.0376
 Red. masses --      1.5540                 1.6592                 2.1751
 Frc consts  --      1.3097                 1.4332                 2.0282
 IR Inten    --     19.0780                 0.8744               184.2401

                     46                     47                     48
                      A                      A                      A
 Frequencies --   1278.8708              1321.1113              1335.4669
 Red. masses --      3.3073                 2.6286                 9.1965
 Frc consts  --      3.1869                 2.7030                 9.6636
 IR Inten    --    811.8699               148.7382               222.4431

                     49                     50                     51
                      A                      A                      A
 Frequencies --   1361.4058              1445.4982              1469.9411
 Red. masses --      8.0440                 3.4445                 2.2637
 Frc consts  --      8.7841                 4.2405                 2.8818
 IR Inten    --      4.6159                40.8351                 4.0183

                     52                     53                     54
                      A                      A                      A
 Frequencies --   1481.9277              1507.7453              1592.6559
 Red. masses --      2.4138                 2.6020                 6.0883
 Frc consts  --      3.1232                 3.4851                 9.0989
 IR Inten    --     10.5325                 9.0629                 5.8363

                     55                     56                     57
                      A                      A                      A
 Frequencies --   1607.2831              1615.8570              1623.0942
 Red. masses --      5.8756                 7.1996                 5.7449
 Frc consts  --      8.9430                11.0756                 8.9170
 IR Inten    --    348.4308                10.4173                94.1722

                     58                     59                     60
                      A                      A                      A
 Frequencies --   1696.9234              1707.2441              3179.8881
 Red. masses --     12.2097                12.1101                 1.0876
 Frc consts  --     20.7148                20.7964                 6.4797
 IR Inten    --     73.4168               691.0853                 3.3456

                     61                     62                     63
                      A                      A                      A
 Frequencies --   3190.9346              3192.3086              3205.9233
 Red. masses --      1.0889                 1.0919                 1.0927
 Frc consts  --      6.5326                 6.5558                 6.6171
 IR Inten    --      4.8974                11.4015                 3.2753

                     64                     65                     66
                      A                      A                      A
 Frequencies --   3207.8211              3208.8624              3214.8239
 Red. masses --      1.0932                 1.0948                 1.0947
 Frc consts  --      6.6277                 6.6420                 6.6660
 IR Inten    --      1.2142                18.2494                 6.9314

 - Thermochemistry -
 -------------------
 Temperature   298.150 Kelvin.  Pressure   1.00000 Atm.
 Atom     1 has atomic number 17 and mass  34.96885

 Molecular mass:   242.01346 amu.
 Principal axes and moments of inertia in atomic units:
                           1         2         3
     Eigenvalues --  2345.741125210.584557555.81280
           X            0.96489  -0.24722  -0.08873
           Y            0.24622   0.96896  -0.02221
           Z            0.09147  -0.00042   0.99581
 This molecule is an asymmetric top.
 Rotational symmetry number  1.
 Warning -- assumption of classical behavior for rotation
           may cause significant error
 Rotational temperatures (Kelvin)      0.03692     0.01662     0.01146
 Rotational constants (GHZ):           0.76937     0.34636     0.23885
 Zero-point vibrational energy     444569.2 (Joules/Mol)
                                  106.25458 (Kcal/Mol)
 Warning -- explicit consideration of  18 degrees of freedom as
           vibrations may cause significant error
 Vibrational temperatures:     25.97    70.91   152.07   222.59   259.05
          (Kelvin)            273.51   345.63   391.41   476.80   518.27
                              571.51   584.13   607.95   620.80   662.18
                              700.80   705.36   751.76   897.63   944.67
                              953.59  1002.78  1039.25  1058.92  1090.22
                             1140.54  1172.01  1175.59  1200.18  1317.17
                             1335.56  1373.42  1393.73  1444.63  1466.80
                             1475.17  1520.20  1578.98  1603.14  1640.76
                             1690.22  1701.47  1720.79  1742.09  1810.04
                             1840.01  1900.78  1921.44  1958.76  2079.75
                             2114.92  2132.16  2169.31  2291.48  2312.52
                             2324.86  2335.27  2441.49  2456.34  4575.15
                             4591.04  4593.02  4612.61  4615.34  4616.84
                             4625.41

 Zero-point correction=                           0.169327 (Hartree/Particle)
 Thermal correction to Energy=                    0.181893
 Thermal correction to Enthalpy=                  0.182837
 Thermal correction to Gibbs Free Energy=         0.128678
 Sum of electronic and zero-point Energies=          -1148.404695
 Sum of electronic and thermal Energies=             -1148.392129
 Sum of electronic and thermal Enthalpies=           -1148.391185
 Sum of electronic and thermal Free Energies=        -1148.445345

                     E (Thermal)             CV                S
                      KCal/Mol        Cal/Mol-Kelvin    Cal/Mol-Kelvin
 Total                  114.140             49.564            113.988
 Electronic               0.000              0.000              0.000
 Translational            0.889              2.981             42.353
 Rotational               0.889              2.981             32.890
 Vibrational            112.362             43.602             38.746
 Vibration     1          0.593              1.986              6.838
 Vibration     2          0.595              1.978              4.846
 Vibration     3          0.605              1.945              3.347
 Vibration     4          0.620              1.897              2.614
 Vibration     5          0.629              1.867              2.328
 Vibration     6          0.633              1.854              2.227
 Vibration     7          0.657              1.779              1.801
 Vibration     8          0.675              1.725              1.583
 Vibration     9          0.714              1.613              1.253
 Vibration    10          0.735              1.554              1.121
 Vibration    11          0.764              1.476              0.973
 Vibration    12          0.771              1.457              0.941
 Vibration    13          0.785              1.421              0.883
 Vibration    14          0.793              1.402              0.854
 Vibration    15          0.818              1.338              0.765
 Vibration    16          0.843              1.279              0.691
 Vibration    17          0.846              1.272              0.683
 Vibration    18          0.877              1.200              0.604

 Optimization completed.
    -- Stationary point found.
 Normal termination of Gaussian 16 at Sat Feb 10 16:41:55 2024.
