 Gaussian 16, Revision A.03,
 Gaussian 16:  ES64L-G16RevA.03 25-Dec-2016

 --------------------------------------
 #P UB3LYP/6-311++G(d,p) nosym opt freq
 --------------------------------------

 -------
 Radical
 -------
 Symbolic Z-matrix:
 Charge = -1 Multiplicity = 2

 SCF Done:  E(UB3LYP) =  -1485.43365690     A.U. after   22 cycles
 SCF Done:  E(UB3LYP) =  -1485.44499398     A.U. after   18 cycles
 SCF Done:  E(UB3LYP) =  -1485.44520275     A.U. after   17 cycles
 SCF Done:  E(UB3LYP) =  -1485.44524823     A.U. after   16 cycles
 SCF Done:  E(UB3LYP) =  -1485.44525306     A.U. after   15 cycles
 SCF Done:  E(UB3LYP) =  -1485.44525007     A.U. after   15 cycles
 SCF Done:  E(UB3LYP) =  -1485.44525263     A.U. after   15 cycles
 SCF Done:  E(UB3LYP) =  -1485.44525397     A.U. after   15 cycles
 SCF Done:  E(UB3LYP) =  -1485.44525446     A.U. after   12 cycles
 Optimization completed.
    -- Stationary point found.
 Normal termination of Gaussian 16 at Sun Dec 17 21:13:25 2023.

 ----------------------------------------------------------------------
 #P Geom=AllCheck Guess=TCheck SCRF=Check GenChk UB3LYP/6-311++G(d,p) F
 req
 ----------------------------------------------------------------------

 Structure from the checkpoint file:  "002-rad.chk"
 -------
 Radical
 -------
 Charge = -1 Multiplicity = 2

                          Input orientation:
 ---------------------------------------------------------------------
 Center     Atomic      Atomic             Coordinates (Angstroms)
 Number     Number       Type             X           Y           Z
 ---------------------------------------------------------------------
      1          6           0        0.066316    1.722662   -0.000022
      2          6           0       -1.167636    0.913587   -0.000787
      3          6           0       -1.155860   -0.448122    0.000216
      4          6           0        0.091899   -1.235732    0.002111
      5          6           0        1.315019   -0.445463    0.002883
      6          6           0        1.302919    0.953670    0.001860
      7          8           0        0.043280    2.961279   -0.001013
      8          8           0        0.090288   -2.474563    0.003101
      9          6           0        2.515170    1.698527    0.002638
     10          6           0        2.539959   -1.169262    0.004734
     11          7           0        3.505190    2.298627    0.003281
     12          7           0        3.540194   -1.752174    0.006236
     13         17           0       -2.656281    1.822417   -0.003062
     14         17           0       -2.628568   -1.382564   -0.000687
 ---------------------------------------------------------------------

 SCF Done:  E(UB3LYP) =  -1485.44525446     A.U. after    2 cycles

 Alpha  occ. eigenvalues -- -101.46426-101.46426 -18.99972 -18.99971 -14.20905
 Alpha  occ. eigenvalues --  -14.20904 -10.15857 -10.15856 -10.15416 -10.15349
 Alpha  occ. eigenvalues --  -10.12330 -10.12279 -10.10758 -10.10756  -9.37884
 Alpha  occ. eigenvalues --   -9.37883  -7.14352  -7.14352  -7.13405  -7.13405
 Alpha  occ. eigenvalues --   -7.13285  -7.13285  -0.93547  -0.93226  -0.81388
 Alpha  occ. eigenvalues --   -0.80918  -0.80417  -0.75960  -0.74832  -0.66347
 Alpha  occ. eigenvalues --   -0.63228  -0.55019  -0.52456  -0.43669  -0.43273
 Alpha  occ. eigenvalues --   -0.41937  -0.37022  -0.35617  -0.33238  -0.32512
 Alpha  occ. eigenvalues --   -0.32135  -0.30845  -0.29468  -0.26808  -0.26675
 Alpha  occ. eigenvalues --   -0.25645  -0.25390  -0.24131  -0.24027  -0.23321
 Alpha  occ. eigenvalues --   -0.23241  -0.21294  -0.19046  -0.16673  -0.16320
 Alpha  occ. eigenvalues --   -0.16207  -0.08696
 Alpha virt. eigenvalues --    0.02923   0.07698   0.09379   0.10860   0.11253
 Alpha virt. eigenvalues --    0.12247   0.12536   0.13631   0.14314   0.14338
 Alpha virt. eigenvalues --    0.14499   0.16049   0.16206   0.16215   0.16481

  Beta  occ. eigenvalues -- -101.46424-101.46424 -18.99292 -18.99292 -14.20778
  Beta  occ. eigenvalues --  -14.20777 -10.15833 -10.15832 -10.15360 -10.15292
  Beta  occ. eigenvalues --  -10.12099 -10.12046 -10.10809 -10.10806  -9.37883
  Beta  occ. eigenvalues --   -9.37882  -7.14355  -7.14355  -7.13396  -7.13396
  Beta  occ. eigenvalues --   -7.13285  -7.13285  -0.92454  -0.92082  -0.81103
  Beta  occ. eigenvalues --   -0.80777  -0.80216  -0.75888  -0.74267  -0.66149
  Beta  occ. eigenvalues --   -0.62309  -0.54630  -0.52177  -0.43368  -0.43065
  Beta  occ. eigenvalues --   -0.41679  -0.36899  -0.34388  -0.32863  -0.32013
  Beta  occ. eigenvalues --   -0.31596  -0.28952  -0.28790  -0.26615  -0.26472
  Beta  occ. eigenvalues --   -0.24973  -0.24176  -0.23930  -0.23332  -0.23273
  Beta  occ. eigenvalues --   -0.23170  -0.21263  -0.16400  -0.16027  -0.15618
  Beta  occ. eigenvalues --   -0.15554
  Beta virt. eigenvalues --   -0.01932   0.04464   0.07752   0.10909   0.11124
  Beta virt. eigenvalues --    0.11289   0.12289   0.12569   0.13664   0.14386
  Beta virt. eigenvalues --    0.14406   0.14544   0.16084   0.16255   0.16526

 Mulliken charges and spin densities:
               1          2
     1  C   -1.667231  -0.011557
     2  C    0.715566   0.027759
     3  C    0.715678   0.027759
     4  C   -1.667276  -0.011559
     5  C    1.883689   0.188052
     6  C    1.883679   0.188052
     7  O   -0.267231   0.255190
     8  O   -0.267230   0.255190
     9  C   -1.362082  -0.019538
    10  C   -1.362054  -0.019537
    11  N   -0.225079   0.061519
    12  N   -0.225076   0.061520
    13  Cl   0.422324  -0.001425
    14  Cl   0.422323  -0.001425
 Sum of Mulliken charges =  -1.00000   1.00000

 Dipole moment (field-independent basis, Debye):
    X=             -6.4780    Y=             -1.2221    Z=             -0.0116  Tot=              6.5923
 Quadrupole moment (field-independent basis, Debye-Ang):
   XX=           -136.8872   YY=           -135.7967   ZZ=            -92.5646
   XY=             -1.5848   XZ=             -0.0543   YZ=              0.0289

  Exact polarizability: 213.636   0.176 193.242   0.155  -0.090  69.955
 Approx polarizability: 310.880  -0.395 356.448   0.221  -0.184 107.196

                      1                      2                      3
                      A                      A                      A
 Frequencies --     60.2261                63.8754                96.1333
 Red. masses --     17.5978                16.3088                18.6030
 Frc consts  --      0.0376                 0.0392                 0.1013
 IR Inten    --      0.0000                 0.0857                 0.0000

                      4                      5                      6
                      A                      A                      A
 Frequencies --    128.8889               150.6449               159.9547
 Red. masses --     13.9889                15.4947                13.4618
 Frc consts  --      0.1369                 0.2072                 0.2029
 IR Inten    --      0.6983                 1.5275                19.1148

                      7                      8                      9
                      A                      A                      A
 Frequencies --    210.6133               262.1097               266.2050
 Red. masses --     31.8093                19.3031                12.6804
 Frc consts  --      0.8313                 0.7813                 0.5294
 IR Inten    --      0.1460                 1.5553                 0.9339

                     10                     11                     12
                      A                      A                      A
 Frequencies --    323.6920               333.4173               345.0000
 Red. masses --     16.7740                12.4997                20.5539
 Frc consts  --      1.0355                 0.8187                 1.4414
 IR Inten    --      0.0114                 0.0000                 0.3891

                     13                     14                     15
                      A                      A                      A
 Frequencies --    368.8450               436.1462               460.6106
 Red. masses --     14.4750                14.3416                12.2962
 Frc consts  --      1.1603                 1.6074                 1.5371
 IR Inten    --      0.1318                 1.5741                 0.0000

                     16                     17                     18
                      A                      A                      A
 Frequencies --    484.4646               504.6738               528.7845
 Red. masses --     13.8807                14.4395                12.2097
 Frc consts  --      1.9195                 2.1668                 2.0115
 IR Inten    --     14.2656                 1.1406                 1.9135

                     19                     20                     21
                      A                      A                      A
 Frequencies --    536.3221               622.7210               736.2036
 Red. masses --     12.7663                12.0939                12.1975
 Frc consts  --      2.1636                 2.7631                 3.8951
 IR Inten    --      0.4471                 0.0000                 6.5732

                     22                     23                     24
                      A                      A                      A
 Frequencies --    765.1508               778.1466               778.7394
 Red. masses --     12.1178                12.4338                13.3675
 Frc consts  --      4.1799                 4.4359                 4.7762
 IR Inten    --      0.0000                 0.0037                67.8220

                     25                     26                     27
                      A                      A                      A
 Frequencies --    867.9797              1005.9407              1034.4666
 Red. masses --     12.9175                12.6114                12.3704
 Frc consts  --      5.7339                 7.5189                 7.7995
 IR Inten    --     73.3785                 2.7372               125.2458

                     28                     29                     30
                      A                      A                      A
 Frequencies --   1186.7575              1208.1989              1366.5877
 Red. masses --     12.0940                12.1310                12.0469
 Frc consts  --     10.0356                10.4334                13.2557
 IR Inten    --    137.3073                14.8440                 0.1340

                     31                     32                     33
                      A                      A                      A
 Frequencies --   1462.6811              1559.8653              1572.8277
 Red. masses --     12.1729                12.4209                13.0963
 Frc consts  --     15.3442                17.8064                19.0880
 IR Inten    --     97.4523                47.7172               312.1823

                     34                     35                     36
                      A                      A                      A
 Frequencies --   1607.0211              2301.1212              2306.9759
 Red. masses --     12.6332                12.6851                12.6800
 Frc consts  --     19.2224                39.5753                39.7607
 IR Inten    --      1.1132               194.1105                31.5673

 - Thermochemistry -
 -------------------
 Temperature   298.150 Kelvin.  Pressure   1.00000 Atm.
 Atom     1 has atomic number  6 and mass  12.00000

 Molecular mass:   225.93368 amu.
 Principal axes and moments of inertia in atomic units:
                           1         2         3
     Eigenvalues --  2341.106313791.269666132.37597
           X            0.99996  -0.00864  -0.00108
           Y            0.00865   0.99996   0.00073
           Z            0.00108  -0.00074   1.00000
 This molecule is an asymmetric top.
 Rotational symmetry number  1.
 Warning -- assumption of classical behavior for rotation
           may cause significant error
 Rotational temperatures (Kelvin)      0.03700     0.02285     0.01412
 Rotational constants (GHZ):           0.77089     0.47603     0.29430
 Zero-point vibrational energy     160790.0 (Joules/Mol)
                                   38.42974 (Kcal/Mol)
 Warning -- explicit consideration of  19 degrees of freedom as
           vibrations may cause significant error
 Vibrational temperatures:     86.65    91.90   138.31   185.44   216.74
          (Kelvin)            230.14   303.03   377.12   383.01   465.72
                              479.71   496.38   530.69   627.52   662.72
                              697.04   726.11   760.80   771.65   895.96
                             1059.23  1100.88  1119.58  1120.43  1248.83
                             1447.32  1488.37  1707.48  1738.33  1966.21
                             2104.47  2244.30  2262.95  2312.14  3310.80
                             3319.22

 Zero-point correction=                           0.061242 (Hartree/Particle)
 Thermal correction to Energy=                    0.073426
 Thermal correction to Enthalpy=                  0.074370
 Thermal correction to Gibbs Free Energy=         0.020941
 Sum of electronic and zero-point Energies=          -1485.384013
 Sum of electronic and thermal Energies=             -1485.371829
 Sum of electronic and thermal Enthalpies=           -1485.370884
 Sum of electronic and thermal Free Energies=        -1485.424313

                     E (Thermal)             CV                S
                      KCal/Mol        Cal/Mol-Kelvin    Cal/Mol-Kelvin
 Total                   46.075             42.726            112.450
 Electronic               0.000              0.000              1.377
 Translational            0.889              2.981             42.148
 Rotational               0.889              2.981             32.365
 Vibrational             44.298             36.764             36.560
 Vibration     1          0.597              1.973              4.450
 Vibration     2          0.597              1.972              4.334
 Vibration     3          0.603              1.952              3.531
 Vibration     4          0.611              1.924              2.963
 Vibration     5          0.618              1.902              2.664
 Vibration     6          0.622              1.891              2.550
 Vibration     7          0.643              1.825              2.038
 Vibration     8          0.669              1.742              1.648
 Vibration     9          0.672              1.735              1.621
 Vibration    10          0.708              1.628              1.291
 Vibration    11          0.715              1.609              1.243
 Vibration    12          0.723              1.585              1.189
 Vibration    13          0.741              1.536              1.085
 Vibration    14          0.797              1.391              0.839
 Vibration    15          0.818              1.337              0.764
 Vibration    16          0.841              1.285              0.698
 Vibration    17          0.860              1.240              0.647
 Vibration    18          0.884              1.186              0.590
 Vibration    19          0.891              1.170              0.573

 Optimization completed.
    -- Stationary point found.
 Normal termination of Gaussian 16 at Sun Dec 17 21:24:08 2023.
