 Gaussian 16, Revision A.03,
 Gaussian 16:  ES64L-G16RevA.03 25-Dec-2016

 ----------------------------------------------------------------
 #P UB3LYP/6-311++G(d,p) SCRF=(PCM,Solvent=n,n-DiMethylFormamide)
 ----------------------------------------------------------------

 -------
 Reduced
 -------
 Symbolic Z-matrix:
 Charge = -1 Multiplicity = 2

                         Standard orientation:
 ---------------------------------------------------------------------
 Center     Atomic      Atomic             Coordinates (Angstroms)
 Number     Number       Type             X           Y           Z
 ---------------------------------------------------------------------
      1          6           0       -3.651822   -1.744622    0.000124
      2          6           0       -4.980869   -1.376301    0.000709
      3          6           0       -5.339570   -0.011814    0.000957
      4          6           0       -2.627894   -0.767366   -0.000171
      5          6           0       -2.990947    0.609321   -0.000011
      6          6           0       -4.355451    0.957894    0.000553
      7          6           0       -1.243286   -1.181665   -0.000526
      8          6           0       -1.980152    1.676676   -0.000449
      9          6           0       -0.231887   -0.140318   -0.000526
     10          6           0       -0.575385    1.244271   -0.000501
     11          6           0        1.145522   -0.452102   -0.000424
     12          6           0        2.138663    0.501915   -0.000241
     13          6           0        1.784735    1.860302   -0.000287
     14          6           0        0.446432    2.211962   -0.000419
     15          8           0       -0.919738   -2.430658   -0.001015
     16          8           0       -2.295323    2.881582   -0.000413
     17          7           0        1.532753   -1.872971   -0.000413
     18          1           0       -3.355396   -2.786322   -0.000077
     19          1           0       -5.754029   -2.138193    0.000961
     20          1           0       -6.386517    0.273601    0.001431
     21          1           0       -4.600914    2.013354    0.000702
     22         16           0        3.863875   -0.090874    0.000420
     23          1           0        2.573113    2.602728   -0.000140
     24          1           0        0.572946   -2.405696   -0.000956
     25          1           0        2.142774   -2.045667   -0.812466
     26          1           0        0.143221    3.252226   -0.000390
     27          8           0        3.917592   -0.931975   -1.234453
     28          8           0        4.723379    1.101452    0.000137
     29          8           0        3.916992   -0.930936    1.236002
     30          1           0        2.141781   -2.045902    0.812315
 ---------------------------------------------------------------------

 SCF Done:  E(UB3LYP) =  -1368.39494109     A.U. after   21 cycles

 The electronic state is 2-A.
 Alpha  occ. eigenvalues --  -89.06201 -19.11105 -19.10591 -19.10428 -19.10428
 Alpha  occ. eigenvalues --  -19.09463 -14.39944 -10.24799 -10.24654 -10.24489
 Alpha  occ. eigenvalues --  -10.21482 -10.20470 -10.19536 -10.19523 -10.19092
 Alpha  occ. eigenvalues --  -10.18909 -10.18677 -10.18268 -10.18198 -10.18060
 Alpha  occ. eigenvalues --  -10.18001  -8.12086  -6.08359  -6.08337  -6.08274
 Alpha  occ. eigenvalues --   -1.12706  -1.03247  -1.02454  -0.99942  -0.98373
 Alpha  occ. eigenvalues --   -0.97973  -0.88254  -0.86599  -0.80933  -0.77253
 Alpha  occ. eigenvalues --   -0.76218  -0.76163  -0.69338  -0.67032  -0.64785
 Alpha  occ. eigenvalues --   -0.61557  -0.60573  -0.58379  -0.57451  -0.55688
 Alpha  occ. eigenvalues --   -0.53994  -0.52748  -0.50543  -0.49760  -0.49546
 Alpha  occ. eigenvalues --   -0.47045  -0.46917  -0.46392  -0.45849  -0.44107
 Alpha  occ. eigenvalues --   -0.44006  -0.43402  -0.43189  -0.42319  -0.40664
 Alpha  occ. eigenvalues --   -0.40001  -0.38641  -0.38233  -0.36710  -0.35949
 Alpha  occ. eigenvalues --   -0.35113  -0.34903  -0.34881  -0.31899  -0.31747
 Alpha  occ. eigenvalues --   -0.30461  -0.28731  -0.27931  -0.27629  -0.27036
 Alpha  occ. eigenvalues --   -0.26780  -0.26313  -0.25683  -0.16347
 Alpha virt. eigenvalues --   -0.07505  -0.03970  -0.02138  -0.00741   0.00194
 Alpha virt. eigenvalues --    0.00804   0.01917   0.02107   0.03095   0.03465
 Alpha virt. eigenvalues --    0.03743   0.03976   0.04073   0.04351   0.05476

  Beta  occ. eigenvalues --  -89.06201 -19.11107 -19.10427 -19.10426 -19.10055
  Beta  occ. eigenvalues --  -19.08949 -14.39950 -10.24591 -10.24475 -10.24395
  Beta  occ. eigenvalues --  -10.21487 -10.20439 -10.19404 -10.19393 -10.19134
  Beta  occ. eigenvalues --  -10.18911 -10.18577 -10.18267 -10.18122 -10.18021
  Beta  occ. eigenvalues --  -10.18004  -8.12086  -6.08359  -6.08337  -6.08274
  Beta  occ. eigenvalues --   -1.12705  -1.02415  -1.01567  -0.99894  -0.98370
  Beta  occ. eigenvalues --   -0.97815  -0.88004  -0.86468  -0.80556  -0.77006
  Beta  occ. eigenvalues --   -0.76032  -0.75999  -0.68741  -0.66686  -0.64562
  Beta  occ. eigenvalues --   -0.61455  -0.60531  -0.58202  -0.57243  -0.55626
  Beta  occ. eigenvalues --   -0.53881  -0.52606  -0.50398  -0.49589  -0.49336
  Beta  occ. eigenvalues --   -0.46959  -0.46895  -0.46360  -0.45742  -0.43983
  Beta  occ. eigenvalues --   -0.43348  -0.42763  -0.42667  -0.42048  -0.40458
  Beta  occ. eigenvalues --   -0.38256  -0.38130  -0.37632  -0.36583  -0.35095
  Beta  occ. eigenvalues --   -0.35094  -0.34810  -0.34742  -0.31743  -0.31524
  Beta  occ. eigenvalues --   -0.30428  -0.27695  -0.27207  -0.27101  -0.26532
  Beta  occ. eigenvalues --   -0.25944  -0.25810  -0.25200
  Beta virt. eigenvalues --   -0.10373  -0.06524  -0.02961  -0.01812  -0.00721
  Beta virt. eigenvalues --    0.00199   0.00816   0.01930   0.02115   0.03341
  Beta virt. eigenvalues --    0.03760   0.03985   0.04010   0.04365   0.04944

 Mulliken charges and spin densities:
               1          2
     1  C    0.010541   0.072152
     2  C   -0.489816  -0.005136
     3  C   -0.435206   0.069004
     4  C    0.213643  -0.043950
     5  C    0.253368   0.061123
     6  C    0.068364   0.001808
     7  C   -0.331208   0.193398
     8  C   -0.416422   0.045587
     9  C    0.234887   0.021576
    10  C    0.573491   0.097019
    11  C   -0.241706   0.055399
    12  C   -1.044564  -0.015362
    13  C    0.038076   0.098390
    14  C    0.124699  -0.023355
    15  O   -0.448821   0.197737
    16  O   -0.392399   0.191453
    17  N   -0.438275  -0.002555
    18  H    0.171534  -0.003391
    19  H    0.192146  -0.000424
    20  H    0.191732  -0.004712
    21  H    0.167984  -0.000184
    22  S    0.343042  -0.001919
    23  H    0.237146  -0.006355
    24  H    0.458102  -0.003436
    25  H    0.380793   0.001416
    26  H    0.182684   0.000747
    27  O   -0.414313   0.001605
    28  O   -0.155969  -0.000658
    29  O   -0.414316   0.001602
    30  H    0.380783   0.001419
 Sum of Mulliken charges =  -1.00000   1.00000

 Dipole moment (field-independent basis, Debye):
    X=            -10.4087    Y=             -4.0777    Z=             -0.0007  Tot=             11.1790
 Quadrupole moment (field-independent basis, Debye-Ang):
   XX=           -207.8357   YY=           -146.9497   ZZ=           -139.9221
   XY=              7.4774   XZ=             -0.0191   YZ=             -0.0009

 Normal termination of Gaussian 16 at Wed Jan 17 09:46:33 2024.
