 Q-Chem 5.4, Q-Chem, Inc., Pleasanton, CA (2021)
 Q-Chem 5.4.0 for Intel X86 EM64T Linux

User input:
--------------------------------------------------------------
$molecule
-2 1
C                 -4.0105950000     -1.0259210000      0.2419760000
C                 -2.6274870000     -0.4203500000      0.2477490000
C                 -2.4545280000      0.9972800000      0.4246250000
C                 -3.6539990000      1.8961260000      0.6065790000
C                 -1.1840990000      1.5462300000      0.4292160000
O                 -1.0052420000      2.8900630000      0.5962010000
C                 -0.0156670000      0.7202910000      0.2586710000
C                  1.2841250000      1.3239270000      0.2690480000
O                  1.4316710000      2.6265870000      0.4323920000
C                  2.4004160000      0.4530740000      0.0953140000
C                  3.7240350000      0.9724870000      0.0935110000
C                  4.8277310000      0.1651430000     -0.0712220000
C                  4.6561430000     -1.2415830000     -0.2472430000
C                  3.3882840000     -1.7797800000     -0.2508190000
C                  2.2258330000     -0.9782490000     -0.0836830000
C                  0.9304210000     -1.5755390000     -0.0933680000
O                  0.7605870000     -2.8755360000     -0.2550890000
C                 -0.1886120000     -0.6973200000      0.0816060000
C                 -1.5239520000     -1.2388320000      0.0816570000
O                 -1.6737190000     -2.5861920000     -0.0870090000
H                 -3.9392760000     -2.1046920000      0.0955460000
H                 -4.6442940000     -0.6142640000     -0.5588620000
H                 -4.5506700000     -0.8447810000      1.1842840000
H                 -4.2488990000      1.6258070000      1.4928300000
H                 -3.3248630000      2.9297570000      0.7231860000
H                 -4.3435410000      1.8525600000     -0.2507540000
H                  0.0372550000      2.9976280000      0.5550790000
H                  3.8262650000      2.0445720000      0.2292050000
H                  5.8278270000      0.5951480000     -0.0676490000
H                  5.5254430000     -1.8837490000     -0.3778200000
H                  3.2297190000     -2.8454800000     -0.3826240000
H                 -0.6863130000     -2.9244150000     -0.1840850000
$end
$rem
MAX_SCF_CYCLES=200
BASIS  =  6-311++G(d,p)
GUI  =  2
JOB_TYPE  =  SP
METHOD  =  B3LYP
SOLVENT_METHOD = PCM
$end
$pcm
theory = CPCM
$end
$solvent
dielectric 37.219
opticaldielectric 1.43
$end

--------------------------------------------------------------

             Standard Nuclear Orientation (Angstroms)
    I     Atom           X                Y                Z
 ----------------------------------------------------------------
    1      C      -4.0105950000    -1.0259210000     0.2419760000
    2      C      -2.6274870000    -0.4203500000     0.2477490000
    3      C      -2.4545280000     0.9972800000     0.4246250000
    4      C      -3.6539990000     1.8961260000     0.6065790000
    5      C      -1.1840990000     1.5462300000     0.4292160000
    6      O      -1.0052420000     2.8900630000     0.5962010000
    7      C      -0.0156670000     0.7202910000     0.2586710000
    8      C       1.2841250000     1.3239270000     0.2690480000
    9      O       1.4316710000     2.6265870000     0.4323920000
   10      C       2.4004160000     0.4530740000     0.0953140000
   11      C       3.7240350000     0.9724870000     0.0935110000
   12      C       4.8277310000     0.1651430000    -0.0712220000
   13      C       4.6561430000    -1.2415830000    -0.2472430000
   14      C       3.3882840000    -1.7797800000    -0.2508190000
   15      C       2.2258330000    -0.9782490000    -0.0836830000
   16      C       0.9304210000    -1.5755390000    -0.0933680000
   17      O       0.7605870000    -2.8755360000    -0.2550890000
   18      C      -0.1886120000    -0.6973200000     0.0816060000
   19      C      -1.5239520000    -1.2388320000     0.0816570000
   20      O      -1.6737190000    -2.5861920000    -0.0870090000
   21      H      -3.9392760000    -2.1046920000     0.0955460000
   22      H      -4.6442940000    -0.6142640000    -0.5588620000
   23      H      -4.5506700000    -0.8447810000     1.1842840000
   24      H      -4.2488990000     1.6258070000     1.4928300000
   25      H      -3.3248630000     2.9297570000     0.7231860000
   26      H      -4.3435410000     1.8525600000    -0.2507540000
   27      H       0.0372550000     2.9976280000     0.5550790000
   28      H       3.8262650000     2.0445720000     0.2292050000
   29      H       5.8278270000     0.5951480000    -0.0676490000
   30      H       5.5254430000    -1.8837490000    -0.3778200000
   31      H       3.2297190000    -2.8454800000    -0.3826240000
   32      H      -0.6863130000    -2.9244150000    -0.1840850000
 ----------------------------------------------------------------

    9    -918.3783348133      1.83e-06  Convergence criterion met
 Total energy in the final basis set =     -918.3783348133

                    Orbital Energies (a.u.)
 --------------------------------------------------------------

 Alpha MOs
 -- Occupied --
-19.0929 -19.0928 -19.0477 -19.0476 -10.1944 -10.1944 -10.1881 -10.1880
-10.1538 -10.1534 -10.1523 -10.1523 -10.1472 -10.1468 -10.1459 -10.1459
-10.1457 -10.1453 -10.1453 -10.1449  -1.0129  -1.0112  -0.9525  -0.9502
 -0.8349  -0.8182  -0.7743  -0.7328  -0.7278  -0.7236  -0.6828  -0.6631
 -0.6311  -0.5964  -0.5925  -0.5591  -0.5436  -0.5123  -0.4910  -0.4782
 -0.4751  -0.4445  -0.4357  -0.4260  -0.4206  -0.4105  -0.4044  -0.3929
 -0.3874  -0.3869  -0.3845  -0.3827  -0.3708  -0.3605  -0.3575  -0.3571
 -0.3422  -0.3374  -0.3253  -0.3239  -0.3221  -0.3169  -0.3080  -0.2703
 -0.2381  -0.2338  -0.2307  -0.2174  -0.2129  -0.1836  -0.1172

          Ground-State Mulliken Net Atomic Charges

     Atom                 Charge (a.u.)
  ----------------------------------------
      1 C                    -0.569731
      2 C                     0.409750
      3 C                     0.409792
      4 C                    -0.566749
      5 C                    -0.547723
      6 O                    -0.551464
      7 C                     0.406151
      8 C                    -0.222291
      9 O                    -0.683740
     10 C                     0.104281
     11 C                    -0.121588
     12 C                    -0.465406
     13 C                    -0.464531
     14 C                    -0.121218
     15 C                     0.096242
     16 C                    -0.223234
     17 O                    -0.683545
     18 C                     0.408364
     19 C                    -0.549582
     20 O                    -0.550979
     21 H                     0.174633
     22 H                     0.150532
     23 H                     0.151016
     24 H                     0.150803
     25 H                     0.174911
     26 H                     0.150566
     27 H                     0.431494
     28 H                     0.158447
     29 H                     0.177523
     30 H                     0.177599
     31 H                     0.158537
     32 H                     0.431140
  ----------------------------------------
  Sum of atomic charges =    -2.000000

                    Cartesian Multipole Moments
 -----------------------------------------------------------------
    Charge (ESU x 10^10)
                -9.6064
    Dipole Moment (Debye)
         X      -4.6505      Y       0.5257      Z      -1.2495
       Tot       4.8441
    Quadrupole Moments (Debye-Ang)
        XX    -155.0120     XY      -3.9841     YY    -185.4482
        XZ       0.1322     YZ      -7.1745     ZZ    -129.6479

 Total job time:  72.43s(wall), 472.07s(cpu)
        *  Thank you very much for using Q-Chem.  Have a nice day.  *
