 Q-Chem 5.4, Q-Chem, Inc., Pleasanton, CA (2021)
 Q-Chem 5.4.0 for Intel X86 EM64T Linux

User input:
--------------------------------------------------------------
$molecule
-1 2
C                 -0.5090580000      1.1682300000     -0.4054300000
C                 -1.4126200000      0.1260870000     -0.8940140000
C                 -1.2510590000     -1.2089340000     -0.6782690000
C                 -0.1043770000     -1.6896150000      0.0964450000
C                  0.7859380000     -0.6800260000      0.5941340000
C                  0.6243040000      0.6886320000      0.4033750000
O                 -0.7122780000      2.3598420000     -0.7149410000
O                  0.0788010000     -2.9232210000      0.3127260000
C                  1.5825260000      1.6293580000      1.0241180000
C                  2.9496120000      1.0757140000      1.4576440000
O                  1.3532880000      2.8134500000      1.2298480000
H                 -2.2524320000      0.4950190000     -1.4784200000
H                  3.4138780000      0.4634510000      0.6803990000
H                  2.8488770000      0.4514930000      2.3516280000
H                  3.5907180000      1.9243180000      1.6979750000
C                 -2.2094390000     -2.2374300000     -1.2128500000
H                  1.6161480000     -1.0617640000      1.1779840000
H                 -3.0247790000     -1.7663670000     -1.7684830000
H                 -2.6301840000     -2.8355190000     -0.3978430000
H                 -1.6925650000     -2.9459980000     -1.8684660000
$end

$rem
BASIS  =  6-311++G(d,p)
GUI  =  2
JOB_TYPE  =  SP
METHOD  =  B3LYP
SCF_CONVERGENCE  = 8
SOLVENT_METHOD = sm12
$end

$smx
solvent dimethylformamide
charges CM5
$end

--------------------------------------------------------------

             Standard Nuclear Orientation (Angstroms)
    I     Atom           X                Y                Z
 ----------------------------------------------------------------
    1      C      -0.5090580000     1.1682300000    -0.4054300000
    2      C      -1.4126200000     0.1260870000    -0.8940140000
    3      C      -1.2510590000    -1.2089340000    -0.6782690000
    4      C      -0.1043770000    -1.6896150000     0.0964450000
    5      C       0.7859380000    -0.6800260000     0.5941340000
    6      C       0.6243040000     0.6886320000     0.4033750000
    7      O      -0.7122780000     2.3598420000    -0.7149410000
    8      O       0.0788010000    -2.9232210000     0.3127260000
    9      C       1.5825260000     1.6293580000     1.0241180000
   10      C       2.9496120000     1.0757140000     1.4576440000
   11      O       1.3532880000     2.8134500000     1.2298480000
   12      H      -2.2524320000     0.4950190000    -1.4784200000
   13      H       3.4138780000     0.4634510000     0.6803990000
   14      H       2.8488770000     0.4514930000     2.3516280000
   15      H       3.5907180000     1.9243180000     1.6979750000
   16      C      -2.2094390000    -2.2374300000    -1.2128500000
   17      H       1.6161480000    -1.0617640000     1.1779840000
   18      H      -3.0247790000    -1.7663670000    -1.7684830000
   19      H      -2.6301840000    -2.8355190000    -0.3978430000
   20      H      -1.6925650000    -2.9459980000    -1.8684660000
 ----------------------------------------------------------------

   18    -573.6592545576      2.78e-09  Convergence criterion met
 Total energy in the final basis set =     -573.7438333964

                    Orbital Energies (a.u.)
 --------------------------------------------------------------

 Alpha MOs
 -- Occupied --
-19.1007 -19.0829 -19.0798 -10.2549 -10.2324 -10.2242 -10.1858 -10.1783
-10.1777 -10.1710 -10.1705 -10.1687  -1.0336  -1.0058  -1.0024  -0.8368
 -0.7892  -0.7340  -0.7046  -0.6835  -0.6076  -0.5873  -0.5208  -0.4927
 -0.4736  -0.4494  -0.4433  -0.4366  -0.4295  -0.4205  -0.4063  -0.3966
 -0.3955  -0.3858  -0.3756  -0.3747  -0.3646  -0.3535  -0.2869  -0.2655
 -0.2624  -0.2459  -0.2246  -0.1698

 Beta MOs
 -- Occupied --
-19.0995 -19.0750 -19.0738 -10.2549 -10.2320 -10.2232 -10.1855 -10.1768
-10.1754 -10.1706 -10.1700 -10.1688  -1.0314  -0.9956  -0.9888  -0.8312
 -0.7867  -0.7329  -0.7007  -0.6756  -0.6040  -0.5845  -0.5176  -0.4907
 -0.4714  -0.4466  -0.4392  -0.4346  -0.4255  -0.4190  -0.3995  -0.3956
 -0.3872  -0.3817  -0.3722  -0.3617  -0.3513  -0.3452  -0.2604  -0.2568
 -0.2526  -0.2387  -0.2203

          Ground-State Mulliken Net Atomic Charges

     Atom                 Charge (a.u.)    Spin (a.u.)
  --------------------------------------------------------
      1 C                    -1.911695       0.010673
      2 C                    -0.756946       0.059526
      3 C                     1.076432       0.016070
      4 C                    -1.195968       0.078667
      5 C                    -0.757980       0.171259
      6 C                     0.908011       0.105580
      7 O                    -0.340755       0.221463
      8 O                    -0.334421       0.288181
      9 C                    -0.143954       0.010971
     10 C                     0.359987       0.003328
     11 O                    -0.297536       0.040731
     12 H                     0.133201      -0.007050
     13 H                     0.194106      -0.000430
     14 H                     0.200422       0.000645
     15 H                     0.286848      -0.000285
     16 C                     0.732082       0.011860
     17 H                     0.183452      -0.013095
     18 H                     0.267671      -0.000273
     19 H                     0.194938       0.001243
     20 H                     0.202103       0.000935
  --------------------------------------------------------
  Sum of atomic charges =    -1.000000

                    Cartesian Multipole Moments
 -----------------------------------------------------------------
    Charge (ESU x 10^10)
                -4.8032
    Dipole Moment (Debye)
         X       0.4270      Y      -3.0149      Z      -0.5536
       Tot       3.0949
    Quadrupole Moments (Debye-Ang)
        XX     -72.7245     XY       0.6482     YY    -120.9081
        XZ      -1.3126     YZ       0.9086     ZZ     -76.0749

 Total job time:  317.19s(wall), 2201.78s(cpu)
        *  Thank you very much for using Q-Chem.  Have a nice day.  *
