 Gaussian 16, Revision A.03,
 Gaussian 16:  ES64L-G16RevA.03 25-Dec-2016

 ----------------------------------------------------------------
 #P UB3LYP/6-311++G(d,p) SCRF=(PCM,Solvent=n,n-DiMethylFormamide)
 ----------------------------------------------------------------

 ------------------
 Radical PCM in DMF
 ------------------
 Symbolic Z-matrix:
 Charge = -1 Multiplicity = 2

                         Standard orientation:
 ---------------------------------------------------------------------
 Center     Atomic      Atomic             Coordinates (Angstroms)
 Number     Number       Type             X           Y           Z
 ---------------------------------------------------------------------
      1         17           0       -4.685343   -0.642436    0.000023
      2          6           0       -3.015802   -0.022639    0.000009
      3          6           0       -2.823902    1.373255    0.000072
      4          6           0       -1.532335    1.858349    0.000053
      5          6           0       -0.415653    0.995197   -0.000031
      6          6           0        0.930393    1.568549   -0.000064
      7          8           0        1.124341    2.808874   -0.000072
      8          6           0        2.037034    0.607971   -0.000050
      9          6           0        3.364741    1.088782   -0.000037
     10          6           0        4.439563    0.222446    0.000088
     11          6           0        4.218939   -1.172497    0.000113
     12          6           0        2.929920   -1.666106    0.000039
     13          6           0        1.814199   -0.799617   -0.000017
     14          6           0        0.466697   -1.373464   -0.000057
     15          8           0        0.268465   -2.613764   -0.000079
     16          6           0       -0.636904   -0.413129   -0.000041
     17          6           0       -1.963282   -0.903294   -0.000016
     18          1           0       -3.677283    2.040194    0.000159
     19          1           0       -1.338776    2.924840    0.000175
     20          1           0        3.503788    2.163776   -0.000092
     21          1           0        5.453540    0.611263    0.000118
     22          1           0        5.063723   -1.854967    0.000154
     23          1           0        2.731407   -2.731675   -0.000037
     24          1           0       -2.109674   -1.975719   -0.000033
 ---------------------------------------------------------------------

 SCF Done:  E(UB3LYP) =  -1148.71950179     A.U. after   20 cycles

 The electronic state is 2-A.
 Alpha  occ. eigenvalues -- -101.55588 -19.07951 -19.07929 -10.23773 -10.22821
 Alpha  occ. eigenvalues --  -10.22742 -10.18512 -10.18235 -10.18167 -10.18043
 Alpha  occ. eigenvalues --  -10.17811 -10.17600 -10.17546 -10.17501 -10.17450
 Alpha  occ. eigenvalues --  -10.17193 -10.17179  -9.47032  -7.23464  -7.22535
 Alpha  occ. eigenvalues --   -7.22499  -1.00738  -1.00486  -0.89108  -0.85998
 Alpha  occ. eigenvalues --   -0.83944  -0.78337  -0.75956  -0.75255  -0.73559
 Alpha  occ. eigenvalues --   -0.67078  -0.64277  -0.61738  -0.59517  -0.56153
 Alpha  occ. eigenvalues --   -0.53799  -0.52699  -0.47983  -0.47249  -0.46425
 Alpha  occ. eigenvalues --   -0.45815  -0.43607  -0.42809  -0.42591  -0.41730
 Alpha  occ. eigenvalues --   -0.41580  -0.40970  -0.39090  -0.38794  -0.38411
 Alpha  occ. eigenvalues --   -0.35843  -0.35561  -0.35312  -0.33843  -0.32641
 Alpha  occ. eigenvalues --   -0.32061  -0.27089  -0.26354  -0.25875  -0.25044
 Alpha  occ. eigenvalues --   -0.24888  -0.24107  -0.14555
 Alpha virt. eigenvalues --   -0.05910  -0.02697  -0.00943  -0.00323   0.00567
 Alpha virt. eigenvalues --    0.00719   0.01407   0.02277   0.02700   0.03978
 Alpha virt. eigenvalues --    0.04450   0.04590   0.04600   0.05176   0.06139

  Beta  occ. eigenvalues -- -101.55587 -19.07408 -19.07363 -10.23719 -10.22657
  Beta  occ. eigenvalues --  -10.22564 -10.18454 -10.18225 -10.18075 -10.18054
  Beta  occ. eigenvalues --  -10.17723 -10.17533 -10.17473 -10.17459 -10.17404
  Beta  occ. eigenvalues --  -10.17193 -10.17171  -9.47031  -7.23466  -7.22527
  Beta  occ. eigenvalues --   -7.22498  -0.99777  -0.99494  -0.88991  -0.85777
  Beta  occ. eigenvalues --   -0.83813  -0.77985  -0.75735  -0.75073  -0.73373
  Beta  occ. eigenvalues --   -0.66336  -0.64107  -0.61480  -0.59449  -0.55911
  Beta  occ. eigenvalues --   -0.53578  -0.52536  -0.47706  -0.47133  -0.46255
  Beta  occ. eigenvalues --   -0.45734  -0.43572  -0.42548  -0.41632  -0.41446
  Beta  occ. eigenvalues --   -0.41143  -0.40700  -0.38645  -0.38618  -0.36097
  Beta  occ. eigenvalues --   -0.35778  -0.35172  -0.34966  -0.33700  -0.32045
  Beta  occ. eigenvalues --   -0.31785  -0.26095  -0.25063  -0.24883  -0.24532
  Beta  occ. eigenvalues --   -0.24338  -0.23594
  Beta virt. eigenvalues --   -0.08653  -0.05004  -0.01640  -0.00709  -0.00306
  Beta virt. eigenvalues --    0.00566   0.00762   0.01420   0.02289   0.02702
  Beta virt. eigenvalues --    0.04320   0.04455   0.04609   0.05026   0.05186

 Mulliken charges and spin densities:
               1          2
     1  Cl   0.446203   0.002403
     2  C    0.607234   0.031685
     3  C   -0.512858   0.048166
     4  C    0.015253   0.018265
     5  C    0.064315   0.044337
     6  C   -0.634395   0.091368
     7  O   -0.451094   0.201509
     8  C    0.147163   0.027166
     9  C    0.124675   0.024654
    10  C   -0.449441   0.038004
    11  C   -0.445985   0.030066
    12  C    0.105668   0.031472
    13  C    0.228747   0.027478
    14  C   -0.659661   0.101827
    15  O   -0.453799   0.210336
    16  C   -0.107630   0.062029
    17  C   -0.291329   0.024326
    18  H    0.202852  -0.003684
    19  H    0.176084  -0.000833
    20  H    0.167929  -0.001323
    21  H    0.182895  -0.003084
    22  H    0.183354  -0.002570
    23  H    0.165613  -0.001841
    24  H    0.188208  -0.001757
 Sum of Mulliken charges =  -1.00000   1.00000

 Dipole moment (field-independent basis, Debye):
    X=             -0.3315    Y=              0.4163    Z=              0.0004  Tot=              0.5322
 Quadrupole moment (field-independent basis, Debye-Ang):
   XX=           -118.5317   YY=           -137.7829   ZZ=           -111.3734
   XY=             -9.8388   XZ=             -0.0002   YZ=              0.0006

 Normal termination of Gaussian 16 at Sun Jan 14 01:10:36 2024.
