 Q-Chem 5.4, Q-Chem, Inc., Pleasanton, CA (2021)
 Q-Chem 5.4.0 for Intel X86 EM64T Linux

User input:
--------------------------------------------------------------
$molecule
-2 2
C                 -3.4910560000      2.4308950000      1.1340260000
C                 -4.2138110000      2.2998590000      2.3041160000
C                 -3.8327700000      1.3563790000      3.2733210000
C                 -2.3419150000      1.6242220000      0.8634270000
C                 -1.9548770000      0.6657510000      1.8472210000
C                 -2.7030040000      0.5563830000      3.0173420000
C                 -1.6335010000      1.8174530000     -0.3836450000
C                 -0.4514870000      0.9724850000     -0.6293980000
C                 -0.0140610000      0.0015430000      0.3024640000
C                 -0.7341350000     -0.2462380000      1.6397280000
C                  0.2697620000      1.1355130000     -1.8388330000
C                  1.3879860000      0.3664270000     -2.1233230000
C                  1.8193380000     -0.5947070000     -1.2052120000
C                  1.1157040000     -0.7619510000     -0.0136020000
O                 -2.0133020000      2.6812630000     -1.2318940000
S                  2.3701580000      0.6189300000     -3.6507810000
O                  1.3950120000      1.0140050000     -4.7020720000
O                  3.3497240000      1.6914050000     -3.3106910000
O                  3.0200360000     -0.7032140000     -3.9003640000
C                  0.2737920000     -0.0031650000      2.7984780000
C                 -1.2060950000     -1.7273690000      1.6832770000
H                 -3.7663420000      3.1516670000      0.3730910000
H                 -5.0834240000      2.9321920000      2.4751170000
H                 -4.3908690000      1.2420600000      4.1978890000
H                 -2.4120760000     -0.1722850000      3.7695740000
H                 -0.0872280000      1.8755500000     -2.5431680000
H                  2.6814370000     -1.2060270000     -1.4418320000
H                  1.4659950000     -1.5184540000      0.6837050000
H                  0.6152890000      1.0347880000      2.7837240000
H                  1.1513870000     -0.6491040000      2.7009960000
H                 -0.1893170000     -0.1955890000      3.7715180000
H                 -0.3638790000     -2.4147240000      1.5600500000
H                 -1.9169990000     -1.9157980000      0.8749530000
H                 -1.7015130000     -1.9557050000      2.6323660000
$end

$rem
BASIS  =  6-311++G(d,p)
GUI  =  2
JOB_TYPE  =  SP
METHOD  =  B3LYP
SCF_CONVERGENCE  = 8
SOLVENT_METHOD = sm12
$end

$smx
solvent dimethylformamide
charges CM5
$end

--------------------------------------------------------------

             Standard Nuclear Orientation (Angstroms)
    I     Atom           X                Y                Z
 ----------------------------------------------------------------
    1      C      -3.4910560000     2.4308950000     1.1340260000
    2      C      -4.2138110000     2.2998590000     2.3041160000
    3      C      -3.8327700000     1.3563790000     3.2733210000
    4      C      -2.3419150000     1.6242220000     0.8634270000
    5      C      -1.9548770000     0.6657510000     1.8472210000
    6      C      -2.7030040000     0.5563830000     3.0173420000
    7      C      -1.6335010000     1.8174530000    -0.3836450000
    8      C      -0.4514870000     0.9724850000    -0.6293980000
    9      C      -0.0140610000     0.0015430000     0.3024640000
   10      C      -0.7341350000    -0.2462380000     1.6397280000
   11      C       0.2697620000     1.1355130000    -1.8388330000
   12      C       1.3879860000     0.3664270000    -2.1233230000
   13      C       1.8193380000    -0.5947070000    -1.2052120000
   14      C       1.1157040000    -0.7619510000    -0.0136020000
   15      O      -2.0133020000     2.6812630000    -1.2318940000
   16      S       2.3701580000     0.6189300000    -3.6507810000
   17      O       1.3950120000     1.0140050000    -4.7020720000
   18      O       3.3497240000     1.6914050000    -3.3106910000
   19      O       3.0200360000    -0.7032140000    -3.9003640000
   20      C       0.2737920000    -0.0031650000     2.7984780000
   21      C      -1.2060950000    -1.7273690000     1.6832770000
   22      H      -3.7663420000     3.1516670000     0.3730910000
   23      H      -5.0834240000     2.9321920000     2.4751170000
   24      H      -4.3908690000     1.2420600000     4.1978890000
   25      H      -2.4120760000    -0.1722850000     3.7695740000
   26      H      -0.0872280000     1.8755500000    -2.5431680000
   27      H       2.6814370000    -1.2060270000    -1.4418320000
   28      H       1.4659950000    -1.5184540000     0.6837050000
   29      H       0.6152890000     1.0347880000     2.7837240000
   30      H       1.1513870000    -0.6491040000     2.7009960000
   31      H      -0.1893170000    -0.1955890000     3.7715180000
   32      H      -0.3638790000    -2.4147240000     1.5600500000
   33      H      -1.9169990000    -1.9157980000     0.8749530000
   34      H      -1.7015130000    -1.9557050000     2.6323660000
 ----------------------------------------------------------------

   18   -1316.8705232427      8.25e-09  Convergence criterion met
 Total energy in the final basis set =    -1317.1342359500

                    Orbital Energies (a.u.)
 --------------------------------------------------------------

 Alpha MOs
 -- Occupied --
-89.0252 -19.0699 -19.0693 -19.0688 -19.0530 -10.2051 -10.2010 -10.1873
-10.1841 -10.1832 -10.1765 -10.1763 -10.1751 -10.1734 -10.1732 -10.1728
-10.1706 -10.1705 -10.1703 -10.1681 -10.1661  -8.0839  -6.0466  -6.0465
 -6.0458  -1.0850  -0.9757  -0.9502  -0.9473  -0.8735  -0.8524  -0.8169
 -0.7672  -0.7524  -0.7415  -0.7311  -0.6964  -0.6497  -0.6434  -0.6207
 -0.5966  -0.5762  -0.5614  -0.5328  -0.5147  -0.4850  -0.4714  -0.4655
 -0.4579  -0.4422  -0.4392  -0.4363  -0.4300  -0.4277  -0.4213  -0.4124
 -0.4072  -0.4050  -0.3933  -0.3915  -0.3789  -0.3656  -0.3650  -0.3567
 -0.3533  -0.3402  -0.3317  -0.3164  -0.3113  -0.3105  -0.2853  -0.2732
 -0.2710  -0.2580  -0.2546  -0.2538  -0.2428  -0.2321  -0.2241  -0.1164

 Beta MOs
 -- Occupied --
-89.0252 -19.0699 -19.0693 -19.0688 -19.0468 -10.2052 -10.1975 -10.1881
-10.1828 -10.1818 -10.1772 -10.1770 -10.1755 -10.1737 -10.1709 -10.1709
-10.1703 -10.1703 -10.1703 -10.1665 -10.1642  -8.0839  -6.0466  -6.0465
 -6.0458  -1.0850  -0.9642  -0.9502  -0.9474  -0.8713  -0.8504  -0.8154
 -0.7628  -0.7506  -0.7389  -0.7296  -0.6959  -0.6431  -0.6417  -0.6189
 -0.5946  -0.5751  -0.5597  -0.5309  -0.5132  -0.4831  -0.4707  -0.4650
 -0.4558  -0.4411  -0.4385  -0.4337  -0.4299  -0.4274  -0.4207  -0.4112
 -0.4063  -0.4040  -0.3891  -0.3809  -0.3783  -0.3624  -0.3604  -0.3523
 -0.3521  -0.3306  -0.3256  -0.3153  -0.3112  -0.3104  -0.2838  -0.2731
 -0.2712  -0.2513  -0.2475  -0.2389  -0.2334  -0.2321  -0.2185

          Ground-State Mulliken Net Atomic Charges

     Atom                 Charge (a.u.)    Spin (a.u.)
  --------------------------------------------------------
      1 C                    -0.708058       0.194953
      2 C                     0.770639      -0.066912
      3 C                     1.732265       0.214798
      4 C                    -0.194715      -0.045059
      5 C                     0.069933       0.137785
      6 C                     0.494851      -0.061880
      7 C                    -1.137201       0.218561
      8 C                    -0.510517      -0.033684
      9 C                     0.204762       0.121543
     10 C                     0.553416      -0.113128
     11 C                    -1.708980       0.147436
     12 C                    -3.392308      -0.077792
     13 C                    -0.684859       0.152796
     14 C                     0.301333      -0.046602
     15 O                    -0.408575       0.239388
     16 S                     0.459616       0.004412
     17 O                    -0.370181      -0.000869
     18 O                    -0.307610      -0.001762
     19 O                    -0.318449      -0.001316
     20 C                     0.083426       0.016854
     21 C                     0.099180       0.016897
     22 H                     0.088215      -0.012438
     23 H                     0.312712       0.004280
     24 H                     0.399461      -0.015345
     25 H                     0.303896       0.002922
     26 H                     0.002630      -0.012171
     27 H                     0.215442      -0.011952
     28 H                     0.331027       0.002598
     29 H                     0.059120       0.002892
     30 H                     0.269367       0.004478
     31 H                     0.330419       0.005462
     32 H                     0.272948       0.004760
     33 H                     0.059710       0.003082
     34 H                     0.327086       0.005014
  --------------------------------------------------------
  Sum of atomic charges =    -2.000000

                    Cartesian Multipole Moments
 -----------------------------------------------------------------
    Charge (ESU x 10^10)
                -9.6064
    Dipole Moment (Debye)
         X      -4.8421      Y     -12.3005      Z      21.5741
       Tot      25.3019
    Quadrupole Moments (Debye-Ang)
        XX    -208.5342     XY       9.1609     YY    -171.9816
        XZ      56.6741     YZ      15.4153     ZZ    -240.0878

 Total job time:  1450.78s(wall), 11311.01s(cpu)
        *  Thank you very much for using Q-Chem.  Have a nice day.  *
