 Gaussian 16, Revision A.03,
 Gaussian 16:  ES64L-G16RevA.03 25-Dec-2016

 ----------------------------------------------------------------------
 #P UB3LYP/6-311++G(d,p) nosym opt freq SCRF=(PCM,Solvent=n,n-DiMethylF
 ormamide)
 ----------------------------------------------------------------------

 -------
 Radical
 -------
 Symbolic Z-matrix:
 Charge = -1 Multiplicity = 2

 SCF Done:  E(UB3LYP) =  -1051.59958195     A.U. after   22 cycles
 SCF Done:  E(UB3LYP) =  -1051.59858659     A.U. after   21 cycles
 SCF Done:  E(UB3LYP) =  -1051.60000859     A.U. after   16 cycles
 SCF Done:  E(UB3LYP) =  -1051.60007626     A.U. after   17 cycles
 SCF Done:  E(UB3LYP) =  -1051.60005187     A.U. after   16 cycles
 SCF Done:  E(UB3LYP) =  -1051.60008787     A.U. after   15 cycles
 SCF Done:  E(UB3LYP) =  -1051.60009545     A.U. after   12 cycles
 SCF Done:  E(UB3LYP) =  -1051.60009626     A.U. after   11 cycles
 SCF Done:  E(UB3LYP) =  -1051.60009717     A.U. after   11 cycles
 SCF Done:  E(UB3LYP) =  -1051.60009859     A.U. after   13 cycles
 SCF Done:  E(UB3LYP) =  -1051.60010025     A.U. after   12 cycles
 SCF Done:  E(UB3LYP) =  -1051.60010126     A.U. after   12 cycles
 SCF Done:  E(UB3LYP) =  -1051.60010154     A.U. after   12 cycles
 SCF Done:  E(UB3LYP) =  -1051.60010157     A.U. after   10 cycles
 Optimization completed.
    -- Stationary point found.
 Normal termination of Gaussian 16 at Sun Feb 11 03:22:40 2024.

 ----------------------------------------------------------------------
 #P Geom=AllCheck Guess=TCheck SCRF=Check GenChk UB3LYP/6-311++G(d,p) F
 req
 ----------------------------------------------------------------------

 Structure from the checkpoint file:  "278-rad.chk"
 -------
 Radical
 -------
 Charge = -1 Multiplicity = 2

                          Input orientation:
 ---------------------------------------------------------------------
 Center     Atomic      Atomic             Coordinates (Angstroms)
 Number     Number       Type             X           Y           Z
 ---------------------------------------------------------------------
      1          6           0        0.210741    3.942492    0.306016
      2          6           0       -0.935125    3.534499    0.966546
      3          6           0       -1.264178    2.167495    1.019230
      4          6           0        1.062509    3.007376   -0.315859
      5          6           0        0.731780    1.631820   -0.263178
      6          6           0       -0.441617    1.235592    0.410818
      7          6           0        2.266083    3.473036   -1.024616
      8          6           0        3.115944    2.446826   -1.594883
      9          6           0        2.805815    1.085739   -1.539683
     10          6           0        1.591424    0.624753   -0.898588
     11          8           0        2.519382    4.705488   -1.115509
     12          8           0        1.276598   -0.603044   -0.867631
     13          1           0        0.476919    4.991125    0.253241
     14          1           0       -1.578988    4.266226    1.442539
     15          1           0       -2.162216    1.845689    1.535585
     16          1           0       -0.682582    0.180037    0.440823
     17         16           0        4.566295    2.990531   -2.504230
     18          6           0        3.690617    0.027531   -2.146816
     19          1           0        3.521957   -0.065587   -3.226858
     20          1           0        3.467349   -0.940832   -1.699917
     21          1           0        4.746112    0.267142   -2.011483
     22          6           0        5.551586    3.889083   -1.221848
     23          6           0        6.795679    4.497638   -1.861140
     24          1           0        5.822010    3.170803   -0.445680
     25          1           0        4.906896    4.653904   -0.792959
     26          1           0        7.430991    3.733778   -2.317996
     27          1           0        7.387787    5.013126   -1.099611
     28          1           0        6.531848    5.227303   -2.631322
 ---------------------------------------------------------------------

 SCF Done:  E(UB3LYP) =  -1051.60010157     A.U. after    1 cycles

 Alpha  occ. eigenvalues --  -88.83282 -19.07498 -19.07493 -10.22535 -10.22023
 Alpha  occ. eigenvalues --  -10.18913 -10.18876 -10.17714 -10.17397 -10.17345
 Alpha  occ. eigenvalues --  -10.17338 -10.17290 -10.17062 -10.17020 -10.16338
 Alpha  occ. eigenvalues --  -10.15197  -7.91900  -5.88285  -5.87925  -5.87290
 Alpha  occ. eigenvalues --   -1.00034  -0.99624  -0.85880  -0.82401  -0.78622
 Alpha  occ. eigenvalues --   -0.75564  -0.74996  -0.71992  -0.67765  -0.65632
 Alpha  occ. eigenvalues --   -0.61428  -0.59584  -0.57860  -0.55194  -0.51238
 Alpha  occ. eigenvalues --   -0.49072  -0.46618  -0.45419  -0.44811  -0.43272
 Alpha  occ. eigenvalues --   -0.42862  -0.42438  -0.41444  -0.40962  -0.39747
 Alpha  occ. eigenvalues --   -0.38691  -0.38274  -0.37404  -0.36919  -0.36370
 Alpha  occ. eigenvalues --   -0.35632  -0.34947  -0.34354  -0.33646  -0.31577
 Alpha  occ. eigenvalues --   -0.26994  -0.25652  -0.25136  -0.24557  -0.23668
 Alpha  occ. eigenvalues --   -0.21917  -0.15309
 Alpha virt. eigenvalues --   -0.03553  -0.02013  -0.00500   0.00221   0.00809
 Alpha virt. eigenvalues --    0.01842   0.01954   0.02547   0.03486   0.03576
 Alpha virt. eigenvalues --    0.04079   0.04312   0.04852   0.05164   0.05867

  Beta  occ. eigenvalues --  -88.83281 -19.06930 -19.06846 -10.22385 -10.21855
  Beta  occ. eigenvalues --  -10.18864 -10.18786 -10.17521 -10.17348 -10.17319
  Beta  occ. eigenvalues --  -10.17297 -10.17258 -10.17061 -10.17009 -10.16337
  Beta  occ. eigenvalues --  -10.15211  -7.91898  -5.88289  -5.87927  -5.87279
  Beta  occ. eigenvalues --   -0.99037  -0.98480  -0.85675  -0.82028  -0.78460
  Beta  occ. eigenvalues --   -0.75387  -0.74829  -0.71687  -0.67604  -0.64981
  Beta  occ. eigenvalues --   -0.61320  -0.59401  -0.57644  -0.54933  -0.51011
  Beta  occ. eigenvalues --   -0.48842  -0.46371  -0.45367  -0.44734  -0.43127
  Beta  occ. eigenvalues --   -0.42408  -0.41894  -0.41116  -0.40431  -0.39111
  Beta  occ. eigenvalues --   -0.38441  -0.38065  -0.37150  -0.36322  -0.35724
  Beta  occ. eigenvalues --   -0.34952  -0.34302  -0.33748  -0.33385  -0.31227
  Beta  occ. eigenvalues --   -0.25079  -0.24670  -0.24614  -0.23961  -0.23134
  Beta  occ. eigenvalues --   -0.21453
  Beta virt. eigenvalues --   -0.08766  -0.02807  -0.01002  -0.00451   0.00252
  Beta virt. eigenvalues --    0.00843   0.01857   0.01982   0.02559   0.03565
  Beta virt. eigenvalues --    0.03729   0.04158   0.04487   0.05046   0.05243

 Mulliken charges and spin densities:
               1          2
     1  C   -0.038611   0.024550
     2  C   -0.503713   0.026396
     3  C   -0.419770   0.016193
     4  C    0.246179   0.005581
     5  C    0.724585   0.010424
     6  C    0.010551   0.029581
     7  C   -1.345660   0.097548
     8  C    1.338283   0.084409
     9  C    0.905317   0.144365
    10  C   -1.278550   0.093305
    11  O   -0.430564   0.208185
    12  O   -0.462411   0.240554
    13  H    0.177055  -0.001821
    14  H    0.181318  -0.002148
    15  H    0.184989  -0.001597
    16  H    0.164582  -0.002636
    17  S   -0.580497   0.010728
    18  C   -0.299161  -0.003112
    19  H    0.183665   0.009571
    20  H    0.169671  -0.000242
    21  H    0.145583   0.003619
    22  C   -0.326670   0.004562
    23  C   -0.576244   0.002651
    24  H    0.183317  -0.000251
    25  H    0.193253  -0.000809
    26  H    0.149235  -0.000023
    27  H    0.150772   0.000127
    28  H    0.153496   0.000288
 Sum of Mulliken charges =  -1.00000   1.00000

 Dipole moment (field-independent basis, Debye):
    X=             -9.3029    Y=             -9.6871    Z=              6.8490  Tot=             15.0762
 Quadrupole moment (field-independent basis, Debye-Ang):
   XX=           -121.4014   YY=           -156.7739   ZZ=           -119.3866
   XY=            -24.8662   XZ=             16.7537   YZ=             19.1374

  Exact polarizability: 337.511  30.051 347.878 -92.006   9.873 217.412
 Approx polarizability: 338.292  31.787 404.933 -83.654  11.139 236.768

                      1                      2                      3
                      A                      A                      A
 Frequencies --     40.3492                45.7991                64.1288
 Red. masses --      3.1351                 4.7734                 2.5072
 Frc consts  --      0.0030                 0.0059                 0.0061
 IR Inten    --      0.8468                 5.7703                 4.0998

                      4                      5                      6
                      A                      A                      A
 Frequencies --     80.7358                94.8509               123.2645
 Red. masses --      1.1128                 3.3420                 4.0171
 Frc consts  --      0.0043                 0.0177                 0.0360
 IR Inten    --      0.5417                11.3135                 1.8720

                      7                      8                      9
                      A                      A                      A
 Frequencies --    157.0003               183.3252               224.3784
 Red. masses --      4.5655                 6.7846                 2.7757
 Frc consts  --      0.0663                 0.1343                 0.0823
 IR Inten    --      1.1610                 2.7648                 3.1474

                     10                     11                     12
                      A                      A                      A
 Frequencies --    241.9768               251.1805               285.2929
 Red. masses --      1.5141                 3.8040                 5.2859
 Frc consts  --      0.0522                 0.1414                 0.2535
 IR Inten    --      0.8245                 0.7668                 6.2947

                     13                     14                     15
                      A                      A                      A
 Frequencies --    296.8509               354.5748               386.7574
 Red. masses --      4.9156                 3.5553                 7.9132
 Frc consts  --      0.2552                 0.2634                 0.6974
 IR Inten    --      0.5806                 3.1379                14.1101

                     16                     17                     18
                      A                      A                      A
 Frequencies --    393.2381               420.8059               428.3104
 Red. masses --      7.3416                 6.3907                 6.1888
 Frc consts  --      0.6689                 0.6667                 0.6689
 IR Inten    --     17.9641                 6.5115                 1.4552

                     19                     20                     21
                      A                      A                      A
 Frequencies --    448.3279               505.4220               531.1018
 Red. masses --      3.5112                10.3173                 4.6975
 Frc consts  --      0.4158                 1.5528                 0.7807
 IR Inten    --      1.5566                 0.4236                 0.8441

                     22                     23                     24
                      A                      A                      A
 Frequencies --    575.3031               655.1702               661.3792
 Red. masses --      6.6801                 4.5202                 6.1534
 Frc consts  --      1.3027                 1.1432                 1.5859
 IR Inten    --     21.5359                11.1843                12.2178

                     25                     26                     27
                      A                      A                      A
 Frequencies --    686.7198               692.2415               704.8084
 Red. masses --      4.6193                 5.1859                 3.1048
 Frc consts  --      1.2835                 1.4642                 0.9087
 IR Inten    --      7.5366                 8.4062                83.8563

                     28                     29                     30
                      A                      A                      A
 Frequencies --    787.9103               790.2513               793.2610
 Red. masses --      1.8098                 2.3818                 1.3878
 Frc consts  --      0.6620                 0.8764                 0.5145
 IR Inten    --     46.5705                 6.1498                 5.5387

                     31                     32                     33
                      A                      A                      A
 Frequencies --    811.2325               848.5546               890.2565
 Red. masses --      5.6108                 5.0056                 1.4453
 Frc consts  --      2.1755                 2.1236                 0.6749
 IR Inten    --     56.4803                 5.7377                 0.0369

                     34                     35                     36
                      A                      A                      A
 Frequencies --    972.8866               982.1104               987.5081
 Red. masses --      5.9766                 1.9539                 1.3680
 Frc consts  --      3.3330                 1.1104                 0.7860
 IR Inten    --     23.2068                21.9520                 2.8765

                     37                     38                     39
                      A                      A                      A
 Frequencies --   1002.8653              1028.5111              1037.7136
 Red. masses --      1.2866                 1.9068                 1.2066
 Frc consts  --      0.7624                 1.1884                 0.7655
 IR Inten    --      0.0672                57.2807                 5.5969

                     40                     41                     42
                      A                      A                      A
 Frequencies --   1041.3683              1043.1718              1069.0900
 Red. masses --      1.5148                 2.0972                 1.9945
 Frc consts  --      0.9678                 1.3446                 1.3431
 IR Inten    --      6.4481                29.6151                21.3103

                     43                     44                     45
                      A                      A                      A
 Frequencies --   1112.3476              1135.1934              1158.8636
 Red. masses --      2.1724                 3.0253                 1.4480
 Frc consts  --      1.5837                 2.2970                 1.1457
 IR Inten    --     33.5195                 5.8609                 8.4276

                     46                     47                     48
                      A                      A                      A
 Frequencies --   1204.2565              1230.1951              1253.5619
 Red. masses --      2.1509                 3.3815                 1.2760
 Frc consts  --      1.8378                 3.0151                 1.1814
 IR Inten    --      0.6852                16.6859                18.5150

                     49                     50                     51
                      A                      A                      A
 Frequencies --   1264.1381              1278.2871              1355.0240
 Red. masses --      2.1162                 1.2900                 8.8493
 Frc consts  --      1.9925                 1.2419                 9.5731
 IR Inten    --    137.5891                30.6611                 1.4834

                     52                     53                     54
                      A                      A                      A
 Frequencies --   1368.7611              1388.5982              1404.3907
 Red. masses --      2.5822                 1.4834                 1.2300
 Frc consts  --      2.8504                 1.6853                 1.4293
 IR Inten    --     25.9684               156.3129                 0.5152

                     55                     56                     57
                      A                      A                      A
 Frequencies --   1442.6792              1453.1919              1468.7979
 Red. masses --      3.7078                 1.4038                 2.0872
 Frc consts  --      4.5468                 1.7466                 2.6530
 IR Inten    --    279.8325               282.2026               200.1447

                     58                     59                     60
                      A                      A                      A
 Frequencies --   1479.2688              1480.9348              1484.5706
 Red. masses --      2.1288                 1.0799                 1.0829
 Frc consts  --      2.7447                 1.3954                 1.4061
 IR Inten    --      9.1479                16.7213                 4.8710

                     61                     62                     63
                      A                      A                      A
 Frequencies --   1490.0738              1493.3130              1505.7439
 Red. masses --      1.5115                 1.1079                 3.4728
 Frc consts  --      1.9774                 1.4556                 4.6390
 IR Inten    --     90.0209                21.8458               773.4621

                     64                     65                     66
                      A                      A                      A
 Frequencies --   1535.6831              1604.1729              1629.1555
 Red. masses --      5.1682                 7.6597                 5.8992
 Frc consts  --      7.1811                11.6136                 9.2250
 IR Inten    --     13.0057                27.6744                 3.8122

                     67                     68                     69
                      A                      A                      A
 Frequencies --   3008.8503              3023.6472              3055.1689
 Red. masses --      1.0534                 1.0346                 1.0634
 Frc consts  --      5.6190                 5.5728                 5.8479
 IR Inten    --     68.1385                58.7062                26.8339

                     70                     71                     72
                      A                      A                      A
 Frequencies --   3078.5541              3083.2430              3088.2909
 Red. masses --      1.0799                 1.1024                 1.0995
 Frc consts  --      6.0300                 6.1747                 6.1784
 IR Inten    --     32.9562                32.2233                51.7391

                     73                     74                     75
                      A                      A                      A
 Frequencies --   3126.6360              3127.0537              3159.1779
 Red. masses --      1.1039                 1.1021                 1.0862
 Frc consts  --      6.3582                 6.3494                 6.3870
 IR Inten    --      6.8580                30.3344                10.2657

                     76                     77                     78
                      A                      A                      A
 Frequencies --   3173.6377              3191.9896              3195.0859
 Red. masses --      1.0910                 1.0915                 1.0936
 Frc consts  --      6.4745                 6.5521                 6.5779
 IR Inten    --     27.3530                15.6524                34.2975

 - Thermochemistry -
 -------------------
 Temperature   298.150 Kelvin.  Pressure   1.00000 Atm.
 Atom     1 has atomic number  6 and mass  12.00000

 Molecular mass:   232.05580 amu.
 Principal axes and moments of inertia in atomic units:
                           1         2         3
     Eigenvalues --  2140.598265436.808877286.71502
           X            0.89529  -0.13631   0.42411
           Y            0.23411   0.95393  -0.18762
           Z           -0.37900   0.26726   0.88596
 This molecule is an asymmetric top.
 Rotational symmetry number  1.
 Warning -- assumption of classical behavior for rotation
           may cause significant error
 Rotational temperatures (Kelvin)      0.04046     0.01593     0.01189
 Rotational constants (GHZ):           0.84310     0.33195     0.24768
 Zero-point vibrational energy     563157.1 (Joules/Mol)
                                  134.59779 (Kcal/Mol)
 Warning -- explicit consideration of  22 degrees of freedom as
           vibrations may cause significant error
 Vibrational temperatures:     58.05    65.89    92.27   116.16   136.47
          (Kelvin)            177.35   225.89   263.76   322.83   348.15
                              361.39   410.47   427.10   510.15   556.46
                              565.78   605.45   616.24   645.04   727.19
                              764.14   827.73   942.64   951.58   988.04
                              995.98  1014.06  1133.63  1137.00  1141.33
                             1167.18  1220.88  1280.88  1399.77  1413.04
                             1420.80  1442.90  1479.80  1493.04  1498.30
                             1500.89  1538.18  1600.42  1633.29  1667.35
                             1732.66  1769.98  1803.60  1818.81  1839.17
                             1949.58  1969.34  1997.88  2020.60  2075.69
                             2090.82  2113.27  2128.34  2130.73  2135.97
                             2143.88  2148.54  2166.43  2209.51  2308.05
                             2343.99  4329.06  4350.35  4395.71  4429.35
                             4436.10  4443.36  4498.53  4499.13  4545.35
                             4566.16  4592.56  4597.02

 Zero-point correction=                           0.214495 (Hartree/Particle)
 Thermal correction to Energy=                    0.229640
 Thermal correction to Enthalpy=                  0.230585
 Thermal correction to Gibbs Free Energy=         0.170584
 Sum of electronic and zero-point Energies=          -1051.385606
 Sum of electronic and thermal Energies=             -1051.370461
 Sum of electronic and thermal Enthalpies=           -1051.369517
 Sum of electronic and thermal Free Energies=        -1051.429518

                     E (Thermal)             CV                S
                      KCal/Mol        Cal/Mol-Kelvin    Cal/Mol-Kelvin
 Total                  144.102             56.750            126.282
 Electronic               0.000              0.000              1.377
 Translational            0.889              2.981             42.227
 Rotational               0.889              2.981             32.805
 Vibrational            142.324             50.788             49.872
 Vibration     1          0.594              1.981              5.242
 Vibration     2          0.595              1.979              4.991
 Vibration     3          0.597              1.971              4.326
 Vibration     4          0.600              1.962              3.873
 Vibration     5          0.603              1.953              3.557
 Vibration     6          0.610              1.930              3.049
 Vibration     7          0.621              1.895              2.586
 Vibration     8          0.631              1.863              2.294
 Vibration     9          0.649              1.804              1.923
 Vibration    10          0.658              1.776              1.788
 Vibration    11          0.663              1.761              1.722
 Vibration    12          0.683              1.701              1.502
 Vibration    13          0.690              1.680              1.435
 Vibration    14          0.730              1.566              1.146
 Vibration    15          0.755              1.498              1.013
 Vibration    16          0.760              1.485              0.988
 Vibration    17          0.783              1.425              0.889
 Vibration    18          0.790              1.409              0.864
 Vibration    19          0.807              1.365              0.801
 Vibration    20          0.861              1.238              0.645
 Vibration    21          0.886              1.181              0.585
 Vibration    22          0.932              1.085              0.494

 Optimization completed.
    -- Stationary point found.
 Normal termination of Gaussian 16 at Sun Feb 11 04:22:27 2024.
