 Q-Chem 5.4, Q-Chem, Inc., Pleasanton, CA (2021)
 Q-Chem 5.4.0 for Intel X86 EM64T Linux

User input:
--------------------------------------------------------------
$molecule
-1 2
C                  2.6217660000     -0.3381810000     -1.9374040000
C                  2.5914420000     -0.0052260000     -0.4255430000
C                  2.8030020000      1.5159080000     -0.2283570000
C                  3.7855610000     -0.7265930000      0.2302070000
C                  1.2403810000     -0.4344280000      0.1836440000
C                  1.1732240000     -1.3602500000      1.1962800000
C                 -0.0636040000     -1.7949390000      1.7995010000
O                 -0.0938910000     -2.6510180000      2.7323890000
C                 -1.2637010000     -1.1916460000      1.2718850000
C                 -1.2650920000     -0.2610060000      0.2614510000
C                  0.0058150000      0.1661120000     -0.3376370000
O                  0.0361450000      1.0250180000     -1.2735810000
C                 -2.5791800000      0.3529620000     -0.2647830000
C                 -2.7490750000      0.0327470000     -1.7701140000
C                 -3.8183030000     -0.1987520000      0.4676510000
C                 -2.5659080000      1.8880230000     -0.0625210000
H                  3.5812120000     -0.0319780000     -2.3738250000
H                  2.5090450000     -1.4164530000     -2.0923710000
H                  1.8137020000      0.1758030000     -2.4561970000
H                  1.9990670000      2.0762830000     -0.7037620000
H                  3.7623540000      1.8247580000     -0.6631330000
H                  2.8205030000      1.7629830000      0.8384260000
H                  3.7266230000     -1.8115980000      0.1042670000
H                  3.8538550000     -0.5134240000      1.3009290000
H                  4.7149260000     -0.3852510000     -0.2389100000
H                  2.0643560000     -1.8225460000      1.6038910000
H                 -2.1831290000     -1.5286680000      1.7356200000
H                 -3.6817750000      0.4709380000     -2.1480180000
H                 -2.7971380000     -1.0501840000     -1.9261600000
H                 -1.9110480000      0.4311950000     -2.3404440000
H                 -3.7895760000      0.0180630000      1.5394320000
H                 -4.7190000000      0.2694570000      0.0555580000
H                 -3.9178880000     -1.2810330000      0.3439200000
H                 -3.4990620000      2.3278610000     -0.4374040000
H                 -2.4815630000      2.1312750000      1.0019480000
H                 -1.7240500000      2.3337890000     -0.5906290000
$end
$rem
MAX_SCF_CYCLES=200
BASIS  =  6-311++G(d,p)
GUI  =  2
JOB_TYPE  =  SP
METHOD  =  B3LYP
SOLVENT_METHOD = COSMO
$end
$solvent
dielectric 37.219
opticaldielectric 1.43
$end

--------------------------------------------------------------

             Standard Nuclear Orientation (Angstroms)
    I     Atom           X                Y                Z
 ----------------------------------------------------------------
    1      C      -2.6928905118     1.4317022949     1.2635743972
    2      C      -2.5927578896     0.5425510850    -0.0001050890
    3      C      -2.6925288500     1.4306690040    -1.2645341758
    4      C      -3.8129324142    -0.3995065588     0.0002453023
    5      C      -1.2563231087    -0.2285720972     0.0002076015
    6      C      -1.2218932640    -1.6018538076     0.0000163858
    7      C       0.0000723782    -2.3695604870     0.0001793594
    8      O       0.0000814129    -3.6360787706     0.0000587156
    9      C       1.2220271108    -1.6018362441     0.0003023995
   10      C       1.2563495794    -0.2285585692     0.0003954834
   11      C       0.0000080410     0.5318010407     0.0005460383
   12      O       0.0000565930     1.8024821898     0.0006545246
   13      C       2.5927482842     0.5426382254    -0.0000578870
   14      C       2.6933424311     1.4308043672     1.2642463086
   15      C       3.8129276323    -0.3993993534    -0.0011847708
   16      C       2.6918155187     1.4316905552    -1.2638893529
   17      H      -3.6419707634     1.9830688943     1.2648944605
   18      H      -2.6597766302     0.8142284679     2.1674664509
   19      H      -1.8677383061     2.1419300924     1.2950937638
   20      H      -1.8669436483     2.1404001281    -1.2966643018
   21      H      -3.6412815143     1.9826111686    -1.2662608947
   22      H      -2.6598221499     0.8124118363    -2.1678982531
   23      H      -3.8330117658    -1.0416245135     0.8855993408
   24      H      -3.8330926117    -1.0423707223    -0.8845540692
   25      H      -4.7306052003     0.1989757209     0.0000395617
   26      H      -2.1297538185    -2.1932671105    -0.0002647983
   27      H       2.1299228537    -2.1931966623     0.0002615484
   28      H       3.6419082453     1.9830490588     1.2651251602
   29      H       2.6616286508     0.8125219338     2.1676404782
   30      H       1.8675501111     2.1402507999     1.2970970884
   31      H       3.8325055343    -1.0415249606    -0.8865321077
   32      H       4.7305951083     0.1990834628    -0.0015259948
   33      H       3.8336352706    -1.0422748405     0.8835982519
   34      H       3.6410415006     1.9828127611    -1.2662275450
   35      H       2.6575342646     0.8141517856    -2.1676871898
   36      H       1.8667811977     2.1421186150    -1.2945588754
 ----------------------------------------------------------------

    9    -696.2335652963      8.67e-06  Convergence criterion met
 Total energy in the final basis set =     -696.2335652963
    4    -696.3121283514      6.38e-06  Convergence criterion met
 Total energy in the final basis set =     -696.3121283514

                    Orbital Energies (a.u.)
 --------------------------------------------------------------

 Alpha MOs
 -- Occupied --
-19.0755 -19.0664 -10.2144 -10.2133 -10.1781 -10.1781 -10.1671 -10.1671
-10.1509 -10.1509 -10.1466 -10.1466 -10.1419 -10.1419 -10.1419 -10.1419
 -0.9958  -0.9904  -0.8307  -0.8153  -0.7805  -0.7219  -0.6793  -0.6750
 -0.6719  -0.6715  -0.6659  -0.6043  -0.5754  -0.5260  -0.5139  -0.4760
 -0.4659  -0.4471  -0.4459  -0.4298  -0.4264  -0.4230  -0.4117  -0.4102
 -0.4072  -0.3831  -0.3790  -0.3744  -0.3726  -0.3713  -0.3605  -0.3564
 -0.3535  -0.3436  -0.3304  -0.3232  -0.3228  -0.3199  -0.3173  -0.3118
 -0.2720  -0.2432  -0.2401  -0.2233  -0.1565

 Beta MOs
 -- Occupied --
-19.0689 -19.0594 -10.2127 -10.2118 -10.1782 -10.1782 -10.1660 -10.1660
-10.1499 -10.1499 -10.1466 -10.1466 -10.1418 -10.1418 -10.1418 -10.1418
 -0.9842  -0.9780  -0.8267  -0.8145  -0.7777  -0.7197  -0.6759  -0.6748
 -0.6717  -0.6712  -0.6586  -0.6012  -0.5724  -0.5232  -0.5127  -0.4742
 -0.4626  -0.4467  -0.4435  -0.4280  -0.4260  -0.4226  -0.4112  -0.4010
 -0.3987  -0.3787  -0.3720  -0.3714  -0.3701  -0.3656  -0.3566  -0.3555
 -0.3534  -0.3302  -0.3290  -0.3221  -0.3217  -0.3167  -0.3145  -0.3113
 -0.2409  -0.2359  -0.2342  -0.2175

          Ground-State Mulliken Net Atomic Charges

     Atom                 Charge (a.u.)    Spin (a.u.)
  --------------------------------------------------------
      1 C                    -0.708714       0.007886
      2 C                     0.739271      -0.026545
      3 C                    -0.708521       0.007896
      4 C                    -0.483580       0.001252
      5 C                     0.574787       0.088026
      6 C                    -0.341386       0.055731
      7 C                    -0.571464       0.131595
      8 O                    -0.566310       0.222091
      9 C                    -0.342609       0.055689
     10 C                     0.576276       0.087962
     11 C                    -0.777972       0.133485
     12 O                    -0.399186       0.259039
     13 C                     0.739079      -0.026543
     14 C                    -0.708734       0.007912
     15 C                    -0.483935       0.001249
     16 C                    -0.708587       0.007870
     17 H                     0.154894       0.000182
     18 H                     0.143233       0.000940
     19 H                     0.172129      -0.001209
     20 H                     0.172074      -0.001214
     21 H                     0.154849       0.000187
     22 H                     0.143143       0.000932
     23 H                     0.136987      -0.000383
     24 H                     0.136915      -0.000382
     25 H                     0.175150       0.000101
     26 H                     0.196011      -0.006455
     27 H                     0.196572      -0.006450
     28 H                     0.154866       0.000188
     29 H                     0.143213       0.000932
     30 H                     0.172272      -0.001217
     31 H                     0.136866      -0.000384
     32 H                     0.175315       0.000101
     33 H                     0.136852      -0.000382
     34 H                     0.154778       0.000181
     35 H                     0.143230       0.000941
     36 H                     0.172233      -0.001203
  --------------------------------------------------------
  Sum of atomic charges =    -1.000000

                    Cartesian Multipole Moments
 -----------------------------------------------------------------
    Charge (ESU x 10^10)
                -4.8032
    Dipole Moment (Debye)
         X      -0.0002      Y       6.2358      Z      -0.0026
       Tot       6.2358
    Quadrupole Moments (Debye-Ang)
        XX    -103.2374     XY      -0.0006     YY    -152.7142
        XZ       0.0020     YZ      -0.0019     ZZ    -106.1631

 Total job time:  109.81s(wall), 837.48s(cpu)
        *  Thank you very much for using Q-Chem.  Have a nice day.  *
