 Gaussian 16, Revision A.03,
 Gaussian 16:  ES64L-G16RevA.03 25-Dec-2016

 ----------------------------------------------------------------------
 #P UB3LYP/6-311++G(d,p) nosym opt freq SCRF=(PCM,Solvent=n,n-DiMethylF
 ormamide)
 ----------------------------------------------------------------------

 --------
 Oxidized
 --------
 Symbolic Z-matrix:
 Charge =  0 Multiplicity = 1

 SCF Done:  E(UB3LYP) =  -5757.75294803     A.U. after   16 cycles
 SCF Done:  E(UB3LYP) =  -5757.75301158     A.U. after   12 cycles
 SCF Done:  E(UB3LYP) =  -5757.75305080     A.U. after   13 cycles
 SCF Done:  E(UB3LYP) =  -5757.75319574     A.U. after   12 cycles
 SCF Done:  E(UB3LYP) =  -5757.75319956     A.U. after   12 cycles
 SCF Done:  E(UB3LYP) =  -5757.75323446     A.U. after   11 cycles
 SCF Done:  E(UB3LYP) =  -5757.75324570     A.U. after   11 cycles
 SCF Done:  E(UB3LYP) =  -5757.75326228     A.U. after   12 cycles
 SCF Done:  E(UB3LYP) =  -5757.75327321     A.U. after   12 cycles
 SCF Done:  E(UB3LYP) =  -5757.75328882     A.U. after   11 cycles
 SCF Done:  E(UB3LYP) =  -5757.75330758     A.U. after   12 cycles
 SCF Done:  E(UB3LYP) =  -5757.75331237     A.U. after   11 cycles
 SCF Done:  E(UB3LYP) =  -5757.75331509     A.U. after   11 cycles
 SCF Done:  E(UB3LYP) =  -5757.75331617     A.U. after   10 cycles
 SCF Done:  E(UB3LYP) =  -5757.75331650     A.U. after   10 cycles
 SCF Done:  E(UB3LYP) =  -5757.75331660     A.U. after    9 cycles
 SCF Done:  E(UB3LYP) =  -5757.75331664     A.U. after    7 cycles
 Optimization completed.
    -- Stationary point found.
 Normal termination of Gaussian 16 at Sat Feb 10 11:37:15 2024.

 ----------------------------------------------------------------------
 #P Geom=AllCheck Guess=TCheck SCRF=Check GenChk UB3LYP/6-311++G(d,p) F
 req
 ----------------------------------------------------------------------

 Structure from the checkpoint file:  "088.chk"
 --------
 Oxidized
 --------
 Charge =  0 Multiplicity = 1

                          Input orientation:
 ---------------------------------------------------------------------
 Center     Atomic      Atomic             Coordinates (Angstroms)
 Number     Number       Type             X           Y           Z
 ---------------------------------------------------------------------
      1          6           0        1.789252    1.257095   -0.385079
      2          6           0        0.463234    1.626842    0.207037
      3          6           0       -0.532448    0.728585    0.275395
      4          6           0       -0.353315   -0.666104   -0.266425
      5          6           0        0.977824   -1.063757   -0.772337
      6          6           0        1.987019   -0.155511   -0.868666
      7          8           0        2.690218    2.063063   -0.464351
      8          8           0       -1.290113   -1.444050   -0.297066
      9          8           0        3.213645   -0.305508   -1.358418
     10          6           0        3.718832   -1.559189   -1.872540
     11         35           0        0.327867    3.405345    0.831071
     12         35           0       -2.232815    1.099226    1.005746
     13          1           0        3.121509   -1.898853   -2.715327
     14          1           0        3.737314   -2.315331   -1.088542
     15          1           0        4.732809   -1.328560   -2.190723
     16          8           0        1.090176   -2.325328   -1.268624
     17          6           0        1.046318   -3.408229   -0.310473
     18          1           0        0.106970   -3.402465    0.241317
     19          1           0        1.892638   -3.333090    0.377530
     20          1           0        1.126834   -4.321089   -0.896867
 ---------------------------------------------------------------------

 SCF Done:  E(UB3LYP) =  -5757.75331664     A.U. after    1 cycles

 Alpha  occ. eigenvalues -- -482.85897-482.85830 -62.51160 -62.51093 -56.33214
 Alpha  occ. eigenvalues --  -56.33150 -56.32823 -56.32768 -56.32752 -56.32703
 Alpha  occ. eigenvalues --  -19.19079 -19.16709 -19.15814 -19.14997 -10.31212
 Alpha  occ. eigenvalues --  -10.30479 -10.28432 -10.27793 -10.27625 -10.26502
 Alpha  occ. eigenvalues --  -10.23392 -10.22699  -8.72129  -8.72062  -6.55323
 Alpha  occ. eigenvalues --   -6.55262  -6.54012  -6.53934  -6.53853  -6.53791
 Alpha  occ. eigenvalues --   -2.66411  -2.66348  -2.66062  -2.65991  -2.65941
 Alpha  occ. eigenvalues --   -2.65883  -2.64897  -2.64895  -2.64825  -2.64823
 Alpha  occ. eigenvalues --   -1.11732  -1.09561  -1.08496  -1.06805  -0.90376
 Alpha  occ. eigenvalues --   -0.83744  -0.82704  -0.76904  -0.75486  -0.70223
 Alpha  occ. eigenvalues --   -0.69558  -0.62407  -0.61714  -0.57391  -0.54505
 Alpha  occ. eigenvalues --   -0.52717  -0.50752  -0.49032  -0.48047  -0.47407
 Alpha  occ. eigenvalues --   -0.46821  -0.46098  -0.45389  -0.43792  -0.43316
 Alpha  occ. eigenvalues --   -0.42664  -0.39044  -0.37600  -0.36832  -0.36658
 Alpha  occ. eigenvalues --   -0.33123  -0.32987  -0.32594  -0.31271  -0.29709
 Alpha  occ. eigenvalues --   -0.29025  -0.28822  -0.25610
 Alpha virt. eigenvalues --   -0.14378  -0.05514  -0.03291  -0.01560  -0.00907
 Alpha virt. eigenvalues --   -0.00526   0.00661   0.01101   0.02254   0.02342
 Alpha virt. eigenvalues --    0.03410   0.03744   0.04178   0.04652   0.04999

  Beta  occ. eigenvalues -- -482.85897-482.85830 -62.51160 -62.51093 -56.33214
  Beta  occ. eigenvalues --  -56.33150 -56.32823 -56.32768 -56.32752 -56.32703
  Beta  occ. eigenvalues --  -19.19079 -19.16709 -19.15814 -19.14997 -10.31212
  Beta  occ. eigenvalues --  -10.30479 -10.28432 -10.27793 -10.27625 -10.26502
  Beta  occ. eigenvalues --  -10.23392 -10.22699  -8.72129  -8.72062  -6.55323
  Beta  occ. eigenvalues --   -6.55262  -6.54012  -6.53934  -6.53853  -6.53791
  Beta  occ. eigenvalues --   -2.66411  -2.66348  -2.66062  -2.65991  -2.65941
  Beta  occ. eigenvalues --   -2.65883  -2.64897  -2.64895  -2.64825  -2.64823
  Beta  occ. eigenvalues --   -1.11732  -1.09561  -1.08496  -1.06805  -0.90376
  Beta  occ. eigenvalues --   -0.83744  -0.82704  -0.76904  -0.75486  -0.70223
  Beta  occ. eigenvalues --   -0.69558  -0.62407  -0.61714  -0.57391  -0.54505
  Beta  occ. eigenvalues --   -0.52717  -0.50752  -0.49032  -0.48047  -0.47407
  Beta  occ. eigenvalues --   -0.46821  -0.46098  -0.45389  -0.43792  -0.43316
  Beta  occ. eigenvalues --   -0.42664  -0.39044  -0.37600  -0.36832  -0.36658
  Beta  occ. eigenvalues --   -0.33123  -0.32987  -0.32594  -0.31271  -0.29709
  Beta  occ. eigenvalues --   -0.29025  -0.28822  -0.25610
  Beta virt. eigenvalues --   -0.14378  -0.05514  -0.03291  -0.01560  -0.00907
  Beta virt. eigenvalues --   -0.00526   0.00661   0.01101   0.02254   0.02342
  Beta virt. eigenvalues --    0.03410   0.03744   0.04178   0.04652   0.04999

 Mulliken charges and spin densities:
               1          2
     1  C   -0.729299   0.000000
     2  C    0.306511  -0.000000
     3  C    0.557301   0.000000
     4  C   -0.437201   0.000000
     5  C    0.388496   0.000000
     6  C    0.283153  -0.000000
     7  O   -0.223054  -0.000000
     8  O   -0.248899   0.000000
     9  O   -0.188506   0.000000
    10  C   -0.265332  -0.000000
    11  Br  -0.023140   0.000000
    12  Br  -0.010807   0.000000
    13  H    0.203027  -0.000000
    14  H    0.190660   0.000000
    15  H    0.197374  -0.000000
    16  O   -0.198235  -0.000000
    17  C   -0.309420  -0.000000
    18  H    0.169847  -0.000000
    19  H    0.157230  -0.000000
    20  H    0.180295   0.000000
 Sum of Mulliken charges =  -0.00000  -0.00000

 Dipole moment (field-independent basis, Debye):
    X=              2.1252    Y=             -3.9213    Z=              0.2941  Tot=              4.4699
 Quadrupole moment (field-independent basis, Debye-Ang):
   XX=           -106.4528   YY=           -100.5460   ZZ=           -102.9478
   XY=            -20.9965   XZ=             -4.0929   YZ=              2.0662

  Exact polarizability: 258.066  38.510 242.978 -37.063  20.463 134.843
 Approx polarizability: 322.671  83.564 284.228 -38.320  16.168 153.908

                      1                      2                      3
                      A                      A                      A
 Frequencies --     27.7195                46.4195                63.1756
 Red. masses --      3.8368                10.7523                 7.1049
 Frc consts  --      0.0017                 0.0137                 0.0167
 IR Inten    --      5.5683                 4.1187                 0.3543

                      4                      5                      6
                      A                      A                      A
 Frequencies --     95.2484               119.8019               131.8300
 Red. masses --      5.4745                 3.5084                35.5421
 Frc consts  --      0.0293                 0.0297                 0.3639
 IR Inten    --      1.6941                 8.5006                 0.5711

                      7                      8                      9
                      A                      A                      A
 Frequencies --    140.8147               162.1562               179.9979
 Red. masses --      1.0748                 7.9349                 4.9123
 Frc consts  --      0.0126                 0.1229                 0.0938
 IR Inten    --      0.2942                 2.6792                 7.0560

                     10                     11                     12
                      A                      A                      A
 Frequencies --    217.4979               228.9642               235.6818
 Red. masses --      6.0050                 1.2258                 4.9340
 Frc consts  --      0.1674                 0.0379                 0.1615
 IR Inten    --      3.7386                 1.2470                 8.1010

                     13                     14                     15
                      A                      A                      A
 Frequencies --    263.4734               292.4625               345.9659
 Red. masses --      7.4405                 9.1996                 8.4699
 Frc consts  --      0.3043                 0.4636                 0.5973
 IR Inten    --      2.7918                 4.6362                 5.6494

                     16                     17                     18
                      A                      A                      A
 Frequencies --    375.7825               386.7221               434.0981
 Red. masses --      7.2015                 8.8421                11.3927
 Frc consts  --      0.5992                 0.7791                 1.2649
 IR Inten    --     16.2113                16.0158                 2.3912

                     19                     20                     21
                      A                      A                      A
 Frequencies --    447.3140               484.7634               529.4282
 Red. masses --      7.8219                11.9067                 8.8471
 Frc consts  --      0.9221                 1.6485                 1.4611
 IR Inten    --      2.9064                24.8322                34.4287

                     22                     23                     24
                      A                      A                      A
 Frequencies --    624.4728               734.0993               749.6570
 Red. masses --      9.6575                10.4047                11.6884
 Frc consts  --      2.2189                 3.3036                 3.8702
 IR Inten    --      9.6976                99.7798                52.5847

                     25                     26                     27
                      A                      A                      A
 Frequencies --    768.8147               786.9493               821.2282
 Red. masses --     10.3854                11.5439                10.3709
 Frc consts  --      3.6167                 4.2121                 4.1209
 IR Inten    --     62.6962                 8.5864                95.2183

                     28                     29                     30
                      A                      A                      A
 Frequencies --    940.6265               969.3209              1052.9710
 Red. masses --      8.2390                 8.9095                 7.8583
 Frc consts  --      4.2949                 4.9322                 5.1335
 IR Inten    --    102.2758                34.5138                91.6636

                     31                     32                     33
                      A                      A                      A
 Frequencies --   1121.6514              1160.7521              1163.9205
 Red. masses --      6.9330                 1.2634                 1.2633
 Frc consts  --      5.1391                 1.0029                 1.0083
 IR Inten    --    610.0171                16.3876                14.5782

                     34                     35                     36
                      A                      A                      A
 Frequencies --   1178.6705              1206.0011              1226.9988
 Red. masses --      2.8333                 1.5713                 2.2963
 Frc consts  --      2.3191                 1.3465                 2.0369
 IR Inten    --    321.1685               122.1409               394.3394

                     37                     38                     39
                      A                      A                      A
 Frequencies --   1279.9496              1296.9636              1465.6871
 Red. masses --      5.7707                 9.2086                 1.1612
 Frc consts  --      5.5701                 9.1264                 1.4697
 IR Inten    --    345.5137                74.3796                43.1298

                     40                     41                     42
                      A                      A                      A
 Frequencies --   1477.5920              1479.8274              1484.8054
 Red. masses --      1.0983                 1.0472                 1.1077
 Frc consts  --      1.4128                 1.3511                 1.4389
 IR Inten    --     10.1754                28.2634                22.9315

                     43                     44                     45
                      A                      A                      A
 Frequencies --   1490.4632              1499.9676              1596.4317
 Red. masses --      1.0940                 1.0531                10.8337
 Frc consts  --      1.4319                 1.3960                16.2677
 IR Inten    --     14.5266                31.4783               528.3000

                     46                     47                     48
                      A                      A                      A
 Frequencies --   1649.8846              1698.5455              1728.0723
 Red. masses --     10.0339                12.8101                13.2560
 Frc consts  --     16.0926                21.7750                23.3231
 IR Inten    --    321.2330               715.6965               337.1171

                     49                     50                     51
                      A                      A                      A
 Frequencies --   3036.1993              3063.5875              3119.7983
 Red. masses --      1.0345                 1.0287                 1.1006
 Frc consts  --      5.6188                 5.6883                 6.3114
 IR Inten    --     69.9894                53.4980                31.9548

                     52                     53                     54
                      A                      A                      A
 Frequencies --   3149.6283              3153.9905              3165.9595
 Red. masses --      1.1068                 1.1065                 1.1088
 Frc consts  --      6.4691                 6.4852                 6.5483
 IR Inten    --     25.4460                18.3325                14.6424

 - Thermochemistry -
 -------------------
 Temperature   298.150 Kelvin.  Pressure   1.00000 Atm.
 Atom     1 has atomic number  6 and mass  12.00000

 Molecular mass:   323.86328 amu.
 Principal axes and moments of inertia in atomic units:
                           1         2         3
     Eigenvalues --  3388.542565950.112699195.39910
           X           -0.54763   0.77298   0.32031
           Y            0.74441   0.62489  -0.23531
           Z            0.38205  -0.10958   0.91762
 This molecule is an asymmetric top.
 Rotational symmetry number  1.
 Warning -- assumption of classical behavior for rotation
           may cause significant error
 Rotational temperatures (Kelvin)      0.02556     0.01456     0.00942
 Rotational constants (GHZ):           0.53260     0.30331     0.19627
 Zero-point vibrational energy     338260.9 (Joules/Mol)
                                   80.84629 (Kcal/Mol)
 Warning -- explicit consideration of  21 degrees of freedom as
           vibrations may cause significant error
 Vibrational temperatures:     39.88    66.79    90.90   137.04   172.37
          (Kelvin)            189.67   202.60   233.31   258.98   312.93
                              329.43   339.09   379.08   420.79   497.77
                              540.67   556.41   624.57   643.59   697.47
                              761.73   898.48  1056.21  1078.59  1106.15
                             1132.24  1181.56  1353.35  1394.64  1514.99
                             1613.81  1670.06  1674.62  1695.84  1735.17
                             1765.38  1841.56  1866.04  2108.80  2125.93
                             2129.14  2136.30  2144.44  2158.12  2296.91
                             2373.82  2443.83  2486.31  4368.41  4407.82
                             4488.69  4531.61  4537.89  4555.11

 Zero-point correction=                           0.128837 (Hartree/Particle)
 Thermal correction to Energy=                    0.143530
 Thermal correction to Enthalpy=                  0.144475
 Thermal correction to Gibbs Free Energy=         0.084312
 Sum of electronic and zero-point Energies=          -5757.624480
 Sum of electronic and thermal Energies=             -5757.609786
 Sum of electronic and thermal Enthalpies=           -5757.608842
 Sum of electronic and thermal Free Energies=        -5757.669005

                     E (Thermal)             CV                S
                      KCal/Mol        Cal/Mol-Kelvin    Cal/Mol-Kelvin
 Total                   90.067             49.973            126.622
 Electronic               0.000              0.000              0.000
 Translational            0.889              2.981             43.221
 Rotational               0.889              2.981             33.583
 Vibrational             88.289             44.012             49.819
 Vibration     1          0.593              1.984              5.986
 Vibration     2          0.595              1.979              4.964
 Vibration     3          0.597              1.972              4.355
 Vibration     4          0.603              1.953              3.549
 Vibration     5          0.609              1.933              3.104
 Vibration     6          0.612              1.922              2.919
 Vibration     7          0.615              1.912              2.793
 Vibration     8          0.622              1.889              2.524
 Vibration     9          0.629              1.867              2.328
 Vibration    10          0.646              1.814              1.980
 Vibration    11          0.652              1.797              1.887
 Vibration    12          0.655              1.786              1.835
 Vibration    13          0.670              1.740              1.639
 Vibration    14          0.688              1.688              1.460
 Vibration    15          0.724              1.583              1.185
 Vibration    16          0.747              1.522              1.056
 Vibration    17          0.755              1.499              1.013
 Vibration    18          0.795              1.396              0.845
 Vibration    19          0.806              1.367              0.804
 Vibration    20          0.841              1.284              0.697
 Vibration    21          0.884              1.185              0.588

                           ! Non-Optimized Parameters !
 Normal termination of Gaussian 16 at Sat Feb 10 12:09:46 2024.
