 Q-Chem 5.4, Q-Chem, Inc., Pleasanton, CA (2021)
 Q-Chem 5.4.0 for Intel X86 EM64T Linux

User input:
--------------------------------------------------------------
$molecule
-2 1
C                  5.7661030000     -5.2179980000      1.1162420000
C                  6.5328580000     -5.2666440000     -0.0358560000
C                  6.2869560000     -4.3363450000     -1.0777040000
C                  4.7376840000     -4.2683890000      1.2921590000
C                  4.4887470000     -3.3219390000      0.2350180000
C                  5.2881720000     -3.3928610000     -0.9334540000
C                  3.9769360000     -4.2711790000      2.5454700000
C                  2.9718240000     -3.2587340000      2.5842160000
C                  2.6770530000     -2.3504400000      1.5498280000
C                  3.4429530000     -2.3328630000      0.3344390000
O                  4.2247900000     -5.0941340000      3.4869110000
O                  3.1891050000     -1.4651700000     -0.5921970000
H                  5.9282130000     -5.9127910000      1.9344260000
H                  7.3180440000     -6.0127370000     -0.1420280000
H                  5.0773280000     -2.6680570000     -1.7134660000
Cl                 2.0749860000     -3.1242600000      4.1338180000
H                  6.8844080000     -4.3656600000     -1.9873910000
N                  1.6841950000     -1.3382410000      1.6292580000
C                  0.2767390000     -1.7597800000      1.6559200000
C                 -0.6547900000     -0.5478390000      1.7308130000
C                 -2.1403080000     -0.9231850000      1.7566940000
H                  1.8451280000     -0.8012780000      0.7714450000
H                  0.1155820000     -2.3987200000      2.5258850000
H                  0.0180020000     -2.3584200000      0.7622100000
H                 -0.4591950000      0.1080530000      0.8720990000
H                 -0.3981110000      0.0317740000      2.6246690000
H                 -2.4261020000     -1.4880110000      0.8623230000
H                 -2.7876380000     -0.0382920000      1.8029630000
H                 -2.3770010000     -1.5468370000      2.6263400000
$end

$rem
BASIS  =  6-311++G(d,p)
GUI  =  2
JOB_TYPE  =  SP
METHOD  =  B3LYP
SCF_CONVERGENCE  = 8
SOLVENT_METHOD = sm12
$end

$smx
solvent dimethylformamide
charges CM5
$end

--------------------------------------------------------------

             Standard Nuclear Orientation (Angstroms)
    I     Atom           X                Y                Z
 ----------------------------------------------------------------
    1      C       5.7661030000    -5.2179980000     1.1162420000
    2      C       6.5328580000    -5.2666440000    -0.0358560000
    3      C       6.2869560000    -4.3363450000    -1.0777040000
    4      C       4.7376840000    -4.2683890000     1.2921590000
    5      C       4.4887470000    -3.3219390000     0.2350180000
    6      C       5.2881720000    -3.3928610000    -0.9334540000
    7      C       3.9769360000    -4.2711790000     2.5454700000
    8      C       2.9718240000    -3.2587340000     2.5842160000
    9      C       2.6770530000    -2.3504400000     1.5498280000
   10      C       3.4429530000    -2.3328630000     0.3344390000
   11      O       4.2247900000    -5.0941340000     3.4869110000
   12      O       3.1891050000    -1.4651700000    -0.5921970000
   13      H       5.9282130000    -5.9127910000     1.9344260000
   14      H       7.3180440000    -6.0127370000    -0.1420280000
   15      H       5.0773280000    -2.6680570000    -1.7134660000
   16      Cl      2.0749860000    -3.1242600000     4.1338180000
   17      H       6.8844080000    -4.3656600000    -1.9873910000
   18      N       1.6841950000    -1.3382410000     1.6292580000
   19      C       0.2767390000    -1.7597800000     1.6559200000
   20      C      -0.6547900000    -0.5478390000     1.7308130000
   21      C      -2.1403080000    -0.9231850000     1.7566940000
   22      H       1.8451280000    -0.8012780000     0.7714450000
   23      H       0.1155820000    -2.3987200000     2.5258850000
   24      H       0.0180020000    -2.3584200000     0.7622100000
   25      H      -0.4591950000     0.1080530000     0.8720990000
   26      H      -0.3981110000     0.0317740000     2.6246690000
   27      H      -2.4261020000    -1.4880110000     0.8623230000
   28      H      -2.7876380000    -0.0382920000     1.8029630000
   29      H      -2.3770010000    -1.5468370000     2.6263400000
 ----------------------------------------------------------------

   18   -1168.2045003535      5.24e-09  Convergence criterion met
 Total energy in the final basis set =    -1168.4806451433

                    Orbital Energies (a.u.)
 --------------------------------------------------------------

 Alpha MOs
 -- Occupied --
******** -19.0253 -19.0231 -14.2937 -10.1916 -10.1895 -10.1858 -10.1787
-10.1743 -10.1732 -10.1706 -10.1704 -10.1680 -10.1674 -10.1655 -10.1527
-10.1523  -9.4386  -7.2027  -7.1941  -7.1934  -0.9498  -0.9449  -0.8980
 -0.8436  -0.8296  -0.7827  -0.7638  -0.7417  -0.7081  -0.6705  -0.6434
 -0.5995  -0.5951  -0.5803  -0.5464  -0.5097  -0.4899  -0.4733  -0.4560
 -0.4505  -0.4397  -0.4236  -0.4192  -0.4051  -0.3966  -0.3952  -0.3845
 -0.3716  -0.3625  -0.3622  -0.3526  -0.3444  -0.3419  -0.3374  -0.3248
 -0.3213  -0.3016  -0.2816  -0.2616  -0.2463  -0.2347  -0.2088  -0.2005
 -0.1992  -0.1173

          Ground-State Mulliken Net Atomic Charges

     Atom                 Charge (a.u.)
  ----------------------------------------
      1 C                    -0.283310
      2 C                     1.084367
      3 C                     1.297483
      4 C                    -1.492809
      5 C                    -1.677953
      6 C                    -0.372661
      7 C                    -1.717253
      8 C                     1.196823
      9 C                    -1.022611
     10 C                    -2.174293
     11 O                    -0.361068
     12 O                    -0.342165
     13 H                     0.093834
     14 H                     0.375658
     15 H                     0.109986
     16 Cl                    1.193478
     17 H                     0.383675
     18 N                     0.218418
     19 C                    -0.888708
     20 C                     0.868937
     21 C                     0.389509
     22 H                     0.198947
     23 H                     0.065649
     24 H                    -0.052606
     25 H                     0.134991
     26 H                     0.082470
     27 H                     0.170682
     28 H                     0.360990
     29 H                     0.159540
  ----------------------------------------
  Sum of atomic charges =    -2.000000

                    Cartesian Multipole Moments
 -----------------------------------------------------------------
    Charge (ESU x 10^10)
                -9.6064
    Dipole Moment (Debye)
         X     -37.1700      Y      32.4490      Z     -14.4604
       Tot      51.4165
    Quadrupole Moments (Debye-Ang)
        XX    -280.3059     XY     138.1752     YY    -256.8999
        XZ     -49.3459     YZ      64.8210     ZZ    -181.5895

 Total job time:  804.26s(wall), 5822.54s(cpu)
        *  Thank you very much for using Q-Chem.  Have a nice day.  *
