 Gaussian 16, Revision A.03,
 Gaussian 16:  ES64L-G16RevA.03 25-Dec-2016

 --------------------------------------
 #P UB3LYP/6-311++G(d,p) nosym opt freq
 --------------------------------------

 -------
 Radical
 -------
 Symbolic Z-matrix:
 Charge = -1 Multiplicity = 2

 SCF Done:  E(UB3LYP) =  -726.111045663     A.U. after   24 cycles
 SCF Done:  E(UB3LYP) =  -726.119756703     A.U. after   19 cycles
 SCF Done:  E(UB3LYP) =  -726.120165208     A.U. after   18 cycles
 SCF Done:  E(UB3LYP) =  -726.120331094     A.U. after   18 cycles
 SCF Done:  E(UB3LYP) =  -726.120488212     A.U. after   17 cycles
 SCF Done:  E(UB3LYP) =  -726.120647482     A.U. after   17 cycles
 SCF Done:  E(UB3LYP) =  -726.120648603     A.U. after   15 cycles
 SCF Done:  E(UB3LYP) =  -726.120655522     A.U. after   14 cycles
 SCF Done:  E(UB3LYP) =  -726.120655815     A.U. after   13 cycles
 SCF Done:  E(UB3LYP) =  -726.120655900     A.U. after   11 cycles
 Optimization completed.
    -- Stationary point found.
 Normal termination of Gaussian 16 at Wed Dec 20 02:18:21 2023.

 ----------------------------------------------------------------------
 #P Geom=AllCheck Guess=TCheck SCRF=Check GenChk UB3LYP/6-311++G(d,p) F
 req
 ----------------------------------------------------------------------

 Structure from the checkpoint file:  "076-rad.chk"
 -------
 Radical
 -------
 Charge = -1 Multiplicity = 2

                          Input orientation:
 ---------------------------------------------------------------------
 Center     Atomic      Atomic             Coordinates (Angstroms)
 Number     Number       Type             X           Y           Z
 ---------------------------------------------------------------------
      1          6           0        0.227325    1.734900   -1.778143
      2          6           0       -1.204466    1.855687   -1.534572
      3          6           0       -2.058519    0.797084   -1.590050
      4          6           0       -1.604162   -0.549567   -1.903130
      5          6           0       -0.189723   -0.680197   -2.138653
      6          6           0        0.702673    0.376817   -2.046800
      7          8           0        0.969156    2.748784   -1.792639
      8          8           0       -2.400769   -1.528989   -1.956709
      9          6           0        3.213350    0.782939   -1.502551
     10          6           0        4.497950    0.871729   -2.049958
     11          6           0        3.001102    1.241748   -0.198619
     12          6           0        4.052469    1.773931    0.542946
     13          6           0        5.545198    1.427348   -1.320090
     14          6           0        5.326037    1.876344   -0.017337
     15          1           0       -1.560915    2.859556   -1.320868
     16          1           0       -3.122955    0.921046   -1.408957
     17          1           0        0.182500   -1.669671   -2.381656
     18          1           0        4.656306    0.494804   -3.053308
     19          1           0        2.010250    1.180384    0.232519
     20          1           0        3.875330    2.120240    1.555918
     21          1           0        6.532973    1.505667   -1.763287
     22          1           0        6.141732    2.303804    0.557291
     23          6           0        2.136687    0.089065   -2.301263
     24          8           0        2.485992   -0.768552   -3.109924
 ---------------------------------------------------------------------

 SCF Done:  E(UB3LYP) =  -726.120655900     A.U. after    2 cycles

 Alpha  occ. eigenvalues --  -18.98799 -18.95231 -18.95052 -10.14087 -10.10400
 Alpha  occ. eigenvalues --  -10.09379 -10.08683 -10.08332 -10.08173 -10.07984
 Alpha  occ. eigenvalues --  -10.07816 -10.07753 -10.05020 -10.04883 -10.04701
 Alpha  occ. eigenvalues --  -10.04611  -0.91942  -0.87765  -0.86969  -0.76294
 Alpha  occ. eigenvalues --   -0.70377  -0.66471  -0.65370  -0.63390  -0.56844
 Alpha  occ. eigenvalues --   -0.53502  -0.51342  -0.49257  -0.46071  -0.44329
 Alpha  occ. eigenvalues --   -0.40313  -0.36709  -0.35863  -0.35377  -0.34408
 Alpha  occ. eigenvalues --   -0.33492  -0.33000  -0.31694  -0.30337  -0.28989
 Alpha  occ. eigenvalues --   -0.28181  -0.27665  -0.26625  -0.25785  -0.25257
 Alpha  occ. eigenvalues --   -0.24979  -0.24138  -0.23991  -0.16414  -0.16238
 Alpha  occ. eigenvalues --   -0.15553  -0.14772  -0.13462  -0.11370  -0.10819
 Alpha  occ. eigenvalues --   -0.04080
 Alpha virt. eigenvalues --    0.04605   0.06823   0.08269   0.08626   0.09400
 Alpha virt. eigenvalues --    0.09659   0.10238   0.11832   0.12095   0.12590
 Alpha virt. eigenvalues --    0.13562   0.14151   0.14185   0.15395   0.16053

  Beta  occ. eigenvalues --  -18.98738 -18.94604 -18.94225 -10.14072 -10.10335
  Beta  occ. eigenvalues --  -10.09315 -10.08680 -10.08333 -10.08172 -10.07987
  Beta  occ. eigenvalues --  -10.07812 -10.07749 -10.04942 -10.04827 -10.04604
  Beta  occ. eigenvalues --  -10.04350  -0.91829  -0.86697  -0.85534  -0.76285
  Beta  occ. eigenvalues --   -0.69769  -0.66421  -0.65362  -0.63130  -0.55980
  Beta  occ. eigenvalues --   -0.53221  -0.51317  -0.49020  -0.45717  -0.44233
  Beta  occ. eigenvalues --   -0.40188  -0.36592  -0.35753  -0.35254  -0.34035
  Beta  occ. eigenvalues --   -0.33348  -0.32980  -0.31510  -0.30204  -0.28712
  Beta  occ. eigenvalues --   -0.27093  -0.26792  -0.26523  -0.25256  -0.25141
  Beta  occ. eigenvalues --   -0.24158  -0.23730  -0.21844  -0.16196  -0.16127
  Beta  occ. eigenvalues --   -0.14360  -0.13085  -0.12046  -0.10706  -0.10182
  Beta virt. eigenvalues --    0.02945   0.05231   0.06823   0.08302   0.08627
  Beta virt. eigenvalues --    0.09625   0.10186   0.10441   0.11851   0.12128
  Beta virt. eigenvalues --    0.12619   0.13872   0.14174   0.14889   0.15421

 Mulliken charges and spin densities:
               1          2
     1  C   -1.247858   0.015386
     2  C    0.105265   0.096275
     3  C    0.157081   0.039265
     4  C   -0.671275   0.101177
     5  C    0.167461   0.127646
     6  C    1.720092   0.069480
     7  O   -0.325433   0.227949
     8  O   -0.391141   0.295368
     9  C    1.371453  -0.000379
    10  C    0.445756  -0.005776
    11  C   -0.995158   0.015900
    12  C   -0.350770  -0.004447
    13  C   -0.350906   0.001410
    14  C   -0.249516   0.004122
    15  H    0.164177  -0.006773
    16  H    0.158177  -0.004363
    17  H    0.208869  -0.014186
    18  H    0.192736  -0.000566
    19  H    0.160519   0.001954
    20  H    0.150537  -0.000208
    21  H    0.141690   0.000135
    22  H    0.123662  -0.000169
    23  C   -1.456414   0.019988
    24  O   -0.229005   0.020811
 Sum of Mulliken charges =  -1.00000   1.00000

 Dipole moment (field-independent basis, Debye):
    X=             -0.7610    Y=             -0.5794    Z=             10.6885  Tot=             10.7313
 Quadrupole moment (field-independent basis, Debye-Ang):
   XX=           -121.5227   YY=           -120.2680   ZZ=           -119.9596
   XY=            -11.8132   XZ=              2.6829   YZ=             -0.1137

  Exact polarizability: 271.229  35.002 169.906   5.154  27.316 132.313
 Approx polarizability: 373.914  63.132 304.003 -11.811  53.144 222.999

                      1                      2                      3
                      A                      A                      A
 Frequencies --     30.7328                45.3052                78.6889
 Red. masses --      8.7155                 4.5153                 4.7390
 Frc consts  --      0.0049                 0.0055                 0.0173
 IR Inten    --      1.2838                 0.3624                 2.3148

                      4                      5                      6
                      A                      A                      A
 Frequencies --    112.1601               142.0965               189.7058
 Red. masses --      7.1707                 9.5844                 6.2247
 Frc consts  --      0.0531                 0.1140                 0.1320
 IR Inten    --      1.8892                13.7057                 4.1991

                      7                      8                      9
                      A                      A                      A
 Frequencies --    201.4479               257.8375               313.3533
 Red. masses --      6.3773                 6.5022                 6.2709
 Frc consts  --      0.1525                 0.2547                 0.3628
 IR Inten    --      2.3572                 3.5098                 0.7244

                     10                     11                     12
                      A                      A                      A
 Frequencies --    345.3807               406.5850               414.2358
 Red. masses --      8.2488                 5.0970                 3.0692
 Frc consts  --      0.5797                 0.4964                 0.3103
 IR Inten    --      1.0389                 4.4014                 1.2353

                     13                     14                     15
                      A                      A                      A
 Frequencies --    421.0158               426.3225               478.0445
 Red. masses --      4.6623                 6.2904                11.1084
 Frc consts  --      0.4869                 0.6736                 1.4957
 IR Inten    --      1.6129                 3.0243                 3.6016

                     16                     17                     18
                      A                      A                      A
 Frequencies --    507.5389               554.9287               618.3700
 Red. masses --      4.1313                 2.8436                 4.8357
 Frc consts  --      0.6270                 0.5159                 1.0895
 IR Inten    --      5.7624                11.9099                 7.3242

                     19                     20                     21
                      A                      A                      A
 Frequencies --    632.3057               638.2271               692.2766
 Red. masses --      6.3982                 6.6408                 5.1770
 Frc consts  --      1.5072                 1.5938                 1.4618
 IR Inten    --      0.7201                10.6277                12.7137

                     22                     23                     24
                      A                      A                      A
 Frequencies --    701.4804               722.6772               753.7098
 Red. masses --      1.6778                 3.8022                 2.9642
 Frc consts  --      0.4864                 1.1700                 0.9921
 IR Inten    --     46.4920                31.7800                 4.9954

                     25                     26                     27
                      A                      A                      A
 Frequencies --    787.9037               824.5994               839.2323
 Red. masses --      2.7634                 3.0726                 3.1961
 Frc consts  --      1.0107                 1.2309                 1.3263
 IR Inten    --     10.7796                49.0526                28.1504

                     28                     29                     30
                      A                      A                      A
 Frequencies --    848.0298               851.9653               896.9990
 Red. masses --      1.3085                 4.4078                 1.6451
 Frc consts  --      0.5544                 1.8850                 0.7799
 IR Inten    --      3.5490                20.0113                19.4865

                     31                     32                     33
                      A                      A                      A
 Frequencies --    934.5511               969.9823               972.6556
 Red. masses --      1.5218                 1.3332                 2.8377
 Frc consts  --      0.7831                 0.7391                 1.5818
 IR Inten    --      2.4920                 3.5646                60.0488

                     34                     35                     36
                      A                      A                      A
 Frequencies --    980.7233               985.2572              1016.7747
 Red. masses --      1.3753                 1.2885                 6.2466
 Frc consts  --      0.7794                 0.7369                 3.8049
 IR Inten    --      3.6598                 1.3760                 0.1218

                     37                     38                     39
                      A                      A                      A
 Frequencies --   1046.4358              1071.9478              1098.4202
 Red. masses --      2.2861                 2.7199                 1.5662
 Frc consts  --      1.4749                 1.8414                 1.1134
 IR Inten    --     11.1110                24.6884                 6.7511

                     40                     41                     42
                      A                      A                      A
 Frequencies --   1133.4430              1174.1142              1192.4497
 Red. masses --      1.6719                 1.1085                 1.3312
 Frc consts  --      1.2655                 0.9003                 1.1153
 IR Inten    --     45.8230                 1.4354                60.8321

                     43                     44                     45
                      A                      A                      A
 Frequencies --   1199.6473              1246.7422              1272.2425
 Red. masses --      1.7561                 1.7140                 5.8242
 Frc consts  --      1.4890                 1.5697                 5.5543
 IR Inten    --     18.6819                90.0743               105.5614

                     46                     47                     48
                      A                      A                      A
 Frequencies --   1331.4436              1344.3477              1347.1134
 Red. masses --      2.8799                 2.6238                 1.7504
 Frc consts  --      3.0080                 2.7939                 1.8716
 IR Inten    --      9.0465                 5.8025                 0.4400

                     49                     50                     51
                      A                      A                      A
 Frequencies --   1421.1951              1463.2863              1472.3613
 Red. masses --      4.3191                 5.2236                 2.3892
 Frc consts  --      5.1399                 6.5899                 3.0516
 IR Inten    --     40.2525               256.8213                46.8724

                     52                     53                     54
                      A                      A                      A
 Frequencies --   1511.2443              1516.5553              1542.5452
 Red. masses --      6.5271                 2.2066                 8.2378
 Frc consts  --      8.7829                 2.9902                11.5488
 IR Inten    --    107.1154                 2.7723               419.9329

                     55                     56                     57
                      A                      A                      A
 Frequencies --   1613.5861              1633.3363              1636.5783
 Red. masses --      5.9049                 5.7455                 6.7563
 Frc consts  --      9.0583                 9.0309                10.6619
 IR Inten    --     27.3200                18.3149                 9.2492

                     58                     59                     60
                      A                      A                      A
 Frequencies --   1665.5292              3134.8676              3142.3313
 Red. masses --     10.8456                 1.0852                 1.0843
 Frc consts  --     17.7259                 6.2836                 6.3084
 IR Inten    --    258.7125                16.6275                 1.6182

                     61                     62                     63
                      A                      A                      A
 Frequencies --   3156.1767              3157.3109              3169.3413
 Red. masses --      1.0893                 1.0952                 1.0947
 Frc consts  --      6.3933                 6.4325                 6.4786
 IR Inten    --     29.6834                45.0440                53.0588

                     64                     65                     66
                      A                      A                      A
 Frequencies --   3174.2229              3189.6835              3199.3904
 Red. masses --      1.0891                 1.0924                 1.0928
 Frc consts  --      6.4651                 6.5483                 6.5904
 IR Inten    --      7.3061                13.8252                 5.3674

 - Thermochemistry -
 -------------------
 Temperature   298.150 Kelvin.  Pressure   1.00000 Atm.
 Atom     1 has atomic number  6 and mass  12.00000

 Molecular mass:   212.04734 amu.
 Principal axes and moments of inertia in atomic units:
                           1         2         3
     Eigenvalues --  1432.187685715.970766425.11554
           X            0.95829  -0.28439  -0.02821
           Y            0.23199   0.83173  -0.50438
           Z            0.16691   0.47680   0.86302
 This molecule is an asymmetric top.
 Rotational symmetry number  1.
 Warning -- assumption of classical behavior for rotation
           may cause significant error
 Rotational temperatures (Kelvin)      0.06048     0.01515     0.01348
 Rotational constants (GHZ):           1.26013     0.31574     0.28089
 Zero-point vibrational energy     453689.7 (Joules/Mol)
                                  108.43443 (Kcal/Mol)
 Warning -- explicit consideration of  18 degrees of freedom as
           vibrations may cause significant error
 Vibrational temperatures:     44.22    65.18   113.22   161.37   204.45
          (Kelvin)            272.94   289.84   370.97   450.85   496.93
                              584.99   595.99   605.75   613.38   687.80
                              730.24   798.42   889.70   909.75   918.27
                              996.03  1009.27  1039.77  1084.42  1133.62
                             1186.41  1207.47  1220.13  1225.79  1290.58
                             1344.61  1395.59  1399.43  1411.04  1417.57
                             1462.91  1505.59  1542.29  1580.38  1630.77
                             1689.29  1715.67  1726.02  1793.78  1830.47
                             1915.65  1934.22  1938.20  2044.78  2105.34
                             2118.40  2174.34  2181.98  2219.38  2321.59
                             2350.01  2354.67  2396.32  4510.38  4521.11
                             4541.03  4542.67  4559.98  4567.00  4589.24
                             4603.21

 Zero-point correction=                           0.172801 (Hartree/Particle)
 Thermal correction to Energy=                    0.185462
 Thermal correction to Enthalpy=                  0.186406
 Thermal correction to Gibbs Free Energy=         0.131711
 Sum of electronic and zero-point Energies=           -725.947855
 Sum of electronic and thermal Energies=              -725.935194
 Sum of electronic and thermal Enthalpies=            -725.934250
 Sum of electronic and thermal Free Energies=         -725.988945

                     E (Thermal)             CV                S
                      KCal/Mol        Cal/Mol-Kelvin    Cal/Mol-Kelvin
 Total                  116.379             49.036            115.116
 Electronic               0.000              0.000              1.377
 Translational            0.889              2.981             41.958
 Rotational               0.889              2.981             32.331
 Vibrational            114.602             43.074             39.449
 Vibration     1          0.594              1.984              5.782
 Vibration     2          0.595              1.979              5.012
 Vibration     3          0.600              1.963              3.923
 Vibration     4          0.607              1.939              3.231
 Vibration     5          0.616              1.911              2.775
 Vibration     6          0.633              1.854              2.231
 Vibration     7          0.638              1.838              2.120
 Vibration     8          0.667              1.750              1.676
 Vibration     9          0.701              1.648              1.345
 Vibration    10          0.724              1.585              1.187
 Vibration    11          0.771              1.456              0.939
 Vibration    12          0.778              1.439              0.912
 Vibration    13          0.784              1.425              0.889
 Vibration    14          0.788              1.413              0.871
 Vibration    15          0.835              1.299              0.715
 Vibration    16          0.863              1.233              0.640
 Vibration    17          0.910              1.129              0.534
 Vibration    18          0.978              0.993              0.419

 Optimization completed.
    -- Stationary point found.
 Normal termination of Gaussian 16 at Wed Dec 20 02:58:43 2023.
