 Gaussian 16, Revision A.03,
 Gaussian 16:  ES64L-G16RevA.03 25-Dec-2016

 --------------------------------------
 #P UB3LYP/6-311++G(d,p) nosym opt freq
 --------------------------------------

 --------
 Oxidized
 --------
 Symbolic Z-matrix:
 Charge =  0 Multiplicity = 1

 SCF Done:  E(UB3LYP) =  -914.653327689     A.U. after   16 cycles
 SCF Done:  E(UB3LYP) =  -914.689927516     A.U. after   14 cycles
 SCF Done:  E(UB3LYP) =  -914.707498237     A.U. after   14 cycles
 SCF Done:  E(UB3LYP) =  -914.709209827     A.U. after   14 cycles
 SCF Done:  E(UB3LYP) =  -914.709725943     A.U. after   13 cycles
 SCF Done:  E(UB3LYP) =  -914.709776455     A.U. after   11 cycles
 SCF Done:  E(UB3LYP) =  -914.709782701     A.U. after   10 cycles
 SCF Done:  E(UB3LYP) =  -914.709783075     A.U. after    9 cycles
 SCF Done:  E(UB3LYP) =  -914.709783321     A.U. after    8 cycles
 Optimization completed.
    -- Stationary point found.
 Normal termination of Gaussian 16 at Thu Dec 21 19:42:03 2023.

 ----------------------------------------------------------------------
 #P Geom=AllCheck Guess=TCheck SCRF=Check GenChk UB3LYP/6-311++G(d,p) F
 req
 ----------------------------------------------------------------------

 Structure from the checkpoint file:  "199.chk"
 --------
 Oxidized
 --------
 Charge =  0 Multiplicity = 1

                          Input orientation:
 ---------------------------------------------------------------------
 Center     Atomic      Atomic             Coordinates (Angstroms)
 Number     Number       Type             X           Y           Z
 ---------------------------------------------------------------------
      1          8           0       -4.329870    0.955683   -1.540524
      2          6           0       -3.179785    0.554084   -0.944953
      3          6           0       -1.914924    0.969614   -1.371942
      4          6           0       -0.765840    0.530859   -0.729436
      5          6           0        0.557547    0.997077   -1.215898
      6          8           0        0.660720    1.756925   -2.167194
      7          6           0        1.766289    0.497444   -0.491724
      8          6           0        3.031458    0.910650   -0.915455
      9          6           0        4.171570    0.459980   -0.258291
     10          6           0        4.057556   -0.408805    0.829651
     11          6           0        2.802980   -0.826372    1.259705
     12          6           0        1.652547   -0.377764    0.604366
     13          6           0        0.320846   -0.833560    1.076791
     14          8           0        0.223029   -1.606019    2.044184
     15          6           0       -0.862085   -0.348689    0.373457
     16          6           0       -2.139547   -0.762612    0.797375
     17          8           0       -2.341801   -1.597246    1.835367
     18          6           0       -3.298767   -0.316085    0.144266
     19          8           0       -4.518982   -0.719754    0.559686
     20          1           0       -4.126957    1.548335   -2.272749
     21          1           0       -1.812366    1.644055   -2.215429
     22          1           0        3.097474    1.584340   -1.760781
     23          1           0        5.150636    0.784395   -0.592053
     24          1           0        4.947530   -0.758612    1.340120
     25          1           0        2.691833   -1.499326    2.100669
     26          1           0       -1.446525   -1.827203    2.194697
     27          1           0       -4.394564   -1.311395    1.316095
 ---------------------------------------------------------------------

 SCF Done:  E(UB3LYP) =  -914.709783321     A.U. after    2 cycles

 Alpha  occ. eigenvalues --  -19.18256 -19.17501 -19.17318 -19.14085 -19.12709
 Alpha  occ. eigenvalues --  -10.29104 -10.28104 -10.27103 -10.27037 -10.26160
 Alpha  occ. eigenvalues --  -10.21485 -10.21331 -10.21255 -10.21031 -10.20671
 Alpha  occ. eigenvalues --  -10.20612 -10.20445 -10.20286 -10.20285  -1.11100
 Alpha  occ. eigenvalues --   -1.09653  -1.07928  -1.06194  -1.06062  -0.89946
 Alpha  occ. eigenvalues --   -0.88468  -0.81728  -0.78549  -0.77733  -0.77570
 Alpha  occ. eigenvalues --   -0.69975  -0.69180  -0.66231  -0.64195  -0.60727
 Alpha  occ. eigenvalues --   -0.59616  -0.58575  -0.56115  -0.54001  -0.53002
 Alpha  occ. eigenvalues --   -0.51511  -0.50041  -0.48107  -0.47956  -0.46488
 Alpha  occ. eigenvalues --   -0.46179  -0.45768  -0.45425  -0.44947  -0.43739
 Alpha  occ. eigenvalues --   -0.42913  -0.41154  -0.40385  -0.39987  -0.39609
 Alpha  occ. eigenvalues --   -0.39135  -0.38685  -0.38020  -0.37485  -0.34151
 Alpha  occ. eigenvalues --   -0.29654  -0.29106  -0.28418  -0.27743  -0.25752
 Alpha  occ. eigenvalues --   -0.24131
 Alpha virt. eigenvalues --   -0.12115  -0.07294  -0.03545  -0.02321  -0.02005
 Alpha virt. eigenvalues --   -0.01045  -0.00361   0.01096   0.01359   0.03109
 Alpha virt. eigenvalues --    0.03316   0.03647   0.04054   0.04139   0.04457

  Beta  occ. eigenvalues --  -19.18256 -19.17501 -19.17318 -19.14085 -19.12709
  Beta  occ. eigenvalues --  -10.29104 -10.28104 -10.27103 -10.27037 -10.26160
  Beta  occ. eigenvalues --  -10.21485 -10.21331 -10.21255 -10.21031 -10.20671
  Beta  occ. eigenvalues --  -10.20612 -10.20445 -10.20286 -10.20285  -1.11100
  Beta  occ. eigenvalues --   -1.09653  -1.07928  -1.06194  -1.06062  -0.89946
  Beta  occ. eigenvalues --   -0.88468  -0.81728  -0.78549  -0.77733  -0.77570
  Beta  occ. eigenvalues --   -0.69975  -0.69180  -0.66231  -0.64195  -0.60727
  Beta  occ. eigenvalues --   -0.59616  -0.58575  -0.56115  -0.54001  -0.53002
  Beta  occ. eigenvalues --   -0.51511  -0.50041  -0.48107  -0.47956  -0.46488
  Beta  occ. eigenvalues --   -0.46179  -0.45768  -0.45425  -0.44947  -0.43739
  Beta  occ. eigenvalues --   -0.42913  -0.41154  -0.40385  -0.39987  -0.39609
  Beta  occ. eigenvalues --   -0.39135  -0.38685  -0.38020  -0.37485  -0.34151
  Beta  occ. eigenvalues --   -0.29654  -0.29106  -0.28418  -0.27743  -0.25752
  Beta  occ. eigenvalues --   -0.24131
  Beta virt. eigenvalues --   -0.12115  -0.07294  -0.03545  -0.02321  -0.02005
  Beta virt. eigenvalues --   -0.01045  -0.00361   0.01096   0.01359   0.03109
  Beta virt. eigenvalues --    0.03316   0.03647   0.04054   0.04139   0.04457

 Mulliken charges and spin densities:
               1          2
     1  O   -0.218102  -0.000000
     2  C   -0.314721   0.000000
     3  C    0.125526   0.000000
     4  C    0.828486   0.000000
     5  C   -0.749070  -0.000000
     6  O   -0.219019   0.000000
     7  C   -0.047305   0.000000
     8  C    0.148896   0.000000
     9  C   -0.391012   0.000000
    10  C   -0.406276   0.000000
    11  C    0.171686  -0.000000
    12  C    0.211448  -0.000000
    13  C   -0.472937  -0.000000
    14  O   -0.280675  -0.000000
    15  C    0.647256  -0.000000
    16  C    0.021402   0.000000
    17  O   -0.357436   0.000000
    18  C   -0.265365  -0.000000
    19  O   -0.242060   0.000000
    20  H    0.278781   0.000000
    21  H    0.152102   0.000000
    22  H    0.183214  -0.000000
    23  H    0.178774  -0.000000
    24  H    0.177245   0.000000
    25  H    0.186299   0.000000
    26  H    0.354021  -0.000000
    27  H    0.298840   0.000000
 Sum of Mulliken charges =  -0.00000  -0.00000

 Dipole moment (field-independent basis, Debye):
    X=              2.3047    Y=              0.2495    Z=             -0.1358  Tot=              2.3222
 Quadrupole moment (field-independent basis, Debye-Ang):
   XX=           -100.3083   YY=           -109.6559   ZZ=           -108.5476
   XY=             -3.3930   XZ=              5.0570   YZ=             -1.0896

  Exact polarizability: 291.927   5.305 131.951   9.299 -59.068 160.112
 Approx polarizability: 440.257  12.339 242.497   7.851-132.320 304.561

                      1                      2                      3
                      A                      A                      A
 Frequencies --     41.6807                79.6076               118.6286
 Red. masses --      8.0558                 6.6046                 6.1466
 Frc consts  --      0.0082                 0.0247                 0.0510
 IR Inten    --      2.4756                 0.3415                 0.8572

                      4                      5                      6
                      A                      A                      A
 Frequencies --    130.8471               156.7960               183.7996
 Red. masses --      8.2109                 9.1942                 6.0736
 Frc consts  --      0.0828                 0.1332                 0.1209
 IR Inten    --      0.1914                 0.3650                 0.0910

                      7                      8                      9
                      A                      A                      A
 Frequencies --    204.5676               280.9744               283.9744
 Red. masses --      6.4076                 5.9229                 6.5153
 Frc consts  --      0.1580                 0.2755                 0.3096
 IR Inten    --      0.0012                 0.0316                 0.9236

                     10                     11                     12
                      A                      A                      A
 Frequencies --    295.8409               308.3946               326.1619
 Red. masses --      5.9882                 1.2941                 7.5589
 Frc consts  --      0.3088                 0.0725                 0.4738
 IR Inten    --     10.8173                84.9276                 8.1223

                     13                     14                     15
                      A                      A                      A
 Frequencies --    361.1288               363.9687               377.6691
 Red. masses --      7.1197                 3.0211                 8.3571
 Frc consts  --      0.5471                 0.2358                 0.7023
 IR Inten    --      0.6653                 1.3870                 1.7853

                     16                     17                     18
                      A                      A                      A
 Frequencies --    415.0706               426.8176               446.0761
 Red. masses --     10.7193                 2.7031                 1.3454
 Frc consts  --      1.0881                 0.2901                 0.1577
 IR Inten    --     26.9396                21.0009               119.7961

                     19                     20                     21
                      A                      A                      A
 Frequencies --    454.2375               474.9868               524.4464
 Red. masses --      4.6263                12.5371                 7.0531
 Frc consts  --      0.5624                 1.6665                 1.1430
 IR Inten    --      5.6742                 0.2645                 6.4473

                     22                     23                     24
                      A                      A                      A
 Frequencies --    543.9593               550.1632               599.7919
 Red. masses --      9.7367                 6.0578                 6.2703
 Frc consts  --      1.6974                 1.0803                 1.3291
 IR Inten    --      2.0255                 0.0335                 3.4786

                     25                     26                     27
                      A                      A                      A
 Frequencies --    628.3619               657.5489               663.8122
 Red. masses --      8.2100                10.9918                 6.7904
 Frc consts  --      1.9099                 2.8001                 1.7629
 IR Inten    --     15.0150                 0.0747                24.3095

                     28                     29                     30
                      A                      A                      A
 Frequencies --    689.3144               706.0839               731.1043
 Red. masses --      5.6493                 5.0564                 2.2266
 Frc consts  --      1.5815                 1.4853                 0.7012
 IR Inten    --      0.0015                 5.3813                62.4792

                     31                     32                     33
                      A                      A                      A
 Frequencies --    747.0869               777.6516               793.9070
 Red. masses --      7.4369                 5.5819                 1.0801
 Frc consts  --      2.4456                 1.9889                 0.4011
 IR Inten    --      6.8980                 3.4588                95.9585

                     34                     35                     36
                      A                      A                      A
 Frequencies --    807.8695               809.8919               876.4785
 Red. masses --      7.1928                 1.7934                 1.4225
 Frc consts  --      2.7659                 0.6931                 0.6438
 IR Inten    --     34.8639                 0.4487                17.8644

                     37                     38                     39
                      A                      A                      A
 Frequencies --    891.6033               916.0686              1001.8689
 Red. masses --      6.8756                 1.3629                 1.3806
 Frc consts  --      3.2204                 0.6739                 0.8165
 IR Inten    --      5.1997                 0.1300                 1.7415

                     40                     41                     42
                      A                      A                      A
 Frequencies --   1011.7814              1017.9102              1049.2784
 Red. masses --      4.5586                 1.3227                 3.3223
 Frc consts  --      2.7495                 0.8075                 2.1551
 IR Inten    --     79.9909                 0.0387                42.2453

                     43                     44                     45
                      A                      A                      A
 Frequencies --   1072.8031              1105.0558              1137.8083
 Red. masses --      2.5112                 3.4279                 2.5505
 Frc consts  --      1.7028                 2.4663                 1.9454
 IR Inten    --     26.0711                13.7768                70.5461

                     46                     47                     48
                      A                      A                      A
 Frequencies --   1182.5100              1196.6909              1210.6871
 Red. masses --      1.1422                 1.3113                 2.0719
 Frc consts  --      0.9410                 1.1064                 1.7893
 IR Inten    --     16.6837               103.8291               167.4821

                     49                     50                     51
                      A                      A                      A
 Frequencies --   1235.1616              1258.9086              1295.8173
 Red. masses --      2.2267                 2.2055                 2.1452
 Frc consts  --      2.0015                 2.0594                 2.1223
 IR Inten    --     28.1756                68.3747                72.5186

                     52                     53                     54
                      A                      A                      A
 Frequencies --   1332.7330              1343.2967              1352.7879
 Red. masses --      3.0814                 3.0335                 3.6193
 Frc consts  --      3.2246                 3.2251                 3.9025
 IR Inten    --    716.0370               173.6715                58.6552

                     55                     56                     57
                      A                      A                      A
 Frequencies --   1367.2621              1393.7977              1446.0977
 Red. masses --      6.5560                 2.5138                 3.9833
 Frc consts  --      7.2210                 2.8772                 4.9078
 IR Inten    --    524.8642               249.3285                30.9332

                     58                     59                     60
                      A                      A                      A
 Frequencies --   1476.8169              1485.3948              1505.4430
 Red. masses --      3.3876                 3.0422                 2.6579
 Frc consts  --      4.3530                 3.9548                 3.5491
 IR Inten    --    223.1829                59.5474                 2.2987

                     61                     62                     63
                      A                      A                      A
 Frequencies --   1531.6778              1607.2040              1618.1129
 Red. masses --      5.6012                 6.9448                 4.5592
 Frc consts  --      7.7423                10.5695                 7.0333
 IR Inten    --     54.1248                 1.8203               104.9044

                     64                     65                     66
                      A                      A                      A
 Frequencies --   1626.6522              1648.3991              1669.5113
 Red. masses --      5.6964                 5.8801                 8.2762
 Frc consts  --      8.8806                 9.4137                13.5913
 IR Inten    --    106.8096                63.4797               246.1141

                     67                     68                     69
                      A                      A                      A
 Frequencies --   1717.7364              3171.3179              3175.4612
 Red. masses --     11.8256                 1.0871                 1.0905
 Frc consts  --     20.5582                 6.4415                 6.4784
 IR Inten    --    153.8148                 3.2730                 5.3550

                     70                     71                     72
                      A                      A                      A
 Frequencies --   3185.6494              3201.0418              3203.9648
 Red. masses --      1.0919                 1.0927                 1.0947
 Frc consts  --      6.5287                 6.5966                 6.6211
 IR Inten    --     10.9671                 1.1650                 9.7203

                     73                     74                     75
                      A                      A                      A
 Frequencies --   3273.2224              3757.3718              3827.5833
 Red. masses --      1.0686                 1.0653                 1.0663
 Frc consts  --      6.7453                 8.8612                 9.2040
 IR Inten    --    304.8254               134.5461               110.2093

 - Thermochemistry -
 -------------------
 Temperature   298.150 Kelvin.  Pressure   1.00000 Atm.
 Atom     1 has atomic number  8 and mass  15.99491

 Molecular mass:   256.03717 amu.
 Principal axes and moments of inertia in atomic units:
                           1         2         3
     Eigenvalues --  2260.912116644.933318905.84539
           X            0.99875  -0.01436  -0.04789
           Y            0.02861  -0.62143   0.78295
           Z            0.04100   0.78334   0.62024
 This molecule is an asymmetric top.
 Rotational symmetry number  1.
 Warning -- assumption of classical behavior for rotation
           may cause significant error
 Rotational temperatures (Kelvin)      0.03831     0.01303     0.00973
 Rotational constants (GHZ):           0.79824     0.27160     0.20265
 Zero-point vibrational energy     504472.3 (Joules/Mol)
                                  120.57178 (Kcal/Mol)
 Warning -- explicit consideration of  24 degrees of freedom as
           vibrations may cause significant error
 Vibrational temperatures:     59.97   114.54   170.68   188.26   225.59
          (Kelvin)            264.45   294.33   404.26   408.58   425.65
                              443.71   469.27   519.58   523.67   543.38
                              597.19   614.10   641.80   653.55   683.40
                              754.56   782.64   791.56   862.97   904.07
                              946.07   955.08   991.77  1015.90  1051.90
                             1074.89  1118.87  1142.26  1162.34  1165.25
                             1261.06  1282.82  1318.02  1441.47  1455.73
                             1464.55  1509.68  1543.52  1589.93  1637.05
                             1701.37  1721.77  1741.91  1777.12  1811.29
                             1864.39  1917.51  1932.70  1946.36  1967.19
                             2005.36  2080.61  2124.81  2137.15  2166.00
                             2203.74  2312.41  2328.10  2340.39  2371.68
                             2402.05  2471.44  4562.82  4568.78  4583.44
                             4605.59  4609.79  4709.44  5406.02  5507.04

 Zero-point correction=                           0.192143 (Hartree/Particle)
 Thermal correction to Energy=                    0.206683
 Thermal correction to Enthalpy=                  0.207627
 Thermal correction to Gibbs Free Energy=         0.151081
 Sum of electronic and zero-point Energies=           -914.517640
 Sum of electronic and thermal Energies=              -914.503100
 Sum of electronic and thermal Enthalpies=            -914.502156
 Sum of electronic and thermal Free Energies=         -914.558702

                     E (Thermal)             CV                S
                      KCal/Mol        Cal/Mol-Kelvin    Cal/Mol-Kelvin
 Total                  129.696             58.496            119.011
 Electronic               0.000              0.000              0.000
 Translational            0.889              2.981             42.520
 Rotational               0.889              2.981             33.259
 Vibrational            127.918             52.535             43.232
 Vibration     1          0.594              1.981              5.178
 Vibration     2          0.600              1.963              3.901
 Vibration     3          0.609              1.934              3.123
 Vibration     4          0.612              1.922              2.934
 Vibration     5          0.620              1.895              2.588
 Vibration     6          0.631              1.862              2.289
 Vibration     7          0.640              1.833              2.092
 Vibration     8          0.681              1.709              1.528
 Vibration     9          0.682              1.703              1.510
 Vibration    10          0.690              1.681              1.440
 Vibration    11          0.698              1.658              1.371
 Vibration    12          0.710              1.623              1.279
 Vibration    13          0.735              1.552              1.117
 Vibration    14          0.738              1.546              1.105
 Vibration    15          0.748              1.518              1.048
 Vibration    16          0.778              1.438              0.909
 Vibration    17          0.788              1.412              0.869
 Vibration    18          0.805              1.370              0.808
 Vibration    19          0.813              1.352              0.783
 Vibration    20          0.832              1.306              0.724
 Vibration    21          0.879              1.196              0.600
 Vibration    22          0.899              1.153              0.557
 Vibration    23          0.905              1.139              0.544
 Vibration    24          0.958              1.032              0.450

 Optimization completed.
    -- Stationary point found.
 Normal termination of Gaussian 16 at Thu Dec 21 20:33:34 2023.
