 Q-Chem 5.4, Q-Chem, Inc., Pleasanton, CA (2021)
 Q-Chem 5.4.0 for Intel X86 EM64T Linux

User input:
--------------------------------------------------------------
$molecule
-1 2
C                 -2.0186010000     -5.4460730000      0.9035170000
C                 -0.8315310000     -5.6215260000      0.1112840000
C                 -0.1168260000     -4.5714310000     -0.4177340000
C                 -0.6048410000     -3.1916730000     -0.2669770000
C                 -2.4855120000     -4.0590000000      1.0945840000
C                 -1.8161090000     -3.0188070000      0.4928510000
O                 -2.6793800000     -6.3902280000      1.4098910000
O                  0.0303580000     -2.2529890000     -0.8142430000
N                 -3.6835060000     -3.9906170000      1.8268330000
N                  1.0399500000     -4.6760330000     -1.2079000000
C                 -3.8521150000     -3.2051830000      3.0718380000
C                 -2.5618250000     -2.8179530000      3.8000740000
C                 -4.8046840000     -1.9990890000      2.9064200000
C                  2.2559900000     -5.3208150000     -0.6784080000
C                  3.2392380000     -4.3063900000     -0.0793820000
C                  2.9588140000     -6.1925440000     -1.7390780000
N                 -5.5572600000     -2.0285610000      1.7793950000
N                  2.2643640000     -6.3525470000     -2.8903470000
C                  2.6918780000     -7.2345770000     -3.9549340000
C                 -6.4250000000     -0.9339790000      1.3988930000
O                 -4.9237240000     -1.1524740000      3.7866700000
O                  4.0574780000     -6.6976650000     -1.5239650000
Cl                -0.3550030000     -7.2942430000     -0.2078780000
Cl                -2.4303360000     -1.3659080000      0.5826540000
H                 -3.9280480000     -4.9665310000      1.9957890000
H                  1.2407340000     -3.7220570000     -1.5147570000
H                 -4.4117630000     -3.8666540000      3.7456470000
H                 -2.8170020000     -2.2963820000      4.7232490000
H                 -1.9406930000     -2.1568490000      3.1964040000
H                 -1.9872180000     -3.7158510000      4.0389050000
H                  1.9590500000     -6.0221740000      0.1029790000
H                  2.7693030000     -3.7776870000      0.7525300000
H                  3.5363380000     -3.5654600000     -0.8285310000
H                  4.1373110000     -4.8160820000      0.2724130000
H                 -5.2391740000     -2.6945950000      1.0852480000
H                  1.3400280000     -5.9362350000     -2.8875250000
H                  3.7564690000     -7.4322900000     -3.8292990000
H                  2.5240850000     -6.7657260000     -4.9284610000
H                  2.1562480000     -8.1909400000     -3.9297600000
H                 -7.2853600000     -1.3150350000      0.8429680000
H                 -5.9022380000     -0.1967070000      0.7773650000
H                 -6.7727980000     -0.4346500000      2.3032380000
$end
$rem
MAX_SCF_CYCLES=200
BASIS  =  6-311++G(d,p)
GUI  =  2
JOB_TYPE  =  SP
METHOD  =  B3LYP
SOLVENT_METHOD = PCM
$end
$pcm
theory = CPCM
$end
$solvent
dielectric 37.219
opticaldielectric 1.43
$end

--------------------------------------------------------------

             Standard Nuclear Orientation (Angstroms)
    I     Atom           X                Y                Z
 ----------------------------------------------------------------
    1      C      -2.0186010000    -5.4460730000     0.9035170000
    2      C      -0.8315310000    -5.6215260000     0.1112840000
    3      C      -0.1168260000    -4.5714310000    -0.4177340000
    4      C      -0.6048410000    -3.1916730000    -0.2669770000
    5      C      -2.4855120000    -4.0590000000     1.0945840000
    6      C      -1.8161090000    -3.0188070000     0.4928510000
    7      O      -2.6793800000    -6.3902280000     1.4098910000
    8      O       0.0303580000    -2.2529890000    -0.8142430000
    9      N      -3.6835060000    -3.9906170000     1.8268330000
   10      N       1.0399500000    -4.6760330000    -1.2079000000
   11      C      -3.8521150000    -3.2051830000     3.0718380000
   12      C      -2.5618250000    -2.8179530000     3.8000740000
   13      C      -4.8046840000    -1.9990890000     2.9064200000
   14      C       2.2559900000    -5.3208150000    -0.6784080000
   15      C       3.2392380000    -4.3063900000    -0.0793820000
   16      C       2.9588140000    -6.1925440000    -1.7390780000
   17      N      -5.5572600000    -2.0285610000     1.7793950000
   18      N       2.2643640000    -6.3525470000    -2.8903470000
   19      C       2.6918780000    -7.2345770000    -3.9549340000
   20      C      -6.4250000000    -0.9339790000     1.3988930000
   21      O      -4.9237240000    -1.1524740000     3.7866700000
   22      O       4.0574780000    -6.6976650000    -1.5239650000
   23      Cl     -0.3550030000    -7.2942430000    -0.2078780000
   24      Cl     -2.4303360000    -1.3659080000     0.5826540000
   25      H      -3.9280480000    -4.9665310000     1.9957890000
   26      H       1.2407340000    -3.7220570000    -1.5147570000
   27      H      -4.4117630000    -3.8666540000     3.7456470000
   28      H      -2.8170020000    -2.2963820000     4.7232490000
   29      H      -1.9406930000    -2.1568490000     3.1964040000
   30      H      -1.9872180000    -3.7158510000     4.0389050000
   31      H       1.9590500000    -6.0221740000     0.1029790000
   32      H       2.7693030000    -3.7776870000     0.7525300000
   33      H       3.5363380000    -3.5654600000    -0.8285310000
   34      H       4.1373110000    -4.8160820000     0.2724130000
   35      H      -5.2391740000    -2.6945950000     1.0852480000
   36      H       1.3400280000    -5.9362350000    -2.8875250000
   37      H       3.7564690000    -7.4322900000    -3.8292990000
   38      H       2.5240850000    -6.7657260000    -4.9284610000
   39      H       2.1562480000    -8.1909400000    -3.9297600000
   40      H      -7.2853600000    -1.3150350000     0.8429680000
   41      H      -5.9022380000    -0.1967070000     0.7773650000
   42      H      -6.7727980000    -0.4346500000     2.3032380000
 ----------------------------------------------------------------

    8   -1985.1817420343      5.96e-06  Convergence criterion met
 Total energy in the final basis set =    -1985.1817420343

                    Orbital Energies (a.u.)
 --------------------------------------------------------------

 Alpha MOs
 -- Occupied --
********-101.5506 -19.0942 -19.0937 -19.0923 -19.0918 -14.3340 -14.3310
-14.3252 -14.3245 -10.2718 -10.2709 -10.2421 -10.2418 -10.2229 -10.2227
-10.2223 -10.2221 -10.2190 -10.2172 -10.1944 -10.1934 -10.1616 -10.1589
 -9.4664  -9.4656  -7.2306  -7.2298  -7.2215  -7.2209  -7.2207  -7.2200
 -1.0439  -1.0438  -1.0258  -1.0218  -0.9418  -0.9383  -0.9179  -0.9161
 -0.8708  -0.8603  -0.8073  -0.7769  -0.7563  -0.7111  -0.7106  -0.7063
 -0.6848  -0.6436  -0.6315  -0.5938  -0.5855  -0.5745  -0.5661  -0.5453
 -0.5189  -0.5187  -0.5044  -0.4890  -0.4853  -0.4715  -0.4593  -0.4509
 -0.4477  -0.4441  -0.4413  -0.4372  -0.4311  -0.4291  -0.4260  -0.4233
 -0.4081  -0.4027  -0.3979  -0.3923  -0.3898  -0.3881  -0.3870  -0.3794
 -0.3715  -0.3693  -0.3621  -0.3551  -0.3488  -0.3384  -0.3210  -0.3161
 -0.3134  -0.3111  -0.2731  -0.2700  -0.2654  -0.2613  -0.2602  -0.2576
 -0.2445  -0.2176  -0.1659

 Beta MOs
 -- Occupied --
********-101.5506 -19.0942 -19.0937 -19.0867 -19.0862 -14.3340 -14.3309
-14.3243 -14.3236 -10.2718 -10.2709 -10.2400 -10.2397 -10.2227 -10.2227
-10.2205 -10.2204 -10.2188 -10.2170 -10.1944 -10.1934 -10.1615 -10.1588
 -9.4664  -9.4656  -7.2306  -7.2298  -7.2215  -7.2209  -7.2207  -7.2201
 -1.0439  -1.0438  -1.0165  -1.0121  -0.9397  -0.9361  -0.9171  -0.9153
 -0.8695  -0.8597  -0.8037  -0.7753  -0.7553  -0.7110  -0.7103  -0.7051
 -0.6760  -0.6428  -0.6303  -0.5905  -0.5834  -0.5741  -0.5651  -0.5437
 -0.5177  -0.5173  -0.5021  -0.4874  -0.4844  -0.4707  -0.4586  -0.4506
 -0.4464  -0.4413  -0.4365  -0.4348  -0.4304  -0.4278  -0.4208  -0.4178
 -0.4062  -0.4011  -0.3917  -0.3898  -0.3880  -0.3875  -0.3804  -0.3748
 -0.3700  -0.3688  -0.3575  -0.3541  -0.3479  -0.3307  -0.3186  -0.3147
 -0.3056  -0.3037  -0.2667  -0.2647  -0.2641  -0.2594  -0.2581  -0.2548
 -0.2336  -0.2115

          Ground-State Mulliken Net Atomic Charges

     Atom                 Charge (a.u.)    Spin (a.u.)
  --------------------------------------------------------
      1 C                    -0.649811       0.135098
      2 C                     0.119146      -0.030602
      3 C                    -0.168494       0.153706
      4 C                    -0.577515       0.130153
      5 C                    -0.286762       0.136739
      6 C                     0.038070      -0.036451
      7 O                    -0.433450       0.208302
      8 O                    -0.431748       0.214088
      9 N                    -0.100106       0.037261
     10 N                     0.086808       0.034304
     11 C                     0.315288       0.003020
     12 C                    -0.598577      -0.000246
     13 C                    -0.385838       0.002887
     14 C                     0.103056       0.005773
     15 C                    -0.652415       0.000002
     16 C                    -0.145329       0.001568
     17 N                    -0.165057      -0.000317
     18 N                    -0.256522      -0.000829
     19 C                    -0.307224      -0.000457
     20 C                    -0.343704      -0.000404
     21 O                    -0.454711       0.000090
     22 O                    -0.476905      -0.000131
     23 Cl                    0.423102       0.001945
     24 Cl                    0.510562       0.003408
     25 H                     0.308270      -0.002688
     26 H                     0.285456      -0.002536
     27 H                     0.252311       0.000237
     28 H                     0.183253      -0.000201
     29 H                     0.132878       0.000930
     30 H                     0.177853       0.000131
     31 H                     0.181292       0.001480
     32 H                     0.183251      -0.000598
     33 H                     0.183339       0.000110
     34 H                     0.172996       0.000911
     35 H                     0.372141       0.001490
     36 H                     0.374543       0.001622
     37 H                     0.174723       0.000100
     38 H                     0.168224       0.000029
     39 H                     0.178021      -0.000048
     40 H                     0.166533       0.000055
     41 H                     0.178249      -0.000031
     42 H                     0.164772       0.000097
  --------------------------------------------------------
  Sum of atomic charges =    -1.000030

                    Cartesian Multipole Moments
 -----------------------------------------------------------------
    Charge (ESU x 10^10)
                -4.8034
    Dipole Moment (Debye)
         X       2.9814      Y      19.5110      Z      -5.5444
       Tot      20.5014
    Quadrupole Moments (Debye-Ang)
        XX    -201.0632     XY       6.0977     YY    -288.7490
        XZ      30.0716     YZ      14.3418     ZZ    -171.7518

 Total job time:  125.57s(wall), 883.34s(cpu)
        *  Thank you very much for using Q-Chem.  Have a nice day.  *
