 Q-Chem 5.4, Q-Chem, Inc., Pleasanton, CA (2021)
 Q-Chem 5.4.0 for Intel X86 EM64T Linux

User input:
--------------------------------------------------------------
$molecule
-1 2
C                 -1.6416920000      2.8808700000     -0.7110000000
C                 -2.8407790000      2.2689980000     -0.3966480000
C                 -2.8546890000      0.9220280000      0.0199850000
C                 -0.4130060000      2.1920130000     -0.6275190000
C                 -0.4331650000      0.8261300000     -0.2043720000
C                 -1.6666310000      0.2181410000      0.1123920000
C                  0.8291810000      2.8981280000     -0.9754030000
C                  2.1020550000      2.1215140000     -0.8695350000
C                  2.0009480000      0.7384830000     -0.4327270000
C                  0.8184650000      0.1253980000     -0.1195900000
O                  0.8159210000      4.0936820000     -1.3424000000
O                  3.2144780000      2.6240730000     -1.1411590000
O                  0.7129180000     -1.1941530000      0.2984840000
C                  1.8955180000     -1.9492050000      0.4067020000
C                  1.5942520000     -3.3426360000      0.8688850000
C                  0.3909170000     -3.8354040000      1.1487480000
H                 -1.6025250000      3.9150830000     -1.0338870000
H                 -3.7715680000      2.8239240000     -0.4701140000
H                 -3.7934820000      0.4361620000      0.2681710000
H                 -1.6699260000     -0.8168560000      0.4318190000
H                  2.9486050000      0.2173250000     -0.3715210000
H                  2.5943590000     -1.4742010000      1.1129550000
H                  2.4173920000     -1.9914290000     -0.5621500000
H                  2.4758640000     -3.9739940000      0.9703510000
H                 -0.4983280000     -3.2247240000      1.0545150000
H                  0.2688070000     -4.8613780000      1.4785280000
$end
$rem
MAX_SCF_CYCLES=200
BASIS  =  6-311++G(d,p)
GUI  =  2
JOB_TYPE  =  SP
METHOD  =  B3LYP
SOLVENT_METHOD = COSMO
$end
$solvent
dielectric 37.219
opticaldielectric 1.43
$end

--------------------------------------------------------------

             Standard Nuclear Orientation (Angstroms)
    I     Atom           X                Y                Z
 ----------------------------------------------------------------
    1      C       2.6571337139     1.4327539415     0.0001087743
    2      C       2.2561555968     2.7557167838    -0.0000505302
    3      C       0.8825391487     3.0739659068    -0.0003241477
    4      C       1.7236018100     0.3746043741     0.0000201815
    5      C       0.3318222269     0.7033073832    -0.0002297797
    6      C      -0.0587620132     2.0593576610    -0.0003861597
    7      C       2.2128015732    -1.0122387170     0.0002345903
    8      C       1.1813533155    -2.0942091568     0.0001029561
    9      C      -0.2127822186    -1.6816748173    -0.0002612732
   10      C      -0.6181446754    -0.3748177778    -0.0002753518
   11      O       3.4367630111    -1.2693967752     0.0005868277
   12      O       1.4868619951    -3.3068486401     0.0001858683
   13      O      -1.9466897294     0.0278097424    -0.0002781948
   14      C      -2.9391043092    -0.9699228798    -0.0008564930
   15      C      -4.3067588294    -0.3571057498    -0.0001091300
   16      C      -4.5857273231     0.9434067981     0.0014449065
   17      H       3.7064817074     1.1602556032     0.0003143005
   18      H       2.9971604412     3.5498327070    -0.0000031649
   19      H       0.5616465089     4.1112808288    -0.0004775693
   20      H      -1.1156337645     2.2966029668    -0.0005332956
   21      H      -0.9224173733    -2.5001023084    -0.0003799227
   22      H      -2.8318414823    -1.6225870492     0.8796689247
   23      H      -2.8320979580    -1.6212869299    -0.8823802029
   24      H      -5.1164698921    -1.0854706526    -0.0008542233
   25      H      -3.7957319382     1.6839965954     0.0022416187
   26      H      -5.6113465608     1.2961011233     0.0019362649
 ----------------------------------------------------------------

   11    -727.2931793885      7.52e-06  Convergence criterion met
 Total energy in the final basis set =     -727.2931793885
    5    -727.3900785353      6.60e-06  Convergence criterion met
 Total energy in the final basis set =     -727.3900785353

                    Orbital Energies (a.u.)
 --------------------------------------------------------------

 Alpha MOs
 -- Occupied --
-19.1594 -19.0823 -19.0787 -10.2389 -10.2288 -10.2223 -10.2201 -10.1838
-10.1798 -10.1758 -10.1741 -10.1724 -10.1717 -10.1697 -10.1630 -10.1591
 -1.0738  -1.0190  -0.9924  -0.8656  -0.8134  -0.7863  -0.7557  -0.7319
 -0.7058  -0.6698  -0.6213  -0.5985  -0.5864  -0.5473  -0.5301  -0.5115
 -0.4985  -0.4807  -0.4700  -0.4499  -0.4444  -0.4284  -0.4256  -0.4235
 -0.4191  -0.4114  -0.3913  -0.3793  -0.3672  -0.3631  -0.3560  -0.3436
 -0.3403  -0.3370  -0.2810  -0.2665  -0.2657  -0.2602  -0.2307  -0.2279
 -0.1554

 Beta MOs
 -- Occupied --
-19.1583 -19.0758 -19.0734 -10.2368 -10.2289 -10.2207 -10.2179 -10.1830
-10.1798 -10.1754 -10.1742 -10.1718 -10.1714 -10.1694 -10.1631 -10.1598
 -1.0716  -1.0086  -0.9816  -0.8632  -0.8112  -0.7845  -0.7533  -0.7304
 -0.7039  -0.6626  -0.6197  -0.5948  -0.5847  -0.5460  -0.5287  -0.5101
 -0.4956  -0.4777  -0.4690  -0.4477  -0.4432  -0.4279  -0.4224  -0.4171
 -0.4080  -0.4069  -0.3885  -0.3664  -0.3649  -0.3555  -0.3521  -0.3423
 -0.3363  -0.3193  -0.2731  -0.2637  -0.2598  -0.2515  -0.2252  -0.2201

          Ground-State Mulliken Net Atomic Charges

     Atom                 Charge (a.u.)    Spin (a.u.)
  --------------------------------------------------------
      1 C                     0.061982       0.059506
      2 C                    -0.491647       0.006763
      3 C                    -0.372437       0.067538
      4 C                     0.432933       0.008236
      5 C                     0.309867       0.049811
      6 C                    -0.195155       0.000760
      7 C                    -0.501435       0.149446
      8 C                    -0.006491       0.156687
      9 C                     0.104457      -0.067974
     10 C                    -0.106309       0.116566
     11 O                    -0.518267       0.243281
     12 O                    -0.554016       0.184228
     13 O                    -0.147414       0.026929
     14 C                     0.080835       0.001301
     15 C                    -0.341321      -0.000534
     16 C                    -0.654439      -0.000088
     17 H                     0.183824      -0.004111
     18 H                     0.198371      -0.001485
     19 H                     0.217406      -0.004512
     20 H                     0.129602       0.000914
     21 H                     0.239060       0.001791
     22 H                     0.185810       0.002653
     23 H                     0.185968       0.002660
     24 H                     0.237776      -0.000187
     25 H                     0.142446      -0.000222
     26 H                     0.178592       0.000041
  --------------------------------------------------------
  Sum of atomic charges =    -1.000000

                    Cartesian Multipole Moments
 -----------------------------------------------------------------
    Charge (ESU x 10^10)
                -4.8032
    Dipole Moment (Debye)
         X     -13.1348      Y       9.8673      Z      -0.0026
       Tot      16.4282
    Quadrupole Moments (Debye-Ang)
        XX    -124.1427     XY      31.4720     YY    -123.7130
        XZ      -0.0041     YZ       0.0076     ZZ    -100.4836

 Total job time:  72.05s(wall), 552.69s(cpu)
        *  Thank you very much for using Q-Chem.  Have a nice day.  *
