 Gaussian 16, Revision A.03,
 Gaussian 16:  ES64L-G16RevA.03 25-Dec-2016

 ----------------------------------------------------------------
 #P UB3LYP/6-311++G(d,p) SCRF=(PCM,Solvent=n,n-DiMethylFormamide)
 ----------------------------------------------------------------

 -------
 Reduced
 -------
 Symbolic Z-matrix:
 Charge = -2 Multiplicity = 1

                         Standard orientation:
 ---------------------------------------------------------------------
 Center     Atomic      Atomic             Coordinates (Angstroms)
 Number     Number       Type             X           Y           Z
 ---------------------------------------------------------------------
      1          6           0       -2.260703   -0.256411   -0.753987
      2          6           0       -2.954032   -1.445307   -0.531232
      3          6           0       -2.368975   -2.792548   -0.891629
      4          6           0       -4.289859   -1.461785    0.028951
      5          8           0       -4.959777   -2.542526    0.205710
      6          6           0       -4.837476   -0.167229    0.367208
      7          6           0       -4.137974    1.013367    0.165898
      8          8           0       -4.715726    2.203368    0.593459
      9          6           0       -4.950216    3.149403   -0.439203
     10          6           0       -2.810091    1.034975   -0.403508
     11          8           0       -2.160931    2.128618   -0.575496
     12          8           0       -6.139751   -0.086711    0.848363
     13          6           0       -6.343280   -0.720194    2.102678
     14          1           0       -3.029892   -3.571056   -0.505354
     15          1           0       -1.363637   -2.937848   -0.477063
     16          1           0       -2.286758   -2.933899   -1.979979
     17          1           0       -5.694723    2.766937   -1.154336
     18          1           0       -5.353744    4.045668    0.044256
     19          1           0       -4.018672    3.390489   -0.958707
     20          1           0       -6.062337   -1.775814    2.050100
     21          1           0       -7.410808   -0.626944    2.330332
     22          1           0       -5.767191   -0.213343    2.891828
     23          6           0       -0.875369   -0.235361   -1.361934
     24          6           0        0.265041   -0.177460   -0.324870
     25          6           0        1.659728   -0.119522   -0.961577
     26          6           0        2.814004   -0.073016    0.048220
     27          6           0        4.204858   -0.026609   -0.598914
     28          6           0        5.366101    0.009469    0.402997
     29          6           0        6.752162    0.045323   -0.254785
     30          6           0        7.917099    0.075267    0.742609
     31          6           0        9.300046    0.105843    0.078123
     32          6           0       10.463383    0.133645    1.073765
     33          1           0       -0.796796    0.661408   -1.987177
     34          1           0       -0.723898   -1.108944   -2.007713
     35          1           0        0.201678   -1.051758    0.336227
     36          1           0        0.105201    0.707029    0.300156
     37          1           0        1.716845    0.762763   -1.613398
     38          1           0        1.795397   -0.991146   -1.618478
     39          1           0        2.752857   -0.950119    0.706773
     40          1           0        2.687572    0.802429    0.698565
     41          1           0        4.267389    0.853020   -1.253680
     42          1           0        4.324781   -0.899465   -1.255208
     43          1           0        5.302492   -0.867268    1.061346
     44          1           0        5.253392    0.885147    1.055910
     45          1           0        6.816890    0.923570   -0.911028
     46          1           0        6.862040   -0.829267   -0.910042
     47          1           0        7.854642   -0.801421    1.400622
     48          1           0        7.813457    0.950943    1.396693
     49          1           0        9.364192    0.982202   -0.579654
     50          1           0        9.404075   -0.768824   -0.576849
     51          1           0       10.417699    1.017917    1.719878
     52          1           0       11.432933    0.154670    0.564692
     53          1           0       10.457724   -0.750155    1.722137
 ---------------------------------------------------------------------

 SCF Done:  E(UB3LYP) =  -1043.48968775     A.U. after   18 cycles

 The electronic state is 1-A.
 Alpha  occ. eigenvalues --  -19.10520 -19.10507 -19.00204 -19.00148 -10.18656
 Alpha  occ. eigenvalues --  -10.18647 -10.16022 -10.15973 -10.15916 -10.15746
 Alpha  occ. eigenvalues --  -10.15711 -10.15638 -10.15529 -10.15408 -10.15385
 Alpha  occ. eigenvalues --  -10.15326 -10.15292 -10.14941 -10.14145 -10.13252
 Alpha  occ. eigenvalues --  -10.12881 -10.11335 -10.11005  -1.02512  -1.00758
 Alpha  occ. eigenvalues --   -0.92174  -0.91909  -0.80664  -0.79050  -0.77698
 Alpha  occ. eigenvalues --   -0.75856  -0.73455  -0.71817  -0.68894  -0.67553
 Alpha  occ. eigenvalues --   -0.66682  -0.64662  -0.61468  -0.60062  -0.58775
 Alpha  occ. eigenvalues --   -0.57294  -0.56832  -0.56128  -0.52285  -0.51408
 Alpha  occ. eigenvalues --   -0.48046  -0.47522  -0.46418  -0.45464  -0.44980
 Alpha  occ. eigenvalues --   -0.43819  -0.43560  -0.42898  -0.42205  -0.41803
 Alpha  occ. eigenvalues --   -0.41378  -0.41105  -0.40293  -0.39821  -0.38902
 Alpha  occ. eigenvalues --   -0.38072  -0.37548  -0.37483  -0.35736  -0.35513
 Alpha  occ. eigenvalues --   -0.35005  -0.34914  -0.34332  -0.33920  -0.33158
 Alpha  occ. eigenvalues --   -0.33015  -0.32359  -0.32240  -0.32030  -0.31751
 Alpha  occ. eigenvalues --   -0.31568  -0.31480  -0.31042  -0.30520  -0.30221
 Alpha  occ. eigenvalues --   -0.29306  -0.28947  -0.25357  -0.25104  -0.20683
 Alpha  occ. eigenvalues --   -0.18280  -0.18085  -0.17654  -0.09872
 Alpha virt. eigenvalues --   -0.00276   0.00004   0.00701   0.00922   0.01062
 Alpha virt. eigenvalues --    0.01443   0.01592   0.02286   0.02356   0.02799
 Alpha virt. eigenvalues --    0.03340   0.03525   0.03760   0.04035   0.04349

  Beta  occ. eigenvalues --  -19.10520 -19.10507 -19.00204 -19.00148 -10.18656
  Beta  occ. eigenvalues --  -10.18647 -10.16022 -10.15973 -10.15916 -10.15746
  Beta  occ. eigenvalues --  -10.15711 -10.15638 -10.15529 -10.15408 -10.15385
  Beta  occ. eigenvalues --  -10.15326 -10.15292 -10.14941 -10.14145 -10.13252
  Beta  occ. eigenvalues --  -10.12881 -10.11335 -10.11005  -1.02512  -1.00758
  Beta  occ. eigenvalues --   -0.92174  -0.91909  -0.80664  -0.79050  -0.77698
  Beta  occ. eigenvalues --   -0.75856  -0.73455  -0.71817  -0.68894  -0.67553
  Beta  occ. eigenvalues --   -0.66682  -0.64662  -0.61468  -0.60062  -0.58775
  Beta  occ. eigenvalues --   -0.57294  -0.56832  -0.56128  -0.52285  -0.51408
  Beta  occ. eigenvalues --   -0.48046  -0.47522  -0.46418  -0.45464  -0.44980
  Beta  occ. eigenvalues --   -0.43819  -0.43560  -0.42898  -0.42205  -0.41803
  Beta  occ. eigenvalues --   -0.41378  -0.41105  -0.40293  -0.39821  -0.38902
  Beta  occ. eigenvalues --   -0.38072  -0.37548  -0.37483  -0.35736  -0.35513
  Beta  occ. eigenvalues --   -0.35005  -0.34914  -0.34332  -0.33920  -0.33158
  Beta  occ. eigenvalues --   -0.33015  -0.32359  -0.32240  -0.32030  -0.31751
  Beta  occ. eigenvalues --   -0.31568  -0.31480  -0.31042  -0.30520  -0.30221
  Beta  occ. eigenvalues --   -0.29306  -0.28947  -0.25357  -0.25104  -0.20683
  Beta  occ. eigenvalues --   -0.18280  -0.18085  -0.17654  -0.09872
  Beta virt. eigenvalues --   -0.00276   0.00004   0.00701   0.00922   0.01062
  Beta virt. eigenvalues --    0.01443   0.01592   0.02286   0.02356   0.02799
  Beta virt. eigenvalues --    0.03340   0.03525   0.03760   0.04035   0.04349

 Mulliken charges and spin densities:
               1          2
     1  C    1.089121   0.000000
     2  C    0.852326   0.000000
     3  C   -0.613806   0.000000
     4  C   -0.575789  -0.000000
     5  O   -0.703160   0.000000
     6  C   -0.252413  -0.000000
     7  C   -0.332999   0.000000
     8  O   -0.231713  -0.000000
     9  C   -0.228804  -0.000000
    10  C   -0.793526  -0.000000
    11  O   -0.672030   0.000000
    12  O   -0.223277  -0.000000
    13  C   -0.234427  -0.000000
    14  H    0.163766   0.000000
    15  H    0.133571  -0.000000
    16  H    0.139285  -0.000000
    17  H    0.107236   0.000000
    18  H    0.132711   0.000000
    19  H    0.169464  -0.000000
    20  H    0.172179   0.000000
    21  H    0.136693  -0.000000
    22  H    0.109988  -0.000000
    23  C   -0.369637  -0.000000
    24  C   -0.898637   0.000000
    25  C   -0.273595  -0.000000
    26  C   -0.024389  -0.000000
    27  C    0.072082  -0.000000
    28  C   -0.024798  -0.000000
    29  C   -0.230675   0.000000
    30  C   -0.443555   0.000000
    31  C   -0.274589  -0.000000
    32  C   -0.698438   0.000000
    33  H    0.187655   0.000000
    34  H    0.139444  -0.000000
    35  H    0.125511   0.000000
    36  H    0.198964   0.000000
    37  H    0.118529   0.000000
    38  H    0.100768   0.000000
    39  H    0.124240   0.000000
    40  H    0.121695   0.000000
    41  H    0.127980  -0.000000
    42  H    0.128660  -0.000000
    43  H    0.128466   0.000000
    44  H    0.130541   0.000000
    45  H    0.126364   0.000000
    46  H    0.125224   0.000000
    47  H    0.123622  -0.000000
    48  H    0.124133  -0.000000
    49  H    0.131138   0.000000
    50  H    0.130969   0.000000
    51  H    0.140346  -0.000000
    52  H    0.147214  -0.000000
    53  H    0.140374   0.000000
 Sum of Mulliken charges =  -2.00000  -0.00000

 Dipole moment (field-independent basis, Debye):
    X=             35.6166    Y=              0.9460    Z=              0.8974  Tot=             35.6405
 Quadrupole moment (field-independent basis, Debye-Ang):
   XX=           -316.3155   YY=           -196.3497   ZZ=           -156.8052
   XY=            -24.1509   XZ=              1.5851   YZ=              0.1692

 Normal termination of Gaussian 16 at Wed Jan 24 23:05:21 2024.
