 Q-Chem 5.4, Q-Chem, Inc., Pleasanton, CA (2021)
 Q-Chem 5.4.0 for Intel X86 EM64T Linux

User input:
--------------------------------------------------------------
$molecule
0 1
C                 -1.5150390000     -2.0173680000      1.4104780000
C                 -2.0964170000     -2.0593540000      0.0489870000
C                 -1.8012230000     -1.1265630000     -0.8591400000
C                 -0.8591940000     -0.0258560000     -0.5517400000
C                 -0.2372400000      0.0302860000      0.8173950000
C                 -0.5702240000     -0.8986590000      1.7573830000
O                 -1.8215600000     -2.8741680000      2.2229410000
O                 -0.5956660000      0.7989770000     -1.4110200000
H                 -2.2165720000     -1.1219340000     -1.8608020000
C                  0.5425370000     -1.9783070000      3.7370570000
C                 -0.2829350000      0.2777580000      3.9495680000
C                  0.9887690000     -1.9364950000      5.0548170000
C                  0.7910890000     -0.7932980000      5.8273950000
C                  0.1474750000      0.3115680000      5.2723250000
H                 -2.7736740000     -2.8834170000     -0.1462120000
H                  0.6858570000     -2.8774960000      3.1513660000
H                 -0.7797330000      1.1411080000      3.5235290000
H                  1.4828830000     -2.8023110000      5.4809510000
H                  1.1308700000     -0.7657960000      6.8565970000
H                 -0.0196590000      1.2014060000      5.8686290000
C                  0.7622910000      1.1092650000      1.0368770000
C                  0.4396370000      2.4520080000      0.7985030000
C                  2.0609430000      0.7925180000      1.4571900000
C                  1.3843370000      3.4531880000      1.0047760000
C                  3.0096530000      1.7928230000      1.6454110000
C                  2.6723570000      3.1274890000      1.4264230000
H                 -0.5526670000      2.7146540000      0.4543210000
H                  2.3288790000     -0.2424900000      1.6322620000
H                  1.1158560000      4.4882740000      0.8261880000
H                  4.0118630000      1.5290950000      1.9637610000
H                  3.4097850000      3.9077610000      1.5775460000
C                 -0.0861160000     -0.8651170000      3.1630570000
$end
$rem
MAX_SCF_CYCLES=200
BASIS  =  6-311++G(d,p)
GUI  =  2
JOB_TYPE  =  SP
METHOD  =  B3LYP
SOLVENT_METHOD = COSMO
$end
$solvent
dielectric 37.219
opticaldielectric 1.43
$end

--------------------------------------------------------------

             Standard Nuclear Orientation (Angstroms)
    I     Atom           X                Y                Z
 ----------------------------------------------------------------
    1      C       1.4359383369    -2.2244620690    -0.0026496632
    2      C       0.6676489074    -3.4906088421    -0.0076143014
    3      C      -0.6671561813    -3.4907523418     0.0075035707
    4      C      -1.4357376837    -2.2247630150     0.0027291338
    5      C      -0.6813517107    -0.9227782790    -0.0129839735
    6      C       0.6812643212    -0.9226355300     0.0129414312
    7      O       2.6553071925    -2.2599058517     0.0037395639
    8      O      -2.6551006340    -2.2604673899    -0.0034187307
    9      H      -1.2598355384    -4.3987979868     0.0143787328
   10      C       2.5268492945     0.5646622990    -0.8265508365
   11      C       1.2996149484     1.2259161695     1.1414515544
   12      C       3.2964225370     1.7205937759    -0.7319881387
   13      C       3.0785100874     2.6266524140     0.3045568135
   14      C       2.0817837285     2.3720117650     1.2451764334
   15      H       1.2605152326    -4.3985302034    -0.0145312164
   16      H       2.7160804591    -0.1408327420    -1.6256651845
   17      H       0.5246207170     1.0356973567     1.8741803237
   18      H       4.0738064201     1.9081478051    -1.4640222644
   19      H       3.6851428083     3.5218805442     0.3821943151
   20      H       1.9117597970     3.0659555778     2.0605645299
   21      C      -1.5082251308     0.3100547957    -0.1014893843
   22      C      -2.5268999282     0.5645890544     0.8266272570
   23      C      -1.2999961222     1.2255451658    -1.1416849233
   24      C      -3.2963259730     1.7206265866     0.7321348303
   25      C      -2.0820823296     2.3717018070    -1.2453865142
   26      C      -3.0785414578     2.6265606665    -0.3045497405
   27      H      -2.7160278190    -0.1408108679     1.6258474954
   28      H      -0.5251345712     1.0352003292    -1.8745149754
   29      H      -4.0735205570     1.9083611736     1.4643254148
   30      H      -1.9121467285     3.0655467314    -2.0608772726
   31      H      -3.6850548096     3.5218757918    -0.3821061123
   32      C       1.5079747096     0.3103009814     0.1013863762
 ----------------------------------------------------------------

    9    -843.7773285171      2.43e-06  Convergence criterion met
 Total energy in the final basis set =     -843.7773285171
    4    -843.7954285093      8.19e-06  Convergence criterion met
 Total energy in the final basis set =     -843.7954285093

                    Orbital Energies (a.u.)
 --------------------------------------------------------------

 Alpha MOs
 -- Occupied --
-19.1441 -19.1441 -10.2899 -10.2899 -10.2236 -10.2230 -10.2107 -10.2099
-10.1979 -10.1979 -10.1834 -10.1834 -10.1828 -10.1828 -10.1812 -10.1812
-10.1799 -10.1799 -10.1798 -10.1798  -1.0770  -1.0752  -0.8874  -0.8674
 -0.8550  -0.8125  -0.7736  -0.7559  -0.7556  -0.7389  -0.7049  -0.6552
 -0.6311  -0.6146  -0.6144  -0.5904  -0.5856  -0.5329  -0.5274  -0.5269
 -0.5036  -0.4833  -0.4724  -0.4688  -0.4634  -0.4605  -0.4451  -0.4434
 -0.4381  -0.4307  -0.4289  -0.4279  -0.4199  -0.4118  -0.3823  -0.3769
 -0.3609  -0.3600  -0.3552  -0.3527  -0.3145  -0.3065  -0.2980  -0.2818
 -0.2737  -0.2635  -0.2624  -0.2445

          Ground-State Mulliken Net Atomic Charges

     Atom                 Charge (a.u.)
  ----------------------------------------
      1 C                    -0.611167
      2 C                    -0.095125
      3 C                    -0.094984
      4 C                    -0.611200
      5 C                    -0.041319
      6 C                    -0.041028
      7 O                    -0.266367
      8 O                    -0.266395
      9 H                     0.263697
     10 C                    -0.190300
     11 C                    -0.488790
     12 C                    -0.329282
     13 C                    -0.357886
     14 C                    -0.499140
     15 H                     0.263680
     16 H                     0.240709
     17 H                     0.221789
     18 H                     0.219681
     19 H                     0.205183
     20 H                     0.218257
     21 C                     1.509894
     22 C                    -0.189972
     23 C                    -0.488244
     24 C                    -0.329519
     25 C                    -0.499151
     26 C                    -0.357798
     27 H                     0.240701
     28 H                     0.221289
     29 H                     0.219676
     30 H                     0.218250
     31 H                     0.205187
     32 C                     1.509676
  ----------------------------------------
  Sum of atomic charges =     0.000000

                    Cartesian Multipole Moments
 -----------------------------------------------------------------
    Charge (ESU x 10^10)
                -0.0000
    Dipole Moment (Debye)
         X       0.0005      Y       1.4453      Z       0.0008
       Tot       1.4453
    Quadrupole Moments (Debye-Ang)
        XX    -130.6280     XY      -0.0042     YY     -98.5783
        XZ      -7.1817     YZ       0.0034     ZZ    -109.1980

 Total job time:  83.48s(wall), 631.64s(cpu)
        *  Thank you very much for using Q-Chem.  Have a nice day.  *
