 Q-Chem 5.4, Q-Chem, Inc., Pleasanton, CA (2021)
 Q-Chem 5.4.0 for Intel X86 EM64T Linux

User input:
--------------------------------------------------------------
$molecule
-4 1
O                  5.9003620000     -1.6153980000      1.2598520000
S                  5.4585670000     -0.8856810000      0.0199110000
O                  6.2329570000      0.3927000000     -0.1565830000
O                  5.5038640000     -1.7525950000     -1.1983860000
C                  3.7202990000     -0.4064110000      0.2931750000
C                  3.4300010000      0.4256310000      1.4157720000
C                  2.1312560000      0.8151610000      1.6541820000
C                  1.0412380000      0.4260340000      0.8271940000
C                 -0.2946960000      0.8850130000      1.1557370000
O                 -0.5319270000      1.6344090000      2.1786030000
C                 -1.3355850000      0.4272930000      0.2528780000
C                 -2.6936930000      0.8015390000      0.4876580000
C                 -3.7212170000      0.4056200000     -0.3435180000
C                 -3.4308440000     -0.3969760000     -1.4874390000
C                 -2.1309470000     -0.7847810000     -1.7288200000
C                 -1.0422150000     -0.4171750000     -0.8892500000
C                  0.2936610000     -0.8897360000     -1.2089230000
O                  0.5304470000     -1.6518580000     -2.2201220000
C                  1.3362520000     -0.4251750000     -0.3108450000
C                  2.6932120000     -0.8115770000     -0.5348560000
S                 -5.4591970000      0.8622950000     -0.0255440000
O                 -5.9124270000      1.6824930000     -1.2013790000
O                 -6.2271260000     -0.4274410000      0.0669900000
O                 -5.4922980000      1.6385210000      1.2539650000
H                  4.2371220000      0.7392790000      2.0704170000
H                  1.8864140000      1.4482580000      2.5027580000
H                 -2.8995170000      1.4122700000      1.3583570000
H                 -4.2312830000     -0.6908290000     -2.1619580000
H                 -1.8888530000     -1.3960770000     -2.5943430000
H                  2.8961700000     -1.4448080000     -1.3901910000
$end
$rem
MAX_SCF_CYCLES=200
BASIS  =  6-311++G(d,p)
GUI  =  2
JOB_TYPE  =  SP
METHOD  =  B3LYP
SOLVENT_METHOD = PCM
$end
$pcm
theory = CPCM
$end
$solvent
dielectric 37.219
opticaldielectric 1.43
$end

--------------------------------------------------------------

             Standard Nuclear Orientation (Angstroms)
    I     Atom           X                Y                Z
 ----------------------------------------------------------------
    1      O       5.9003620000    -1.6153980000     1.2598520000
    2      S       5.4585670000    -0.8856810000     0.0199110000
    3      O       6.2329570000     0.3927000000    -0.1565830000
    4      O       5.5038640000    -1.7525950000    -1.1983860000
    5      C       3.7202990000    -0.4064110000     0.2931750000
    6      C       3.4300010000     0.4256310000     1.4157720000
    7      C       2.1312560000     0.8151610000     1.6541820000
    8      C       1.0412380000     0.4260340000     0.8271940000
    9      C      -0.2946960000     0.8850130000     1.1557370000
   10      O      -0.5319270000     1.6344090000     2.1786030000
   11      C      -1.3355850000     0.4272930000     0.2528780000
   12      C      -2.6936930000     0.8015390000     0.4876580000
   13      C      -3.7212170000     0.4056200000    -0.3435180000
   14      C      -3.4308440000    -0.3969760000    -1.4874390000
   15      C      -2.1309470000    -0.7847810000    -1.7288200000
   16      C      -1.0422150000    -0.4171750000    -0.8892500000
   17      C       0.2936610000    -0.8897360000    -1.2089230000
   18      O       0.5304470000    -1.6518580000    -2.2201220000
   19      C       1.3362520000    -0.4251750000    -0.3108450000
   20      C       2.6932120000    -0.8115770000    -0.5348560000
   21      S      -5.4591970000     0.8622950000    -0.0255440000
   22      O      -5.9124270000     1.6824930000    -1.2013790000
   23      O      -6.2271260000    -0.4274410000     0.0669900000
   24      O      -5.4922980000     1.6385210000     1.2539650000
   25      H       4.2371220000     0.7392790000     2.0704170000
   26      H       1.8864140000     1.4482580000     2.5027580000
   27      H      -2.8995170000     1.4122700000     1.3583570000
   28      H      -4.2312830000    -0.6908290000    -2.1619580000
   29      H      -1.8888530000    -1.3960770000    -2.5943430000
   30      H       2.8961700000    -1.4448080000    -1.3901910000
 ----------------------------------------------------------------

    9   -1936.1396562210      4.76e-06  Convergence criterion met
 Total energy in the final basis set =    -1936.1396562210

                    Orbital Energies (a.u.)
 --------------------------------------------------------------

 Alpha MOs
 -- Occupied --
-89.0352 -89.0351 -19.0820 -19.0815 -19.0796 -19.0795 -19.0793 -19.0793
-19.0260 -19.0256 -10.1826 -10.1820 -10.1783 -10.1782 -10.1601 -10.1595
-10.1571 -10.1566 -10.1525 -10.1521 -10.1464 -10.1463 -10.1431 -10.1427
 -8.0939  -8.0938  -6.0568  -6.0567  -6.0566  -6.0565  -6.0553  -6.0552
 -1.0920  -1.0918  -0.9585  -0.9581  -0.9538  -0.9529  -0.9439  -0.9403
 -0.8361  -0.8310  -0.7645  -0.7344  -0.7312  -0.7208  -0.6490  -0.6444
 -0.6056  -0.6003  -0.5626  -0.5559  -0.5302  -0.5084  -0.5016  -0.4774
 -0.4535  -0.4474  -0.4429  -0.4420  -0.4420  -0.4362  -0.4299  -0.4093
 -0.4071  -0.4019  -0.3858  -0.3807  -0.3785  -0.3661  -0.3518  -0.3421
 -0.3316  -0.3303  -0.3262  -0.3231  -0.3230  -0.3225  -0.3184  -0.3073
 -0.2868  -0.2838  -0.2836  -0.2812  -0.2788  -0.2785  -0.2453  -0.2452
 -0.2408  -0.2318  -0.2283  -0.2195  -0.2084  -0.2018  -0.1127

          Ground-State Mulliken Net Atomic Charges

     Atom                 Charge (a.u.)
  ----------------------------------------
      1 O                    -0.417856
      2 S                     0.828745
      3 O                    -0.415634
      4 O                    -0.454010
      5 C                    -0.859734
      6 C                    -0.637798
      7 C                    -0.230899
      8 C                     0.453268
      9 C                    -0.553228
     10 O                    -0.664589
     11 C                     0.202861
     12 C                     0.174512
     13 C                    -0.849175
     14 C                    -0.645247
     15 C                    -0.221502
     16 C                     0.438969
     17 C                    -0.556690
     18 O                    -0.661606
     19 C                     0.223740
     20 C                     0.188545
     21 S                     0.823739
     22 O                    -0.408958
     23 O                    -0.420618
     24 O                    -0.459957
     25 H                     0.221994
     26 H                     0.148851
     27 H                     0.191520
     28 H                     0.221545
     29 H                     0.149634
     30 H                     0.189573
  ----------------------------------------
  Sum of atomic charges =    -4.000007

                    Cartesian Multipole Moments
 -----------------------------------------------------------------
    Charge (ESU x 10^10)
               -19.2129
    Dipole Moment (Debye)
         X      -0.0383      Y       0.1780      Z       0.0505
       Tot       0.1889
    Quadrupole Moments (Debye-Ang)
        XX    -589.4648     XY      71.2204     YY    -211.9424
        XZ       7.7529     YZ     -21.5828     ZZ    -213.1366

 Total job time:  73.89s(wall), 545.17s(cpu)
        *  Thank you very much for using Q-Chem.  Have a nice day.  *
