 Gaussian 16, Revision A.03,
 Gaussian 16:  ES64L-G16RevA.03 25-Dec-2016

 ----------------------------------------------------------------
 #P UB3LYP/6-311++G(d,p) SCRF=(PCM,Solvent=n,n-DiMethylFormamide)
 ----------------------------------------------------------------

 -------
 Reduced
 -------
 Symbolic Z-matrix:
 Charge = -4 Multiplicity = 1

                         Standard orientation:
 ---------------------------------------------------------------------
 Center     Atomic      Atomic             Coordinates (Angstroms)
 Number     Number       Type             X           Y           Z
 ---------------------------------------------------------------------
      1          8           0        6.104266   -0.479519   -1.243246
      2         16           0        5.527151    0.157465   -0.007806
      3          8           0        6.106255   -0.460197    1.236469
      4          8           0        5.659807    1.647466   -0.019581
      5          6           0        3.747087   -0.239155   -0.004409
      6          6           0        3.374200   -1.616735    0.000246
      7          6           0        2.040751   -1.959002    0.009050
      8          6           0        0.993553   -0.996284    0.013452
      9          6           0       -0.383945   -1.449859    0.022926
     10          8           0       -0.695475   -2.701688    0.023710
     11          6           0       -1.374986   -0.388753    0.020897
     12          6           0       -2.765100   -0.716065    0.011364
     13          6           0       -3.749622    0.250390    0.020961
     14          6           0       -3.381473    1.628982    0.052338
     15          6           0       -2.047216    1.972663    0.046771
     16          6           0       -0.997862    1.011752    0.017566
     17          6           0        0.381771    1.465658   -0.007986
     18          8           0        0.695012    2.715051   -0.025782
     19          6           0        1.373383    0.404549    0.002542
     20          6           0        2.764405    0.729885   -0.004060
     21         16           0       -5.524882   -0.170405   -0.019255
     22          8           0       -6.124317    0.363443    1.252128
     23          8           0       -6.098426    0.522524   -1.224491
     24          8           0       -5.630780   -1.660547   -0.114270
     25          1           0        4.147217   -2.378827   -0.006123
     26          1           0        1.733158   -3.001219    0.012552
     27          1           0       -3.030260   -1.766150   -0.010622
     28          1           0       -4.151275    2.395946    0.086945
     29          1           0       -1.745939    3.016744    0.070226
     30          1           0        3.030379    1.780123   -0.009456
 ---------------------------------------------------------------------

 SCF Done:  E(UB3LYP) =  -1936.12600950     A.U. after   16 cycles

 The electronic state is 1-A.
 Alpha  occ. eigenvalues --  -89.02980 -89.02970 -19.07668 -19.07617 -19.07420
 Alpha  occ. eigenvalues --  -19.07419 -19.07396 -19.07388 -19.02058 -19.02013
 Alpha  occ. eigenvalues --  -10.17815 -10.17754 -10.17458 -10.17456 -10.15661
 Alpha  occ. eigenvalues --  -10.15606 -10.15474 -10.15422 -10.15008 -10.14957
 Alpha  occ. eigenvalues --  -10.14262 -10.14251 -10.13948 -10.13908  -8.08851
 Alpha  occ. eigenvalues --   -8.08843  -6.05140  -6.05130  -6.05123  -6.05115
 Alpha  occ. eigenvalues --   -6.04996  -6.04986  -1.08652  -1.08628  -0.95286
 Alpha  occ. eigenvalues --   -0.95248  -0.94816  -0.94723  -0.93834  -0.93464
 Alpha  occ. eigenvalues --   -0.83261  -0.82769  -0.76070  -0.73092  -0.72804
 Alpha  occ. eigenvalues --   -0.71727  -0.64509  -0.64017  -0.60242  -0.59564
 Alpha  occ. eigenvalues --   -0.55934  -0.55168  -0.52644  -0.50540  -0.49657
 Alpha  occ. eigenvalues --   -0.47245  -0.44917  -0.44308  -0.43962  -0.43629
 Alpha  occ. eigenvalues --   -0.43618  -0.43097  -0.42499  -0.40645  -0.40399
 Alpha  occ. eigenvalues --   -0.39841  -0.38181  -0.37627  -0.37490  -0.36039
 Alpha  occ. eigenvalues --   -0.34842  -0.33791  -0.32847  -0.32516  -0.32097
 Alpha  occ. eigenvalues --   -0.31740  -0.31724  -0.31690  -0.31348  -0.30325
 Alpha  occ. eigenvalues --   -0.28145  -0.27836  -0.27798  -0.27591  -0.27366
 Alpha  occ. eigenvalues --   -0.27329  -0.23941  -0.23930  -0.23765  -0.22810
 Alpha  occ. eigenvalues --   -0.22336  -0.21585  -0.20235  -0.19597  -0.10809
 Alpha virt. eigenvalues --   -0.03148  -0.00776   0.00459   0.01310   0.01551
 Alpha virt. eigenvalues --    0.01972   0.02922   0.03249   0.04808   0.04846
 Alpha virt. eigenvalues --    0.05209   0.05218   0.05309   0.05709   0.06796

  Beta  occ. eigenvalues --  -89.02980 -89.02970 -19.07668 -19.07617 -19.07420
  Beta  occ. eigenvalues --  -19.07419 -19.07396 -19.07388 -19.02058 -19.02013
  Beta  occ. eigenvalues --  -10.17815 -10.17754 -10.17458 -10.17456 -10.15661
  Beta  occ. eigenvalues --  -10.15606 -10.15474 -10.15422 -10.15008 -10.14957
  Beta  occ. eigenvalues --  -10.14262 -10.14251 -10.13948 -10.13908  -8.08851
  Beta  occ. eigenvalues --   -8.08843  -6.05140  -6.05130  -6.05123  -6.05115
  Beta  occ. eigenvalues --   -6.04996  -6.04986  -1.08652  -1.08628  -0.95286
  Beta  occ. eigenvalues --   -0.95248  -0.94816  -0.94723  -0.93834  -0.93464
  Beta  occ. eigenvalues --   -0.83261  -0.82769  -0.76070  -0.73092  -0.72804
  Beta  occ. eigenvalues --   -0.71727  -0.64509  -0.64017  -0.60242  -0.59564
  Beta  occ. eigenvalues --   -0.55934  -0.55168  -0.52644  -0.50540  -0.49657
  Beta  occ. eigenvalues --   -0.47245  -0.44917  -0.44308  -0.43962  -0.43629
  Beta  occ. eigenvalues --   -0.43618  -0.43097  -0.42499  -0.40645  -0.40399
  Beta  occ. eigenvalues --   -0.39841  -0.38181  -0.37627  -0.37490  -0.36039
  Beta  occ. eigenvalues --   -0.34842  -0.33791  -0.32847  -0.32516  -0.32097
  Beta  occ. eigenvalues --   -0.31740  -0.31724  -0.31690  -0.31348  -0.30325
  Beta  occ. eigenvalues --   -0.28145  -0.27836  -0.27798  -0.27591  -0.27366
  Beta  occ. eigenvalues --   -0.27329  -0.23941  -0.23930  -0.23765  -0.22810
  Beta  occ. eigenvalues --   -0.22336  -0.21585  -0.20235  -0.19597  -0.10809
  Beta virt. eigenvalues --   -0.03148  -0.00776   0.00459   0.01310   0.01551
  Beta virt. eigenvalues --    0.01972   0.02922   0.03249   0.04808   0.04846
  Beta virt. eigenvalues --    0.05209   0.05218   0.05309   0.05709   0.06796

 Mulliken charges and spin densities:
               1          2
     1  O   -0.408329   0.000000
     2  S    0.796372   0.000000
     3  O   -0.406325  -0.000000
     4  O   -0.443971  -0.000000
     5  C   -0.847389   0.000000
     6  C   -0.623315  -0.000000
     7  C   -0.243341  -0.000000
     8  C    0.469425   0.000000
     9  C   -0.619052  -0.000000
    10  O   -0.640326   0.000000
    11  C    0.242760   0.000000
    12  C    0.174078   0.000000
    13  C   -0.837561  -0.000000
    14  C   -0.627344   0.000000
    15  C   -0.234309   0.000000
    16  C    0.453508  -0.000000
    17  C   -0.624215   0.000000
    18  O   -0.637270  -0.000000
    19  C    0.260347  -0.000000
    20  C    0.189075   0.000000
    21  S    0.791379   0.000000
    22  O   -0.399595   0.000000
    23  O   -0.410929   0.000000
    24  O   -0.449767  -0.000000
    25  H    0.201310  -0.000000
    26  H    0.144127  -0.000000
    27  H    0.194152  -0.000000
    28  H    0.200542   0.000000
    29  H    0.144559  -0.000000
    30  H    0.191403  -0.000000
 Sum of Mulliken charges =  -4.00000  -0.00000

 Dipole moment (field-independent basis, Debye):
    X=             -0.0551    Y=              0.1470    Z=              0.2065  Tot=              0.2594
 Quadrupole moment (field-independent basis, Debye-Ang):
   XX=           -601.1234   YY=           -229.0504   ZZ=           -185.0758
   XY=            -25.3326   XZ=             -0.4409   YZ=              0.6482

 Normal termination of Gaussian 16 at Tue Jan 16 20:44:20 2024.
