 Q-Chem 5.4, Q-Chem, Inc., Pleasanton, CA (2021)
 Q-Chem 5.4.0 for Intel X86 EM64T Linux

User input:
--------------------------------------------------------------
$molecule
-1 2
C                  0.0663160000      1.7226620000     -0.0000220000
C                 -1.1676360000      0.9135870000     -0.0007870000
C                 -1.1558600000     -0.4481220000      0.0002160000
C                  0.0918990000     -1.2357320000      0.0021110000
C                  1.3150190000     -0.4454630000      0.0028830000
C                  1.3029190000      0.9536700000      0.0018600000
O                  0.0432800000      2.9612790000     -0.0010130000
O                  0.0902880000     -2.4745630000      0.0031010000
C                  2.5151700000      1.6985270000      0.0026380000
C                  2.5399590000     -1.1692620000      0.0047340000
N                  3.5051900000      2.2986270000      0.0032810000
N                  3.5401940000     -1.7521740000      0.0062360000
Cl                -2.6562810000      1.8224170000     -0.0030620000
Cl                -2.6285680000     -1.3825640000     -0.0006870000
$end

$rem
BASIS  =  6-311++G(d,p)
GUI  =  2
JOB_TYPE  =  SP
METHOD  =  B3LYP
SCF_CONVERGENCE  = 8
SOLVENT_METHOD = sm12
$end

$smx
solvent dimethylformamide
charges CM5
$end

--------------------------------------------------------------

             Standard Nuclear Orientation (Angstroms)
    I     Atom           X                Y                Z
 ----------------------------------------------------------------
    1      C       0.0663160000     1.7226620000    -0.0000220000
    2      C      -1.1676360000     0.9135870000    -0.0007870000
    3      C      -1.1558600000    -0.4481220000     0.0002160000
    4      C       0.0918990000    -1.2357320000     0.0021110000
    5      C       1.3150190000    -0.4454630000     0.0028830000
    6      C       1.3029190000     0.9536700000     0.0018600000
    7      O       0.0432800000     2.9612790000    -0.0010130000
    8      O       0.0902880000    -2.4745630000     0.0031010000
    9      C       2.5151700000     1.6985270000     0.0026380000
   10      C       2.5399590000    -1.1692620000     0.0047340000
   11      N       3.5051900000     2.2986270000     0.0032810000
   12      N       3.5401940000    -1.7521740000     0.0062360000
   13      Cl     -2.6562810000     1.8224170000    -0.0030620000
   14      Cl     -2.6285680000    -1.3825640000    -0.0006870000
 ----------------------------------------------------------------

   17   -1485.4425716010      4.83e-09  Convergence criterion met
 Total energy in the final basis set =    -1485.5095488353

                    Orbital Energies (a.u.)
 --------------------------------------------------------------

 Alpha MOs
 -- Occupied --
********-101.5742 -19.1221 -19.1221 -14.3405 -14.3405 -10.2809 -10.2809
-10.2704 -10.2697 -10.2466 -10.2461 -10.2415 -10.2415  -9.4881  -9.4881
 -7.2529  -7.2529  -7.2433  -7.2433  -7.2419  -7.2419  -1.0573  -1.0540
 -0.9447  -0.9373  -0.9247  -0.8721  -0.8701  -0.7806  -0.7571  -0.6702
 -0.6450  -0.5620  -0.5526  -0.5402  -0.4834  -0.4772  -0.4533  -0.4419
 -0.4409  -0.4302  -0.4168  -0.4030  -0.4016  -0.3859  -0.3765  -0.3722
 -0.3665  -0.3503  -0.3427  -0.3208  -0.3164  -0.2884  -0.2829  -0.2777
 -0.2106

 Beta MOs
 -- Occupied --
********-101.5742 -19.1156 -19.1156 -14.3390 -14.3390 -10.2808 -10.2808
-10.2701 -10.2694 -10.2439 -10.2434 -10.2420 -10.2420  -9.4881  -9.4880
 -7.2529  -7.2529  -7.2433  -7.2433  -7.2419  -7.2419  -1.0468  -1.0430
 -0.9420  -0.9350  -0.9230  -0.8695  -0.8659  -0.7788  -0.7475  -0.6666
 -0.6424  -0.5587  -0.5508  -0.5376  -0.4820  -0.4643  -0.4474  -0.4385
 -0.4371  -0.4115  -0.4105  -0.4007  -0.3992  -0.3778  -0.3710  -0.3656
 -0.3629  -0.3458  -0.3423  -0.3204  -0.2885  -0.2821  -0.2767  -0.2718

          Ground-State Mulliken Net Atomic Charges

     Atom                 Charge (a.u.)    Spin (a.u.)
  --------------------------------------------------------
      1 C                    -1.678189      -0.022837
      2 C                     1.507496       0.017192
      3 C                     1.508720       0.017200
      4 C                    -1.677970      -0.022838
      5 C                     2.109429       0.221862
      6 C                     2.109692       0.221866
      7 O                    -0.296353       0.244974
      8 O                    -0.296342       0.244977
      9 C                    -2.411479      -0.031487
     10 C                    -2.411856      -0.031479
     11 N                    -0.456719       0.072324
     12 N                    -0.456650       0.072316
     13 Cl                    0.725065      -0.002032
     14 Cl                    0.725157      -0.002037
  --------------------------------------------------------
  Sum of atomic charges =    -1.000000

                    Cartesian Multipole Moments
 -----------------------------------------------------------------
    Charge (ESU x 10^10)
                -4.8032
    Dipole Moment (Debye)
         X      -8.6827      Y      -1.2412      Z      -0.0140
       Tot       8.7710
    Quadrupole Moments (Debye-Ang)
        XX    -139.1707     XY      -2.1355     YY    -136.2009
        XZ      -0.0589     YZ       0.0285     ZZ     -92.5476

 Total job time:  209.22s(wall), 1348.84s(cpu)
        *  Thank you very much for using Q-Chem.  Have a nice day.  *
