 Gaussian 16, Revision A.03,
 Gaussian 16:  ES64L-G16RevA.03 25-Dec-2016

 ----------------------------------------------------------------------
 #P UB3LYP/genecp nosym opt freq SCRF=(PCM,Solvent=n,n-DiMethylFormamid
 e)
 ----------------------------------------------------------------------

 -------
 Radical
 -------
 Symbolic Z-matrix:
 Charge = -1 Multiplicity = 2

 SCF Done:  E(UB3LYP) =  -976.123653863     A.U. after   20 cycles
 SCF Done:  E(UB3LYP) =  -976.123821637     A.U. after   14 cycles
 SCF Done:  E(UB3LYP) =  -976.123857791     A.U. after   13 cycles
 SCF Done:  E(UB3LYP) =  -976.123857602     A.U. after   11 cycles
 SCF Done:  E(UB3LYP) =  -976.123858128     A.U. after   10 cycles
 Optimization completed.
    -- Stationary point found.
 Normal termination of Gaussian 16 at Sat Feb 10 10:26:37 2024.

 ------------------------------------------------------------------
 #P Geom=AllCheck Guess=TCheck SCRF=Check GenChk UB3LYP/GenECP Freq
 ------------------------------------------------------------------

 Structure from the checkpoint file:  "013-rad.chk"
 -------
 Radical
 -------
 Charge = -1 Multiplicity = 2

                          Input orientation:
 ---------------------------------------------------------------------
 Center     Atomic      Atomic             Coordinates (Angstroms)
 Number     Number       Type             X           Y           Z
 ---------------------------------------------------------------------
      1         53           0       -2.803885   -2.044766    0.005008
      2          6           0       -1.125495   -0.747971    0.000736
      3          6           0       -1.319638    0.603572   -0.016364
      4          6           0       -0.203388    1.525364   -0.019341
      5          8           0       -0.370385    2.779243   -0.035342
      6          6           0        1.115144    0.928377   -0.002696
      7          6           0        1.281755   -0.426725    0.014003
      8         53           0        3.241729   -1.235859    0.037736
      9          6           0        0.184817   -1.386866    0.016942
     10          8           0        0.350696   -2.629680    0.031652
     11          1           0       -2.314190    1.032589   -0.028245
     12          1           0        1.962838    1.602722   -0.004087
 ---------------------------------------------------------------------

 SCF Done:  E(UB3LYP) =  -976.123858128     A.U. after    1 cycles

 Alpha  occ. eigenvalues --  -19.09412 -19.09067 -10.24706 -10.23586 -10.21985
 Alpha  occ. eigenvalues --  -10.21981 -10.18132 -10.18126  -6.84099  -6.84095
 Alpha  occ. eigenvalues --   -4.86507  -4.86503  -4.85414  -4.85410  -4.85351
 Alpha  occ. eigenvalues --   -4.85347  -1.91323  -1.91318  -1.90965  -1.90961
 Alpha  occ. eigenvalues --   -1.90920  -1.90915  -1.89976  -1.89975  -1.89971
 Alpha  occ. eigenvalues --   -1.89970  -1.02071  -1.01023  -0.84738  -0.78055
 Alpha  occ. eigenvalues --   -0.71800  -0.68835  -0.68022  -0.58967  -0.57265
 Alpha  occ. eigenvalues --   -0.49650  -0.48348  -0.43066  -0.42885  -0.41395
 Alpha  occ. eigenvalues --   -0.41284  -0.39054  -0.37487  -0.34671  -0.31550
 Alpha  occ. eigenvalues --   -0.30988  -0.27192  -0.26560  -0.26112  -0.25644
 Alpha  occ. eigenvalues --   -0.24593  -0.24240  -0.17770
 Alpha virt. eigenvalues --   -0.04744  -0.02923  -0.01549   0.00216   0.01273
 Alpha virt. eigenvalues --    0.01904   0.02927   0.05522   0.06093   0.06103
 Alpha virt. eigenvalues --    0.06352   0.08273   0.09647   0.09653   0.11277

  Beta  occ. eigenvalues --  -19.08726 -19.08323 -10.24568 -10.23481 -10.21884
  Beta  occ. eigenvalues --  -10.21880 -10.18002 -10.17997  -6.84099  -6.84095
  Beta  occ. eigenvalues --   -4.86510  -4.86506  -4.85410  -4.85406  -4.85352
  Beta  occ. eigenvalues --   -4.85347  -1.91326  -1.91321  -1.90965  -1.90960
  Beta  occ. eigenvalues --   -1.90923  -1.90918  -1.89973  -1.89972  -1.89968
  Beta  occ. eigenvalues --   -1.89967  -1.00879  -0.99721  -0.84117  -0.77812
  Beta  occ. eigenvalues --   -0.71257  -0.68683  -0.67385  -0.58585  -0.56827
  Beta  occ. eigenvalues --   -0.49420  -0.47904  -0.42354  -0.41267  -0.41030
  Beta  occ. eigenvalues --   -0.40805  -0.37205  -0.36129  -0.34469  -0.31074
  Beta  occ. eigenvalues --   -0.28501  -0.26946  -0.26543  -0.25032  -0.24804
  Beta  occ. eigenvalues --   -0.24145  -0.23791
  Beta virt. eigenvalues --   -0.10553  -0.04613  -0.01478  -0.01465   0.00251
  Beta virt. eigenvalues --    0.01920   0.02980   0.03563   0.05580   0.06106
  Beta virt. eigenvalues --    0.06352   0.06422   0.08466   0.09711   0.09772

 Mulliken charges and spin densities:
               1          2
     1  I   -0.128763  -0.001337
     2  C    1.469036   0.088371
     3  C   -0.432807   0.094787
     4  C   -0.121012   0.107712
     5  O   -0.482844   0.260464
     6  C   -0.433169   0.094678
     7  C    1.469616   0.088348
     8  I   -0.129129  -0.001332
     9  C   -2.208216   0.029884
    10  O   -0.350975   0.252657
    11  H    0.174103  -0.007116
    12  H    0.174160  -0.007115
 Sum of Mulliken charges =  -1.00000   1.00000

 Dipole moment (field-independent basis, Debye):
    X=             -0.1899    Y=              1.4334    Z=             -0.0142  Tot=              1.4460
 Quadrupole moment (field-independent basis, Debye-Ang):
   XX=           -108.2812   YY=           -141.1624   ZZ=           -103.6207
   XY=              4.4743   XZ=             -0.0835   YZ=              0.4619

  Exact polarizability: 291.491  -2.577 310.908   1.128  -2.068 134.217
 Approx polarizability: 294.080 -10.121 369.186   1.099  -2.569 153.806

                      1                      2                      3
                      A                      A                      A
 Frequencies --     67.7851                93.9498               144.9261
 Red. masses --     16.8570                35.9202                11.1610
 Frc consts  --      0.0456                 0.1868                 0.1381
 IR Inten    --      8.1272                 2.9008                10.3822

                      4                      5                      6
                      A                      A                      A
 Frequencies --    167.6276               187.9673               208.8259
 Red. masses --      4.8778                13.3626                19.7533
 Frc consts  --      0.0808                 0.2782                 0.5075
 IR Inten    --      0.0402                 0.4756                 2.6562

                      7                      8                      9
                      A                      A                      A
 Frequencies --    239.3131               326.0962               428.3064
 Red. masses --     15.7981                 6.8073                 8.9036
 Frc consts  --      0.5331                 0.4265                 0.9623
 IR Inten    --      6.9153                 2.7984                37.3889

                     10                     11                     12
                      A                      A                      A
 Frequencies --    451.6861               479.5634               597.8020
 Red. masses --      5.3623                12.8203                 6.5755
 Frc consts  --      0.6446                 1.7372                 1.3845
 IR Inten    --      0.0024                 0.0415                17.7020

                     13                     14                     15
                      A                      A                      A
 Frequencies --    624.6992               681.7598               737.2615
 Red. masses --      3.0537                 9.5836                 9.7378
 Frc consts  --      0.7021                 2.6245                 3.1186
 IR Inten    --      0.0003                99.9125                 7.5652

                     16                     17                     18
                      A                      A                      A
 Frequencies --    812.9821               860.0041               873.3830
 Red. masses --      6.9753                 1.3154                 8.9678
 Frc consts  --      2.7163                 0.5732                 4.0304
 IR Inten    --    117.6401                 0.1467                63.7349

                     19                     20                     21
                      A                      A                      A
 Frequencies --    876.8024               991.5150              1109.0315
 Red. masses --      1.6215                 2.9920                 4.7354
 Frc consts  --      0.7345                 1.7331                 3.4316
 IR Inten    --     61.7122               188.4130                58.4726

                     22                     23                     24
                      A                      A                      A
 Frequencies --   1238.5790              1298.3510              1366.3313
 Red. masses --      1.7211                 1.6280                 5.5681
 Frc consts  --      1.5556                 1.6169                 6.1245
 IR Inten    --      3.4488                 1.0981               205.0930

                     25                     26                     27
                      A                      A                      A
 Frequencies --   1469.1087              1491.4371              1516.1850
 Red. masses --      5.8705                10.6629                10.4483
 Frc consts  --      7.4651                13.9744                14.1514
 IR Inten    --      5.6863               593.1966               681.5020

                     28                     29                     30
                      A                      A                      A
 Frequencies --   1601.0792              3187.1301              3188.2572
 Red. masses --      7.9023                 1.0914                 1.0913
 Frc consts  --     11.9352                 6.5320                 6.5361
 IR Inten    --     65.5300                 2.4326                10.5785

 - Thermochemistry -
 -------------------
 Temperature   298.150 Kelvin.  Pressure   1.00000 Atm.
 Atom     1 has atomic number 53 and mass 126.90040

 Molecular mass:   359.80628 amu.
 Principal axes and moments of inertia in atomic units:
                           1         2         3
     Eigenvalues --  1953.252108719.21835**********
           X            0.99114  -0.13262  -0.00700
           Y            0.13270   0.99109   0.01180
           Z            0.00537  -0.01262   0.99991
 This molecule is an asymmetric top.
 Rotational symmetry number  1.
 Warning -- assumption of classical behavior for rotation
           may cause significant error
 Rotational temperatures (Kelvin)      0.04434     0.00993     0.00812
 Rotational constants (GHZ):           0.92397     0.20698     0.16910
 Zero-point vibrational energy     163396.4 (Joules/Mol)
                                   39.05268 (Kcal/Mol)
 Warning -- explicit consideration of  12 degrees of freedom as
           vibrations may cause significant error
 Vibrational temperatures:     97.53   135.17   208.52   241.18   270.44
          (Kelvin)            300.45   344.32   469.18   616.24   649.88
                              689.98   860.10   898.80   980.90  1060.75
                             1169.70  1237.35  1256.60  1261.52  1426.57
                             1595.65  1782.04  1868.04  1965.85  2113.72
                             2145.85  2181.45  2303.60  4585.57  4587.19

 Zero-point correction=                           0.062234 (Hartree/Particle)
 Thermal correction to Energy=                    0.071576
 Thermal correction to Enthalpy=                  0.072521
 Thermal correction to Gibbs Free Energy=         0.023282
 Sum of electronic and zero-point Energies=           -976.061624
 Sum of electronic and thermal Energies=              -976.052282
 Sum of electronic and thermal Enthalpies=            -976.051338
 Sum of electronic and thermal Free Energies=         -976.100576

                     E (Thermal)             CV                S
                      KCal/Mol        Cal/Mol-Kelvin    Cal/Mol-Kelvin
 Total                   44.915             32.112            103.632
 Electronic               0.000              0.000              1.377
 Translational            0.889              2.981             43.535
 Rotational               0.889              2.981             33.563
 Vibrational             43.137             26.150             25.157
 Vibration     1          0.598              1.970              4.217
 Vibration     2          0.603              1.954              3.576
 Vibration     3          0.616              1.908              2.738
 Vibration     4          0.624              1.882              2.462
 Vibration     5          0.633              1.856              2.248
 Vibration     6          0.642              1.827              2.054
 Vibration     7          0.657              1.780              1.808
 Vibration     8          0.710              1.623              1.279
 Vibration     9          0.790              1.409              0.864
 Vibration    10          0.810              1.357              0.791
 Vibration    11          0.836              1.295              0.711
 Vibration    12          0.956              1.036              0.453

 Optimization completed.
    -- Stationary point found.
 Normal termination of Gaussian 16 at Sat Feb 10 10:37:04 2024.
