 Gaussian 16, Revision A.03,
 Gaussian 16:  ES64L-G16RevA.03 25-Dec-2016

 ----------------------------------------------------------------
 #P UB3LYP/6-311++G(d,p) SCRF=(PCM,Solvent=n,n-DiMethylFormamide)
 ----------------------------------------------------------------

 ------------------
 Radical PCM in DMF
 ------------------
 Symbolic Z-matrix:
 Charge = -1 Multiplicity = 2

                         Standard orientation:
 ---------------------------------------------------------------------
 Center     Atomic      Atomic             Coordinates (Angstroms)
 Number     Number       Type             X           Y           Z
 ---------------------------------------------------------------------
      1         17           0        2.197697   -1.090205    0.000006
      2          6           0        0.604085   -0.304985   -0.000009
      3          6           0       -0.518691   -1.084992   -0.000009
      4          6           0       -1.849926   -0.509948    0.000000
      5          8           0       -2.890375   -1.226230   -0.000002
      6          6           0       -1.893674    0.938360    0.000008
      7          6           0       -0.759606    1.702338    0.000003
      8          6           0        0.583631    1.151211   -0.000004
      9          8           0        1.613214    1.871769   -0.000007
     10          1           0       -0.445900   -2.166469   -0.000012
     11          1           0       -2.878978    1.396440    0.000020
     12          1           0       -0.813601    2.787290    0.000010
 ---------------------------------------------------------------------

 SCF Done:  E(UB3LYP) =  -841.350903796     A.U. after   19 cycles

 The electronic state is 2-A.
 Alpha  occ. eigenvalues -- -101.54964 -19.08713 -19.08503 -10.23435 -10.22919
 Alpha  occ. eigenvalues --  -10.22866 -10.17540 -10.17274 -10.17044  -9.46406
 Alpha  occ. eigenvalues --   -7.22829  -7.21931  -7.21864  -1.01191  -1.00521
 Alpha  occ. eigenvalues --   -0.87075  -0.81578  -0.73940  -0.68963  -0.60667
 Alpha  occ. eigenvalues --   -0.57204  -0.48744  -0.47876  -0.45261  -0.42501
 Alpha  occ. eigenvalues --   -0.42333  -0.41428  -0.39027  -0.38507  -0.37082
 Alpha  occ. eigenvalues --   -0.34712  -0.31386  -0.28747  -0.25830  -0.25324
 Alpha  occ. eigenvalues --   -0.24795  -0.17161
 Alpha virt. eigenvalues --   -0.01912   0.00234   0.00953   0.01693   0.02072
 Alpha virt. eigenvalues --    0.02456   0.04927   0.05478   0.05581   0.06308
 Alpha virt. eigenvalues --    0.08256   0.08524   0.08742   0.09107   0.11040

  Beta  occ. eigenvalues -- -101.54961 -19.08010 -19.07781 -10.23298 -10.22803
  Beta  occ. eigenvalues --  -10.22741 -10.17418 -10.17185 -10.16928  -9.46404
  Beta  occ. eigenvalues --   -7.22834  -7.21915  -7.21864  -0.99975  -0.99251
  Beta  occ. eigenvalues --   -0.86797  -0.81107  -0.73654  -0.67896  -0.60233
  Beta  occ. eigenvalues --   -0.56781  -0.48517  -0.47420  -0.44921  -0.42407
  Beta  occ. eigenvalues --   -0.40755  -0.40588  -0.38564  -0.36855  -0.35775
  Beta  occ. eigenvalues --   -0.33704  -0.31340  -0.25670  -0.24924  -0.24663
  Beta  occ. eigenvalues --   -0.24139
  Beta virt. eigenvalues --   -0.09861  -0.00465   0.00269   0.01037   0.01718
  Beta virt. eigenvalues --    0.02507   0.04195   0.04982   0.05527   0.05989
  Beta virt. eigenvalues --    0.06382   0.08387   0.08701   0.08789   0.09131

 Mulliken charges and spin densities:
               1          2
     1  Cl   0.165955   0.004501
     2  C    1.089270   0.084278
     3  C   -0.441134   0.072541
     4  C   -0.587464   0.112394
     5  O   -0.496414   0.251170
     6  C    0.060752   0.082228
     7  C   -0.039867   0.075608
     8  C   -0.883207   0.087224
     9  O   -0.452701   0.249705
    10  H    0.193546  -0.007425
    11  H    0.193963  -0.006403
    12  H    0.197301  -0.005822
 Sum of Mulliken charges =  -1.00000   1.00000

 Dipole moment (field-independent basis, Debye):
    X=              0.7923    Y=             -0.2974    Z=              0.0000  Tot=              0.8463
 Quadrupole moment (field-independent basis, Debye-Ang):
   XX=            -93.1624   YY=            -72.1390   ZZ=            -62.3399
   XY=            -17.4054   XZ=             -0.0000   YZ=              0.0001

 Normal termination of Gaussian 16 at Sun Jan 21 07:06:31 2024.
