 Gaussian 16, Revision A.03,
 Gaussian 16:  ES64L-G16RevA.03 25-Dec-2016

 ----------------------------------------------------------------
 #P UB3LYP/6-311++G(d,p) SCRF=(PCM,Solvent=n,n-DiMethylFormamide)
 ----------------------------------------------------------------

 ------------------
 Radical PCM in DMF
 ------------------
 Symbolic Z-matrix:
 Charge = -1 Multiplicity = 2

                         Standard orientation:
 ---------------------------------------------------------------------
 Center     Atomic      Atomic             Coordinates (Angstroms)
 Number     Number       Type             X           Y           Z
 ---------------------------------------------------------------------
      1          6           0       -5.873568    0.391152    0.018907
      2          6           0       -6.658812   -0.739662   -0.105722
      3          6           0       -6.055012   -2.006343   -0.239277
      4          6           0       -4.464928    0.296515    0.014636
      5          6           0       -3.852739   -0.981245   -0.120032
      6          6           0       -4.673875   -2.115670   -0.245260
      7          6           0       -3.641457    1.477899    0.145525
      8          6           0       -2.209801    1.281807    0.132525
      9          6           0       -1.577740    0.060517    0.002339
     10          6           0       -2.382240   -1.140793   -0.130243
     11          8           0       -4.080415    2.668479    0.271618
     12          8           0       -1.868189   -2.283455   -0.249812
     13          8           0       -1.513180    2.449889    0.262418
     14          6           0       -0.070832   -0.085648   -0.000024
     15          6           0        0.611391    0.634712   -1.197693
     16          6           0        0.601641    0.354456    1.315346
     17          6           0        2.086309   -0.072303    1.352887
     18          6           0        2.783442   -0.040990   -0.037326
     19          6           0        2.082580    1.011839   -0.914167
     20          6           0        4.315458    0.156161    0.087142
     21          6           0        5.042034    0.140618   -1.274025
     22          6           0        4.959901   -0.895936    1.015030
     23          6           0        6.479019   -0.720714    1.156405
     24          6           0        7.181796   -0.726620   -0.206292
     25          6           0        6.562324    0.318472   -1.141695
     26          1           0       -6.313833    1.376414    0.123021
     27          1           0       -7.741573   -0.653093   -0.100792
     28          1           0       -6.672390   -2.894338   -0.337090
     29          1           0       -4.183153   -3.076937   -0.346375
     30          1           0       -2.240760    3.109635    0.329473
     31          1           0        0.103952   -1.160093   -0.106002
     32          1           0        0.057412    1.540625   -1.451437
     33          1           0        0.562930   -0.025067   -2.071450
     34          1           0        0.072487   -0.086769    2.165192
     35          1           0        0.509661    1.438444    1.423217
     36          1           0        2.161357   -1.081420    1.770850
     37          1           0        2.630264    0.588467    2.041604
     38          1           0        2.627269   -1.018586   -0.516881
     39          1           0        2.602059    1.150611   -1.866247
     40          1           0        2.125210    1.979948   -0.397933
     41          1           0        4.481876    1.146420    0.541978
     42          1           0        4.646665    0.922442   -1.926624
     43          1           0        4.832029   -0.815791   -1.773647
     44          1           0        4.748326   -1.895636    0.609416
     45          1           0        4.497760   -0.861786    2.004404
     46          1           0        6.888736   -1.508338    1.799385
     47          1           0        6.686079    0.231853    1.662874
     48          1           0        7.080745   -1.721833   -0.659849
     49          1           0        8.256301   -0.545364   -0.085984
     50          1           0        7.031923    0.269621   -2.131018
     51          1           0        6.773589    1.321931   -0.747805
 ---------------------------------------------------------------------

 SCF Done:  E(UB3LYP) =  -1080.13126907     A.U. after   19 cycles

 The electronic state is 2-A.
 Alpha  occ. eigenvalues --  -19.13984 -19.08488 -19.07294 -10.22268 -10.21968
 Alpha  occ. eigenvalues --  -10.21917 -10.17357 -10.17244 -10.17156 -10.17122
 Alpha  occ. eigenvalues --  -10.17047 -10.16882 -10.16240 -10.16104 -10.16055
 Alpha  occ. eigenvalues --  -10.15871 -10.15735 -10.15709 -10.15671 -10.15449
 Alpha  occ. eigenvalues --  -10.15418 -10.15351 -10.15235 -10.15158 -10.15067
 Alpha  occ. eigenvalues --   -1.06078  -0.99907  -0.99420  -0.85786  -0.83781
 Alpha  occ. eigenvalues --   -0.81972  -0.79743  -0.76393  -0.75028  -0.73610
 Alpha  occ. eigenvalues --   -0.73452  -0.72562  -0.70056  -0.66878  -0.62910
 Alpha  occ. eigenvalues --   -0.61601  -0.61344  -0.59691  -0.59097  -0.57308
 Alpha  occ. eigenvalues --   -0.56804  -0.54695  -0.53834  -0.51782  -0.50409
 Alpha  occ. eigenvalues --   -0.48247  -0.47581  -0.47294  -0.45620  -0.45024
 Alpha  occ. eigenvalues --   -0.43850  -0.43474  -0.43390  -0.42920  -0.42598
 Alpha  occ. eigenvalues --   -0.42133  -0.41555  -0.41255  -0.39979  -0.38875
 Alpha  occ. eigenvalues --   -0.38581  -0.38448  -0.37961  -0.37507  -0.36962
 Alpha  occ. eigenvalues --   -0.36831  -0.35797  -0.35275  -0.34730  -0.34560
 Alpha  occ. eigenvalues --   -0.34233  -0.33692  -0.33548  -0.33342  -0.32505
 Alpha  occ. eigenvalues --   -0.31375  -0.30756  -0.30547  -0.28801  -0.28307
 Alpha  occ. eigenvalues --   -0.27722  -0.26590  -0.25944  -0.25718  -0.23685
 Alpha  occ. eigenvalues --   -0.22515  -0.14973
 Alpha virt. eigenvalues --   -0.03207  -0.00802  -0.00587  -0.00117   0.00273
 Alpha virt. eigenvalues --    0.00713   0.00955   0.01398   0.02117   0.02428
 Alpha virt. eigenvalues --    0.02491   0.03239   0.03528   0.03766   0.04049

  Beta  occ. eigenvalues --  -19.13936 -19.07868 -19.06753 -10.22136 -10.21867
  Beta  occ. eigenvalues --  -10.21631 -10.17342 -10.17241 -10.17046 -10.17032
  Beta  occ. eigenvalues --  -10.16996 -10.16909 -10.16240 -10.16104 -10.15976
  Beta  occ. eigenvalues --  -10.15878 -10.15735 -10.15709 -10.15671 -10.15449
  Beta  occ. eigenvalues --  -10.15418 -10.15350 -10.15234 -10.15151 -10.15060
  Beta  occ. eigenvalues --   -1.05853  -0.98964  -0.98377  -0.85552  -0.83768
  Beta  occ. eigenvalues --   -0.81894  -0.79440  -0.76259  -0.74813  -0.73609
  Beta  occ. eigenvalues --   -0.73350  -0.72555  -0.69907  -0.66070  -0.62793
  Beta  occ. eigenvalues --   -0.61469  -0.61290  -0.59527  -0.59090  -0.57209
  Beta  occ. eigenvalues --   -0.56593  -0.54694  -0.53693  -0.51702  -0.50206
  Beta  occ. eigenvalues --   -0.48113  -0.47555  -0.47091  -0.45508  -0.44969
  Beta  occ. eigenvalues --   -0.43823  -0.43417  -0.43060  -0.42533  -0.42141
  Beta  occ. eigenvalues --   -0.41951  -0.41348  -0.40832  -0.39754  -0.38626
  Beta  occ. eigenvalues --   -0.38340  -0.37845  -0.37584  -0.37390  -0.36887
  Beta  occ. eigenvalues --   -0.36182  -0.35676  -0.34773  -0.34513  -0.34327
  Beta  occ. eigenvalues --   -0.33861  -0.33559  -0.33293  -0.32506  -0.32379
  Beta  occ. eigenvalues --   -0.31329  -0.30732  -0.30490  -0.28765  -0.28287
  Beta  occ. eigenvalues --   -0.27681  -0.25396  -0.25012  -0.24684  -0.23193
  Beta  occ. eigenvalues --   -0.21607
  Beta virt. eigenvalues --   -0.08442  -0.02463  -0.00572  -0.00107   0.00230
  Beta virt. eigenvalues --    0.00334   0.00716   0.00962   0.01411   0.02124
  Beta virt. eigenvalues --    0.02450   0.02497   0.03246   0.03534   0.03771

 Mulliken charges and spin densities:
               1          2
     1  C    0.027164   0.076243
     2  C   -0.409383   0.001826
     3  C   -0.504213   0.072272
     4  C    0.454601   0.001053
     5  C    0.273038   0.052849
     6  C    0.009332  -0.002057
     7  C   -0.621141   0.180857
     8  C   -0.340414   0.045588
     9  C    0.709596   0.060050
    10  C   -0.491791   0.082306
    11  O   -0.519141   0.227590
    12  O   -0.454548   0.200884
    13  O   -0.252473   0.016504
    14  C    0.823887   0.004938
    15  C   -0.894500  -0.010244
    16  C   -1.155772  -0.002864
    17  C   -0.327327   0.001665
    18  C    0.516367  -0.000187
    19  C   -0.608435   0.004831
    20  C    0.148650  -0.000055
    21  C   -0.313278  -0.000008
    22  C   -0.250149  -0.000169
    23  C   -0.375734  -0.000197
    24  C   -0.405376   0.000005
    25  C   -0.478429   0.000093
    26  H    0.166238  -0.003993
    27  H    0.178820  -0.000488
    28  H    0.182457  -0.005429
    29  H    0.169748   0.000035
    30  H    0.294175  -0.004000
    31  H    0.257631  -0.002181
    32  H    0.188106   0.001634
    33  H    0.174858  -0.000753
    34  H    0.187563  -0.000260
    35  H    0.180171   0.001865
    36  H    0.141568   0.000028
    37  H    0.164416   0.000047
    38  H    0.159841   0.000060
    39  H    0.131085  -0.000024
    40  H    0.170048  -0.000072
    41  H    0.158332  -0.000016
    42  H    0.135527  -0.000174
    43  H    0.163280  -0.000013
    44  H    0.165722  -0.000004
    45  H    0.159382  -0.000027
    46  H    0.170934   0.000011
    47  H    0.139676  -0.000020
    48  H    0.122462  -0.000001
    49  H    0.172742   0.000000
    50  H    0.171282  -0.000002
    51  H    0.133401   0.000003
 Sum of Mulliken charges =  -1.00000   1.00000

 Dipole moment (field-independent basis, Debye):
    X=             13.1143    Y=             -0.7603    Z=             -0.0197  Tot=             13.1363
 Quadrupole moment (field-independent basis, Debye-Ang):
   XX=           -201.2676   YY=           -182.2985   ZZ=           -159.0942
   XY=             12.6711   XZ=              1.0772   YZ=             -2.2705

 Normal termination of Gaussian 16 at Thu Jan 25 05:58:41 2024.
