 Gaussian 16, Revision A.03,
 Gaussian 16:  ES64L-G16RevA.03 25-Dec-2016

 --------------------------------------
 #P UB3LYP/6-311++G(d,p) nosym opt freq
 --------------------------------------

 -------
 Reduced
 -------
 Symbolic Z-matrix:
 Charge = -2 Multiplicity = 1

 SCF Done:  E(UB3LYP) =  -727.175090913     A.U. after   86 cycles
 SCF Done:  E(UB3LYP) =  -727.216716617     A.U. after   32 cycles
 SCF Done:  E(UB3LYP) =  -727.224040670     A.U. after   31 cycles
 SCF Done:  E(UB3LYP) =  -727.224931440     A.U. after   27 cycles
 SCF Done:  E(UB3LYP) =  -727.225056964     A.U. after   24 cycles
 SCF Done:  E(UB3LYP) =  -727.225070943     A.U. after   25 cycles
 SCF Done:  E(UB3LYP) =  -727.225075560     A.U. after   24 cycles
 SCF Done:  E(UB3LYP) =  -727.225075777     A.U. after   25 cycles
 Optimization completed.
    -- Stationary point found.
 Normal termination of Gaussian 16 at Wed Dec 20 02:42:52 2023.

 ----------------------------------------------------------------------
 #P Geom=AllCheck Guess=TCheck SCRF=Check GenChk UB3LYP/6-311++G(d,p) F
 req
 ----------------------------------------------------------------------

 Structure from the checkpoint file:  "065-an.chk"
 -------
 Reduced
 -------
 Charge = -2 Multiplicity = 1

                          Input orientation:
 ---------------------------------------------------------------------
 Center     Atomic      Atomic             Coordinates (Angstroms)
 Number     Number       Type             X           Y           Z
 ---------------------------------------------------------------------
      1          6           0       -1.353349   -2.039711    1.175213
      2          6           0       -1.425913   -1.995934   -0.255653
      3          6           0       -0.791829   -1.023434   -1.014421
      4          6           0       -0.002462    0.031693   -0.433365
      5          6           0        0.071881   -0.012925    1.006482
      6          6           0       -0.561383   -0.984209    1.767423
      7          8           0       -1.936401   -2.934938    1.898836
      8          8           0        0.586982    0.931731   -1.136724
      9          6           0       -0.500567   -1.049283    3.268125
     10          8           0        0.281222    0.033472    3.822521
     11          6           0        0.412053    0.122112    5.161401
     12          6           0       -0.167727   -0.758849    6.089132
     13          6           0        1.195412    1.189064    5.640041
     14          6           0        1.390476    1.368305    7.003156
     15          6           0        0.043753   -0.565853    7.457369
     16          6           0        0.817105    0.490627    7.928669
     17          1           0       -2.016020   -2.775376   -0.736772
     18          1           0       -0.875811   -1.030265   -2.100637
     19          1           0        0.658763    0.760279    1.492759
     20          1           0       -0.066860   -2.004612    3.591312
     21          1           0       -1.515156   -1.011351    3.687473
     22          1           0       -0.778002   -1.584320    5.748998
     23          1           0        1.636547    1.861841    4.912980
     24          1           0        1.996316    2.200983    7.353298
     25          1           0       -0.410833   -1.256428    8.163697
     26          1           0        0.971732    0.632672    8.994957
 ---------------------------------------------------------------------

 SCF Done:  E(UB3LYP) =  -727.225075777     A.U. after    5 cycles

 Alpha  occ. eigenvalues --  -18.95311 -18.80613 -18.79976 -10.05160 -10.00795
 Alpha  occ. eigenvalues --   -9.99892  -9.99845  -9.99007  -9.98990  -9.98878
 Alpha  occ. eigenvalues --   -9.95842  -9.95643  -9.92431  -9.91297  -9.91132
 Alpha  occ. eigenvalues --   -9.90860  -0.86964  -0.71824  -0.71076  -0.67202
 Alpha  occ. eigenvalues --   -0.58193  -0.56965  -0.55705  -0.51851  -0.46641
 Alpha  occ. eigenvalues --   -0.43245  -0.42357  -0.40217  -0.35770  -0.33437
 Alpha  occ. eigenvalues --   -0.31439  -0.29557  -0.28349  -0.26531  -0.26322
 Alpha  occ. eigenvalues --   -0.24470  -0.21577  -0.20871  -0.19732  -0.19469
 Alpha  occ. eigenvalues --   -0.18658  -0.18316  -0.16231  -0.14386  -0.13511
 Alpha  occ. eigenvalues --   -0.13230  -0.12298  -0.10731  -0.10246  -0.08901
 Alpha  occ. eigenvalues --   -0.07896  -0.03797  -0.00402   0.00020   0.02213
 Alpha  occ. eigenvalues --    0.02924   0.11277
 Alpha virt. eigenvalues --    0.12317   0.14048   0.15623   0.16261   0.17535
 Alpha virt. eigenvalues --    0.17855   0.18526   0.18919   0.19580   0.20577
 Alpha virt. eigenvalues --    0.21700   0.22335   0.22965   0.23575   0.24018

  Beta  occ. eigenvalues --  -18.95311 -18.80613 -18.79976 -10.05160 -10.00795
  Beta  occ. eigenvalues --   -9.99892  -9.99845  -9.99007  -9.98990  -9.98878
  Beta  occ. eigenvalues --   -9.95842  -9.95643  -9.92431  -9.91297  -9.91132
  Beta  occ. eigenvalues --   -9.90860  -0.86964  -0.71824  -0.71076  -0.67202
  Beta  occ. eigenvalues --   -0.58193  -0.56965  -0.55705  -0.51851  -0.46641
  Beta  occ. eigenvalues --   -0.43245  -0.42357  -0.40217  -0.35770  -0.33437
  Beta  occ. eigenvalues --   -0.31439  -0.29557  -0.28349  -0.26531  -0.26322
  Beta  occ. eigenvalues --   -0.24470  -0.21577  -0.20871  -0.19732  -0.19469
  Beta  occ. eigenvalues --   -0.18658  -0.18316  -0.16231  -0.14386  -0.13511
  Beta  occ. eigenvalues --   -0.13230  -0.12298  -0.10731  -0.10246  -0.08901
  Beta  occ. eigenvalues --   -0.07896  -0.03797  -0.00402   0.00020   0.02213
  Beta  occ. eigenvalues --    0.02924   0.11277
  Beta virt. eigenvalues --    0.12317   0.14048   0.15623   0.16261   0.17535
  Beta virt. eigenvalues --    0.17855   0.18526   0.18919   0.19580   0.20577
  Beta virt. eigenvalues --    0.21700   0.22335   0.22965   0.23575   0.24018

 Mulliken charges and spin densities:
               1          2
     1  C   -1.270076   0.000000
     2  C    0.261758   0.000000
     3  C    0.207422   0.000000
     4  C   -0.847510   0.000000
     5  C   -0.182546   0.000000
     6  C    0.683494   0.000000
     7  O   -0.510259   0.000000
     8  O   -0.514798   0.000000
     9  C    0.182626   0.000000
    10  O   -0.073977   0.000000
    11  C    0.581139   0.000000
    12  C    0.594331   0.000000
    13  C   -1.602972  -0.000000
    14  C    0.618494   0.000000
    15  C   -0.741543  -0.000000
    16  C    1.937646   0.000000
    17  H    0.088203   0.000000
    18  H    0.091733   0.000000
    19  H    0.121599  -0.000000
    20  H    0.203799   0.000000
    21  H    0.142623  -0.000000
    22  H    0.308747   0.000000
    23  H    0.199884   0.000000
    24  H   -0.641250  -0.000000
    25  H   -0.423298  -0.000000
    26  H   -1.415272  -0.000000
 Sum of Mulliken charges =  -2.00000  -0.00000

 Dipole moment (field-independent basis, Debye):
    X=              0.7670    Y=              3.2195    Z=            -28.3040  Tot=             28.4968
 Quadrupole moment (field-independent basis, Debye-Ang):
   XX=           -130.7339   YY=           -146.3420   ZZ=           -371.5232
   XY=            -23.3682   XZ=            -18.9538   YZ=             -7.0788

  Exact polarizability: 653.960 664.4191092.015 171.428  77.8392151.511
 Approx polarizability:1501.0021464.0881939.9154567.7174741.093********

                      1                      2                      3
                      A                      A                      A
 Frequencies --      6.6018                43.3830                65.6069
 Red. masses --      4.1947                 5.2851                 6.4437
 Frc consts  --      0.0001                 0.0059                 0.0163
 IR Inten    --      0.0829                10.5622                 0.5659

                      4                      5                      6
                      A                      A                      A
 Frequencies --    109.9985               146.1103               180.2983
 Red. masses --      4.8933                 6.7276                 7.0271
 Frc consts  --      0.0349                 0.0846                 0.1346
 IR Inten    --      7.6229                 7.7442                 0.6877

                      7                      8                      9
                      A                      A                      A
 Frequencies --    210.9740               229.8524               245.7623
 Red. masses --      2.7945                 7.4317                 4.1715
 Frc consts  --      0.0733                 0.2313                 0.1484
 IR Inten    --     14.9746                 6.5651                 5.4479

                     10                     11                     12
                      A                      A                      A
 Frequencies --    328.4783               391.6202               426.2127
 Red. masses --      6.5303                 9.9129                 3.1327
 Frc consts  --      0.4151                 0.8957                 0.3353
 IR Inten    --      0.2137                 0.9995                 0.2838

                     13                     14                     15
                      A                      A                      A
 Frequencies --    430.1289               446.7444               461.5120
 Red. masses --      3.1134                 5.4794                10.8866
 Frc consts  --      0.3394                 0.6443                 1.3662
 IR Inten    --      3.1708                13.7089               832.6346

                     16                     17                     18
                      A                      A                      A
 Frequencies --    519.9572               522.8577               582.7869
 Red. masses --      2.6001                 6.1971                 2.0661
 Frc consts  --      0.4142                 0.9982                 0.4134
 IR Inten    --      1.2641                61.5007                10.9349

                     19                     20                     21
                      A                      A                      A
 Frequencies --    590.0482               620.8973               629.1411
 Red. masses --      5.3530                 6.2874                 6.4787
 Frc consts  --      1.0980                 1.4281                 1.5109
 IR Inten    --      4.8002                20.1877                51.4205

                     22                     23                     24
                      A                      A                      A
 Frequencies --    704.6654               729.5490               750.6432
 Red. masses --      2.6830                 3.7321                 5.9425
 Frc consts  --      0.7850                 1.1703                 1.9728
 IR Inten    --      5.0143                 0.0427                14.0099

                     25                     26                     27
                      A                      A                      A
 Frequencies --    791.9082               807.9289               817.0085
 Red. masses --      1.7065                 6.0365                 1.4399
 Frc consts  --      0.6305                 2.3216                 0.5663
 IR Inten    --     22.1723                36.5032                26.7304

                     28                     29                     30
                      A                      A                      A
 Frequencies --    844.0331               854.0632               857.8330
 Red. masses --      1.5784                 6.3814                 1.6230
 Frc consts  --      0.6625                 2.7425                 0.7037
 IR Inten    --     29.4177                 7.0319                35.2800

                     31                     32                     33
                      A                      A                      A
 Frequencies --    887.4291               941.0792               946.1645
 Red. masses --      1.2883                 1.2480                 2.6263
 Frc consts  --      0.5978                 0.6512                 1.3853
 IR Inten    --      0.9413               704.3425                68.8687

                     34                     35                     36
                      A                      A                      A
 Frequencies --    975.7816               986.1280               991.0150
 Red. masses --      1.3365                 1.2482                 7.4126
 Frc consts  --      0.7498                 0.7152                 4.2892
 IR Inten    --      2.0182                 1.0178               125.3602

                     37                     38                     39
                      A                      A                      A
 Frequencies --   1006.4746              1027.6259              1041.8857
 Red. masses --      6.1225                 1.6893                 2.0533
 Frc consts  --      3.6542                 1.0510                 1.3133
 IR Inten    --     33.4096                27.6892                 8.5761

                     40                     41                     42
                      A                      A                      A
 Frequencies --   1085.1571              1095.8371              1141.7773
 Red. masses --      1.6886                 1.5089                 2.2381
 Frc consts  --      1.1716                 1.0676                 1.7191
 IR Inten    --    449.7356               113.6299               212.0303

                     43                     44                     45
                      A                      A                      A
 Frequencies --   1168.4579              1185.4902              1200.0390
 Red. masses --      1.0987                 1.1656                 3.8846
 Frc consts  --      0.8838                 0.9651                 3.2960
 IR Inten    --    215.8090               102.5652               190.0191

                     46                     47                     48
                      A                      A                      A
 Frequencies --   1227.8825              1234.8938              1271.9730
 Red. masses --      1.0660                 1.4888                 3.8101
 Frc consts  --      0.9469                 1.3377                 3.6320
 IR Inten    --      6.4644               262.5988               178.2866

                     49                     50                     51
                      A                      A                      A
 Frequencies --   1312.4546              1325.0197              1354.5780
 Red. masses --      2.1454                 2.6607                 2.0073
 Frc consts  --      2.1773                 2.7522                 2.1700
 IR Inten    --    100.9001                51.0869                36.7843

                     52                     53                     54
                      A                      A                      A
 Frequencies --   1386.0456              1390.2350              1444.2117
 Red. masses --      1.7771                 9.8045                 4.7709
 Frc consts  --      2.0115                11.1648                 5.8629
 IR Inten    --     45.4113              2078.6272               301.1359

                     55                     56                     57
                      A                      A                      A
 Frequencies --   1470.8466              1479.3370              1493.3688
 Red. masses --      2.3765                 2.3398                 4.2467
 Frc consts  --      3.0292                 3.0169                 5.5800
 IR Inten    --    172.2111                20.7011               427.8969

                     58                     59                     60
                      A                      A                      A
 Frequencies --   1494.1202              1520.1092              1603.1908
 Red. masses --      1.4667                 2.2521                 6.1147
 Frc consts  --      1.9292                 3.0661                 9.2596
 IR Inten    --    403.7902               179.9631              4242.4328

                     61                     62                     63
                      A                      A                      A
 Frequencies --   1607.3105              1632.3269              2977.5364
 Red. masses --      5.8072                 5.6214                 1.0557
 Frc consts  --      8.8393                 8.8249                 5.5143
 IR Inten    --    148.7939                76.6670                82.4138

                     64                     65                     66
                      A                      A                      A
 Frequencies --   3001.4707              3089.4012              3115.7241
 Red. masses --      1.1060                 1.0836                 1.0926
 Frc consts  --      5.8704                 6.0935                 6.2492
 IR Inten    --     69.9033                43.0785               697.0109

                     67                     68                     69
                      A                      A                      A
 Frequencies --   3121.3096              3130.2326              3142.8554
 Red. masses --      1.0858                 1.0896                 1.0952
 Frc consts  --      6.2328                 6.2904                 6.3734
 IR Inten    --     47.8522               445.0272               145.2788

                     70                     71                     72
                      A                      A                      A
 Frequencies --   3153.8620              3174.5684              3204.4500
 Red. masses --      1.0878                 1.0919                 1.0909
 Frc consts  --      6.3751                 6.4832                 6.5997
 IR Inten    --     70.6540                16.8150                 1.3626

 - Thermochemistry -
 -------------------
 Temperature   298.150 Kelvin.  Pressure   1.00000 Atm.
 Atom     1 has atomic number  6 and mass  12.00000

 Molecular mass:   214.06299 amu.
 Principal axes and moments of inertia in atomic units:
                           1         2         3
     Eigenvalues --  1447.486057480.216118916.33856
           X            0.18097   0.54761   0.81693
           Y            0.17410   0.79969  -0.57462
           Z            0.96796  -0.24622  -0.04938
 This molecule is an asymmetric top.
 Rotational symmetry number  1.
 Warning -- assumption of classical behavior for rotation
           may cause significant error
 Rotational temperatures (Kelvin)      0.05984     0.01158     0.00971
 Rotational constants (GHZ):           1.24681     0.24127     0.20241
 Zero-point vibrational energy     510723.3 (Joules/Mol)
                                  122.06579 (Kcal/Mol)
 Warning -- explicit consideration of  19 degrees of freedom as
           vibrations may cause significant error
 Vibrational temperatures:      9.50    62.42    94.39   158.26   210.22
          (Kelvin)            259.41   303.54   330.71   353.60   472.61
                              563.45   613.23   618.86   642.77   664.01
                              748.10   752.28   838.50   848.95   893.33
                              905.19  1013.86  1049.66  1080.01  1139.38
                             1162.43  1175.49  1214.38  1228.81  1234.23
                             1276.81  1354.00  1361.32  1403.93  1418.82
                             1425.85  1448.09  1478.52  1499.04  1561.30
                             1576.67  1642.76  1681.15  1705.66  1726.59
                             1766.65  1776.74  1830.09  1888.33  1906.41
                             1948.94  1994.21  2000.24  2077.90  2116.22
                             2128.44  2148.62  2149.71  2187.10  2306.63
                             2312.56  2348.55  4284.01  4318.45  4444.96
                             4482.83  4490.87  4503.71  4521.87  4537.70
                             4567.50  4610.49

 Zero-point correction=                           0.194524 (Hartree/Particle)
 Thermal correction to Energy=                    0.207634
 Thermal correction to Enthalpy=                  0.208579
 Thermal correction to Gibbs Free Energy=         0.151959
 Sum of electronic and zero-point Energies=           -727.030552
 Sum of electronic and thermal Energies=              -727.017441
 Sum of electronic and thermal Enthalpies=            -727.016497
 Sum of electronic and thermal Free Energies=         -727.073117

                     E (Thermal)             CV                S
                      KCal/Mol        Cal/Mol-Kelvin    Cal/Mol-Kelvin
 Total                  130.293             50.969            119.166
 Electronic               0.000              0.000              0.000
 Translational            0.889              2.981             41.987
 Rotational               0.889              2.981             32.934
 Vibrational            128.515             45.008             44.245
 Vibration     1          0.593              1.987              8.836
 Vibration     2          0.595              1.980              5.098
 Vibration     3          0.597              1.971              4.281
 Vibration     4          0.606              1.941              3.269
 Vibration     5          0.617              1.907              2.722
 Vibration     6          0.629              1.866              2.325
 Vibration     7          0.643              1.824              2.035
 Vibration     8          0.652              1.795              1.880
 Vibration     9          0.660              1.770              1.761
 Vibration    10          0.712              1.619              1.268
 Vibration    11          0.759              1.488              0.994
 Vibration    12          0.788              1.413              0.871
 Vibration    13          0.791              1.405              0.858
 Vibration    14          0.806              1.368              0.806
 Vibration    15          0.819              1.335              0.762
 Vibration    16          0.875              1.206              0.610
 Vibration    17          0.878              1.199              0.603
 Vibration    18          0.940              1.069              0.480
 Vibration    19          0.947              1.053              0.467

                           ! Non-Optimized Parameters !
 Normal termination of Gaussian 16 at Wed Dec 20 03:35:04 2023.
