 Q-Chem 5.4, Q-Chem, Inc., Pleasanton, CA (2021)
 Q-Chem 5.4.0 for Intel X86 EM64T Linux

User input:
--------------------------------------------------------------
$molecule
0 1
C                 -3.2616290000      3.6623860000      0.0827750000
C                 -4.5063210000      3.0250390000      0.0878230000
C                 -4.5717330000      1.6241390000      0.0641930000
C                 -2.0916170000      2.9137040000      0.0544360000
C                 -2.1481150000      1.5046890000      0.0305400000
C                 -3.3969530000      0.8819010000      0.0359050000
C                 -0.7817220000      3.6341170000      0.0499280000
C                  0.4570130000      2.7977970000      0.0194820000
C                  0.3846150000      1.3895040000     -0.0041560000
C                 -0.9171240000      0.6732790000      0.0000700000
C                  1.6905290000      3.4370710000      0.0147960000
C                  2.8718480000      2.6892780000     -0.0134550000
C                  2.8090740000      1.2882570000     -0.0371240000
C                  1.5713970000      0.6558470000     -0.0322410000
O                 -0.7260940000      4.8517410000      0.0706470000
O                 -0.9729810000     -0.5495080000     -0.0204350000
H                 -3.4314460000     -0.2005770000      0.0174660000
H                  1.5068550000     -0.4252580000     -0.0502980000
H                 -3.2090260000      4.7434240000      0.1009670000
H                  1.7369000000      4.5183960000      0.0330690000
O                  4.0243550000      3.4050050000     -0.0158350000
C                  5.2684050000      2.7115550000     -0.0429010000
O                 -5.5886780000      3.8425090000      0.1162810000
H                  3.7106200000      0.6910600000     -0.0591830000
H                  6.0352620000      3.4836680000     -0.0388120000
H                  5.3665330000      2.1064020000     -0.9498660000
H                  5.3881640000      2.0754020000      0.8399270000
C                 -6.8909120000      3.2650770000      0.1213810000
H                 -5.5240460000      1.1113210000      0.0676800000
H                 -7.5840290000      4.1037120000      0.1442700000
H                 -7.0456600000      2.6411770000      1.0075140000
H                 -7.0665990000      2.6726750000     -0.7822840000
$end
$rem
MAX_SCF_CYCLES=200
BASIS  =  6-311++G(d,p)
GUI  =  2
JOB_TYPE  =  SP
METHOD  =  B3LYP
SOLVENT_METHOD = COSMO
$end
$solvent
dielectric 37.219
opticaldielectric 1.43
$end

--------------------------------------------------------------

             Standard Nuclear Orientation (Angstroms)
    I     Atom           X                Y                Z
 ----------------------------------------------------------------
    1      C       2.4788649281    -1.1450400745     0.0002502937
    2      C       3.6932463763    -0.4516624619     0.0004509372
    3      C       3.6945716005     0.9509622778     0.0004519106
    4      C       1.2757469799    -0.4502285450     0.0000108771
    5      C       1.2677956818     0.9600987538     0.0000020505
    6      C       2.4869846931     1.6391187366     0.0002121466
    7      C       0.0000199181    -1.2295619218    -0.0002636059
    8      C      -1.2757567023    -0.4503209373    -0.0001969170
    9      C      -1.2677895787     0.9600073660    -0.0001645031
   10      C      -0.0000227611     1.7347898061    -0.0001404031
   11      C      -2.4788822044    -1.1451187164    -0.0002127517
   12      C      -3.6932527946    -0.4517132515    -0.0002345793
   13      C      -3.6945686301     0.9509124675    -0.0002366227
   14      C      -2.4869720655     1.6390411937    -0.0001971158
   15      O       0.0000954680    -2.4486320282    -0.0000997855
   16      O      -0.0001013881     2.9590236407    -0.0000030475
   17      H       2.4719733593     2.7221990860     0.0002389132
   18      H      -2.4719006359     2.7221167211    -0.0001981211
   19      H       2.4757178371    -2.2275054446     0.0002341901
   20      H      -2.4757901668    -2.2275873611    -0.0002328793
   21      O      -4.8119532801    -1.2192107463    -0.0003199347
   22      C      -6.0864973632    -0.5829700567     0.0006991292
   23      O       4.8119371358    -1.2191874707     0.0007331517
   24      H      -4.6225503885     1.5065795439    -0.0002890064
   25      H      -6.8173307683    -1.3892747120     0.0011463969
   26      H      -6.2243793401     0.0322730964    -0.8942249971
   27      H      -6.2230209571     0.0320710622     0.8959666119
   28      C       6.0865204564    -0.5830254426    -0.0007991610
   29      H       4.6225439182     1.5066257013     0.0006701022
   30      H       6.8172962573    -1.3893814682    -0.0014580356
   31      H       6.2247966126     0.0322641791     0.8940350322
   32      H       6.2227695826     0.0319372700    -0.8961613902
 ----------------------------------------------------------------

    9    -918.0701829184      4.20e-06  Convergence criterion met
 Total energy in the final basis set =     -918.0701829184
    5    -918.0909252490      3.15e-06  Convergence criterion met
 Total energy in the final basis set =     -918.0909252490

                    Orbital Energies (a.u.)
 --------------------------------------------------------------

 Alpha MOs
 -- Occupied --
-19.1741 -19.1741 -19.1336 -19.1235 -10.2854 -10.2774 -10.2615 -10.2615
-10.2244 -10.2244 -10.2096 -10.2095 -10.2000 -10.1999 -10.1983 -10.1983
-10.1958 -10.1958 -10.1942 -10.1942  -1.0893  -1.0893  -1.0690  -1.0584
 -0.8924  -0.8803  -0.8108  -0.7849  -0.7838  -0.7717  -0.7269  -0.7142
 -0.6820  -0.6586  -0.6306  -0.6200  -0.5879  -0.5650  -0.5617  -0.5245
 -0.5239  -0.5168  -0.4946  -0.4820  -0.4812  -0.4734  -0.4689  -0.4602
 -0.4530  -0.4525  -0.4492  -0.4321  -0.4236  -0.4198  -0.4184  -0.4053
 -0.4000  -0.3863  -0.3853  -0.3816  -0.3492  -0.3478  -0.3430  -0.3354
 -0.2883  -0.2844  -0.2809  -0.2747  -0.2549  -0.2449

          Ground-State Mulliken Net Atomic Charges

     Atom                 Charge (a.u.)
  ----------------------------------------
      1 C                    -0.470080
      2 C                    -0.797867
      3 C                     0.089413
      4 C                     0.792891
      5 C                     0.498005
      6 C                     0.132699
      7 C                    -0.742843
      8 C                     0.792834
      9 C                     0.498397
     10 C                    -0.476498
     11 C                    -0.470239
     12 C                    -0.797856
     13 C                     0.089007
     14 C                     0.133214
     15 O                    -0.284455
     16 O                    -0.326173
     17 H                     0.203145
     18 H                     0.203138
     19 H                     0.210475
     20 H                     0.210475
     21 O                    -0.198609
     22 C                    -0.381003
     23 O                    -0.198625
     24 H                     0.256485
     25 H                     0.209722
     26 H                     0.184818
     27 H                     0.184751
     28 C                    -0.380997
     29 H                     0.256458
     30 H                     0.209721
     31 H                     0.184832
     32 H                     0.184742
  ----------------------------------------
  Sum of atomic charges =    -0.000020

                    Cartesian Multipole Moments
 -----------------------------------------------------------------
    Charge (ESU x 10^10)
                -0.0001
    Dipole Moment (Debye)
         X       0.0001      Y       1.9663      Z      -0.0009
       Tot       1.9663
    Quadrupole Moments (Debye-Ang)
        XX     -44.5901     XY       0.0020     YY    -136.0583
        XZ      -0.0198     YZ       0.0006     ZZ    -117.2706

 Total job time:  74.82s(wall), 570.41s(cpu)
        *  Thank you very much for using Q-Chem.  Have a nice day.  *
