 Q-Chem 5.4, Q-Chem, Inc., Pleasanton, CA (2021)
 Q-Chem 5.4.0 for Intel X86 EM64T Linux

User input:
--------------------------------------------------------------
$molecule
-1 2
C                 -0.9084430000      3.8208760000     -0.6561560000
C                 -2.0018530000      3.0226350000     -0.1533810000
C                 -1.8514750000      1.7255380000      0.2846040000
C                  0.4520010000      3.1693380000     -0.6842630000
C                  0.5547820000      1.7975950000     -0.2001400000
C                 -0.5584770000      1.1242340000      0.2580900000
O                  1.4621130000      3.7837260000     -1.1021850000
O                 -1.0752490000      4.9991790000     -1.0493970000
C                  1.9424280000      1.1944910000     -0.2349560000
C                  2.0886740000     -0.2413200000      0.2750640000
C                  3.5308340000     -0.7576700000      0.2012330000
C                  3.6919380000     -2.1943790000      0.7096430000
C                 -3.0394660000      0.9151250000      0.7581400000
C                 -3.6025960000     -0.0473350000     -0.3056690000
C                 -4.8031150000     -0.8664610000      0.1818640000
C                 -5.3625990000     -1.8194240000     -0.8798430000
H                 -2.9767740000      3.5056670000     -0.1346580000
H                 -0.4657030000      0.1034250000      0.6207810000
H                  2.6170070000      1.8522220000      0.3294050000
H                  2.3175980000      1.2550410000     -1.2654370000
H                  1.4410470000     -0.9121390000     -0.3045800000
H                  1.7409310000     -0.3059400000      1.3144240000
H                  4.1823420000     -0.0911810000      0.7799880000
H                  3.8830060000     -0.6966470000     -0.8360210000
H                  3.3796770000     -2.2798700000      1.7561110000
H                  4.7311710000     -2.5338110000      0.6441840000
H                  3.0778270000     -2.8900190000      0.1275230000
H                 -3.8390940000      1.5956910000      1.0745450000
H                 -2.7607050000      0.3283910000      1.6450060000
H                 -2.8058760000     -0.7260730000     -0.6336610000
H                 -3.8883490000      0.5350240000     -1.1898520000
H                 -5.5964470000     -0.1831910000      0.5112820000
H                 -4.5119120000     -1.4419730000      1.0701980000
H                 -5.6928990000     -1.2693570000     -1.7671200000
H                 -6.2188020000     -2.3890300000     -0.5031110000
H                 -4.6020400000     -2.5372100000     -1.2047380000
$end
$rem
MAX_SCF_CYCLES=200
BASIS  =  6-311++G(d,p)
GUI  =  2
JOB_TYPE  =  SP
METHOD  =  B3LYP
SOLVENT_METHOD = COSMO
$end
$solvent
dielectric 37.219
opticaldielectric 1.43
$end

--------------------------------------------------------------

             Standard Nuclear Orientation (Angstroms)
    I     Atom           X                Y                Z
 ----------------------------------------------------------------
    1      C      -0.1923956096    -2.8249560301     0.0357131023
    2      C      -1.3034300041    -2.0009102451    -0.3790976272
    3      C      -1.1995276205    -0.6443085404    -0.5929694115
    4      C       1.1329828576    -2.1310561720     0.2305837051
    5      C       1.1875048327    -0.6952725260    -0.0187565188
    6      C       0.0610167555    -0.0024497674    -0.4108746225
    7      O       2.1551825210    -2.7634067827     0.5879325801
    8      O      -0.3167520177    -4.0578047071     0.2240752769
    9      C       2.5421213827    -0.0490795252     0.1760680642
   10      C       2.6379053531     1.4559080962    -0.0864185276
   11      C       4.0496584749     2.0124461939     0.1351943635
   12      C       4.1601688159     3.5186702265    -0.1248914029
   13      C      -2.4066514162     0.1829962081    -0.9812311596
   14      C      -3.0551426862     0.9330355040     0.1986138998
   15      C      -4.2746662920     1.7707108131    -0.2025892293
   16      C      -4.9189808616     2.5118881496     0.9738024872
   17      H      -2.2524968476    -2.5142991305    -0.5199713251
   18      H       0.1179382850     1.0670906120    -0.5980806787
   19      H       3.2683869030    -0.5763916166    -0.4569015925
   20      H       2.8808258468    -0.2627918901     1.1987685257
   21      H       1.9373355784     1.9947210415     0.5649558881
   22      H       2.3267133333     1.6762306848    -1.1159755351
   23      H       4.7538595103     1.4779151128    -0.5144247836
   24      H       4.3651765664     1.7961987861     1.1634599796
   25      H       3.8836513447     3.7622029433    -1.1564634179
   26      H       5.1786071270     3.8855187922     0.0415709890
   27      H       3.4917607154     4.0829269938     0.5344688446
   28      H      -3.1600387350    -0.4687924867    -1.4397790720
   29      H      -2.1234506003     0.9187501431    -1.7473638040
   30      H      -2.3050046548     1.5809949814     0.6681543480
   31      H      -3.3454329529     0.2017445927     0.9624997051
   32      H      -5.0211502799     1.1186603643    -0.6741203966
   33      H      -3.9784497470     2.4961633995    -0.9714356694
   34      H      -5.2554102626     1.8100632480     1.7439903441
   35      H      -5.7869435606     3.0997125426     0.6566829384
   36      H      -4.2067054893     3.1973384936     1.4450191202
 ----------------------------------------------------------------

   10    -696.2306165661      8.71e-06  Convergence criterion met
 Total energy in the final basis set =     -696.2306165661
    4    -696.3265295876      9.99e-06  Convergence criterion met
 Total energy in the final basis set =     -696.3265295876

                    Orbital Energies (a.u.)
 --------------------------------------------------------------

 Alpha MOs
 -- Occupied --
-19.0800 -19.0786 -10.2147 -10.2132 -10.1733 -10.1640 -10.1626 -10.1594
-10.1589 -10.1587 -10.1576 -10.1573 -10.1556 -10.1516 -10.1509 -10.1469
 -1.0146  -0.9886  -0.8363  -0.7990  -0.7846  -0.7535  -0.7243  -0.6959
 -0.6792  -0.6361  -0.6195  -0.5810  -0.5751  -0.5525  -0.5443  -0.4825
 -0.4675  -0.4662  -0.4575  -0.4337  -0.4276  -0.4207  -0.4172  -0.4098
 -0.4074  -0.4017  -0.4006  -0.3852  -0.3724  -0.3662  -0.3578  -0.3560
 -0.3410  -0.3387  -0.3359  -0.3264  -0.3236  -0.3194  -0.3180  -0.3178
 -0.2999  -0.2610  -0.2240  -0.2194  -0.1640

 Beta MOs
 -- Occupied --
-19.0735 -19.0725 -10.2133 -10.2115 -10.1714 -10.1632 -10.1627 -10.1588
-10.1586 -10.1581 -10.1577 -10.1573 -10.1556 -10.1516 -10.1509 -10.1468
 -1.0037  -0.9768  -0.8318  -0.7983  -0.7837  -0.7520  -0.7221  -0.6939
 -0.6726  -0.6352  -0.6162  -0.5801  -0.5745  -0.5497  -0.5401  -0.4808
 -0.4657  -0.4644  -0.4569  -0.4297  -0.4243  -0.4169  -0.4156  -0.4077
 -0.4040  -0.4004  -0.3862  -0.3827  -0.3700  -0.3651  -0.3543  -0.3498
 -0.3385  -0.3349  -0.3262  -0.3229  -0.3219  -0.3190  -0.3170  -0.3112
 -0.2854  -0.2548  -0.2183  -0.2068

          Ground-State Mulliken Net Atomic Charges

     Atom                 Charge (a.u.)    Spin (a.u.)
  --------------------------------------------------------
      1 C                    -0.231551       0.161478
      2 C                    -0.279653      -0.014651
      3 C                     0.665479       0.088699
      4 C                    -0.167346       0.093146
      5 C                     1.401188       0.075981
      6 C                    -1.172076       0.084926
      7 O                    -0.505260       0.245548
      8 O                    -0.553644       0.213345
      9 C                    -0.062731       0.026590
     10 C                    -0.174590      -0.003882
     11 C                    -0.285921       0.000308
     12 C                    -0.661340      -0.000080
     13 C                    -0.768966       0.032447
     14 C                    -0.297767      -0.020205
     15 C                    -0.219554       0.017971
     16 C                    -0.665662      -0.001392
     17 H                     0.185523      -0.002627
     18 H                     0.169796      -0.008877
     19 H                     0.185308       0.004257
     20 H                     0.181081       0.004190
     21 H                     0.119458      -0.000070
     22 H                     0.119508      -0.000134
     23 H                     0.140027      -0.000178
     24 H                     0.137497      -0.000160
     25 H                     0.145370       0.000004
     26 H                     0.155781      -0.000012
     27 H                     0.145147       0.000012
     28 H                     0.174991       0.000669
     29 H                     0.154492       0.003783
     30 H                     0.113764      -0.001938
     31 H                     0.140474       0.000363
     32 H                     0.132884      -0.000190
     33 H                     0.135297      -0.000107
     34 H                     0.146767      -0.000047
     35 H                     0.149523       0.000641
     36 H                     0.146709       0.000192
  --------------------------------------------------------
  Sum of atomic charges =    -1.000000

                    Cartesian Multipole Moments
 -----------------------------------------------------------------
    Charge (ESU x 10^10)
                -4.8032
    Dipole Moment (Debye)
         X      -4.4768      Y      18.0024      Z      -2.1715
       Tot      18.6773
    Quadrupole Moments (Debye-Ang)
        XX    -112.6260     XY      12.3027     YY    -169.7696
        XZ      -2.4854     YZ       6.7169     ZZ    -105.1281

 Total job time:  99.49s(wall), 746.75s(cpu)
        *  Thank you very much for using Q-Chem.  Have a nice day.  *
