 Q-Chem 5.4, Q-Chem, Inc., Pleasanton, CA (2021)
 Q-Chem 5.4.0 for Intel X86 EM64T Linux

User input:
--------------------------------------------------------------
$molecule
0 1
C                 -0.9183340000      2.5712000000      0.1820710000
C                  0.4901600000      2.7985180000     -0.2734610000
C                  1.2020240000      1.7942110000     -0.8239560000
C                  0.5843490000      0.4434620000     -0.9926900000
C                 -0.8208240000      0.2064580000     -0.5006750000
C                 -1.5192500000      1.2201980000      0.0777050000
O                 -1.5781710000      3.5029670000      0.6248900000
O                  1.2018610000     -0.4688470000     -1.5069770000
O                 -2.8311390000      1.0710940000      0.4248080000
O                 -1.2045460000     -1.0501870000     -0.7407780000
C                 -3.1925520000      1.3225340000      1.7944570000
C                 -2.3987450000     -1.6195650000     -0.1846340000
C                  2.6187630000      1.9424560000     -1.3076790000
C                  1.0334390000      4.1964050000     -0.0695270000
C                  1.6907130000      4.3529080000      1.2840630000
C                  2.9076300000      4.8377990000      1.5628160000
C                  3.8965090000      5.3416490000      0.5421310000
C                  3.3840120000      4.9380180000      2.9919090000
H                 -3.0196110000      2.3640870000      2.0600610000
H                 -2.6298590000      0.6601370000      2.4619850000
H                 -4.2546390000      1.0909940000      1.8639600000
H                 -2.3635830000     -2.6670740000     -0.4794340000
H                 -3.2905870000     -1.1396970000     -0.5833780000
H                 -2.3929560000     -1.5434240000      0.9050260000
H                  3.2279440000      2.4752690000     -0.5754580000
H                  2.6527560000      2.5089000000     -2.2449580000
H                  3.0574940000      0.9645200000     -1.4985290000
H                  0.1915680000      4.8923680000     -0.1312000000
H                  1.7236910000      4.4410610000     -0.8765960000
H                  1.0668700000      4.0447940000      2.1202920000
H                  3.5550510000      5.2322660000     -0.4869460000
H                  4.8534750000      4.8161410000      0.6402760000
H                  4.1082180000      6.4040340000      0.7105680000
H                  2.6354670000      4.5707650000      3.6964440000
H                  3.6195820000      5.9761600000      3.2542340000
H                  4.3049390000      4.3613690000      3.1388380000
$end

$rem
BASIS  =  6-311++G(d,p)
GUI  =  2
JOB_TYPE  =  SP
METHOD  =  B3LYP
SCF_CONVERGENCE  = 8
SOLVENT_METHOD = sm12
$end

$smx
solvent dimethylformamide
charges CM5
$end

--------------------------------------------------------------

             Standard Nuclear Orientation (Angstroms)
    I     Atom           X                Y                Z
 ----------------------------------------------------------------
    1      C      -0.9183340000     2.5712000000     0.1820710000
    2      C       0.4901600000     2.7985180000    -0.2734610000
    3      C       1.2020240000     1.7942110000    -0.8239560000
    4      C       0.5843490000     0.4434620000    -0.9926900000
    5      C      -0.8208240000     0.2064580000    -0.5006750000
    6      C      -1.5192500000     1.2201980000     0.0777050000
    7      O      -1.5781710000     3.5029670000     0.6248900000
    8      O       1.2018610000    -0.4688470000    -1.5069770000
    9      O      -2.8311390000     1.0710940000     0.4248080000
   10      O      -1.2045460000    -1.0501870000    -0.7407780000
   11      C      -3.1925520000     1.3225340000     1.7944570000
   12      C      -2.3987450000    -1.6195650000    -0.1846340000
   13      C       2.6187630000     1.9424560000    -1.3076790000
   14      C       1.0334390000     4.1964050000    -0.0695270000
   15      C       1.6907130000     4.3529080000     1.2840630000
   16      C       2.9076300000     4.8377990000     1.5628160000
   17      C       3.8965090000     5.3416490000     0.5421310000
   18      C       3.3840120000     4.9380180000     2.9919090000
   19      H      -3.0196110000     2.3640870000     2.0600610000
   20      H      -2.6298590000     0.6601370000     2.4619850000
   21      H      -4.2546390000     1.0909940000     1.8639600000
   22      H      -2.3635830000    -2.6670740000    -0.4794340000
   23      H      -3.2905870000    -1.1396970000    -0.5833780000
   24      H      -2.3929560000    -1.5434240000     0.9050260000
   25      H       3.2279440000     2.4752690000    -0.5754580000
   26      H       2.6527560000     2.5089000000    -2.2449580000
   27      H       3.0574940000     0.9645200000    -1.4985290000
   28      H       0.1915680000     4.8923680000    -0.1312000000
   29      H       1.7236910000     4.4410610000    -0.8765960000
   30      H       1.0668700000     4.0447940000     2.1202920000
   31      H       3.5550510000     5.2322660000    -0.4869460000
   32      H       4.8534750000     4.8161410000     0.6402760000
   33      H       4.1082180000     6.4040340000     0.7105680000
   34      H       2.6354670000     4.5707650000     3.6964440000
   35      H       3.6195820000     5.9761600000     3.2542340000
   36      H       4.3049390000     4.3613690000     3.1388380000
 ----------------------------------------------------------------

   15    -845.3923009123      8.50e-09  Convergence criterion met
 Total energy in the final basis set =     -845.4063824010

                    Orbital Energies (a.u.)
 --------------------------------------------------------------

 Alpha MOs
 -- Occupied --
-19.1726 -19.1535 -19.1338 -19.1284 -10.2817 -10.2773 -10.2632 -10.2474
-10.2215 -10.2149 -10.2092 -10.2081 -10.1821 -10.1816 -10.1701 -10.1695
-10.1650 -10.1632  -1.0981  -1.0754  -1.0614  -1.0495  -0.8629  -0.8218
 -0.8020  -0.7570  -0.7402  -0.7175  -0.6951  -0.6864  -0.6641  -0.6459
 -0.5929  -0.5886  -0.5530  -0.5290  -0.5223  -0.5111  -0.4918  -0.4713
 -0.4686  -0.4595  -0.4574  -0.4540  -0.4440  -0.4376  -0.4354  -0.4340
 -0.4136  -0.4130  -0.4071  -0.4063  -0.3881  -0.3848  -0.3812  -0.3743
 -0.3695  -0.3613  -0.3526  -0.3502  -0.3405  -0.3117  -0.2850  -0.2816
 -0.2697  -0.2447  -0.2390

          Ground-State Mulliken Net Atomic Charges

     Atom                 Charge (a.u.)
  ----------------------------------------
      1 C                    -1.213564
      2 C                     1.134797
      3 C                     0.439352
      4 C                    -1.572595
      5 C                    -0.062600
      6 C                    -0.006089
      7 O                    -0.285995
      8 O                    -0.301473
      9 O                    -0.181674
     10 O                    -0.212102
     11 C                    -0.187871
     12 C                    -0.129697
     13 C                    -0.184257
     14 C                     0.953073
     15 C                    -1.213601
     16 C                     0.339198
     17 C                    -0.260441
     18 C                    -0.465266
     19 H                     0.125635
     20 H                     0.178872
     21 H                     0.222562
     22 H                     0.246037
     23 H                     0.194001
     24 H                     0.223307
     25 H                     0.235876
     26 H                     0.248903
     27 H                     0.162894
     28 H                     0.186866
     29 H                     0.241422
     30 H                     0.127462
     31 H                     0.179979
     32 H                     0.166485
     33 H                     0.163864
     34 H                     0.173377
     35 H                     0.161812
     36 H                     0.171449
  ----------------------------------------
  Sum of atomic charges =     0.000000

                    Cartesian Multipole Moments
 -----------------------------------------------------------------
    Charge (ESU x 10^10)
                 0.0000
    Dipole Moment (Debye)
         X      -0.0103      Y       0.3594      Z       2.1980
       Tot       2.2272
    Quadrupole Moments (Debye-Ang)
        XX     -97.8865     XY      19.2709     YY    -108.5296
        XZ      -2.1168     YZ      -4.4082     ZZ    -105.8943

 Total job time:  1031.51s(wall), 8046.44s(cpu)
        *  Thank you very much for using Q-Chem.  Have a nice day.  *
