 Gaussian 16, Revision A.03,
 Gaussian 16:  ES64L-G16RevA.03 25-Dec-2016

 ----------------------------------------------------------------
 #P UB3LYP/6-311++G(d,p) SCRF=(PCM,Solvent=n,n-DiMethylFormamide)
 ----------------------------------------------------------------

 ------------------
 Quinone PCM in DMF
 ------------------
 Symbolic Z-matrix:
 Charge =  0 Multiplicity = 1

                         Standard orientation:
 ---------------------------------------------------------------------
 Center     Atomic      Atomic             Coordinates (Angstroms)
 Number     Number       Type             X           Y           Z
 ---------------------------------------------------------------------
      1          6           0       -4.343138    0.303108   -0.722504
      2          6           0       -5.049104   -0.893501   -0.799301
      3          6           0       -4.438906   -2.089358   -0.416354
      4          6           0       -3.024363    0.300565   -0.261781
      5          6           0       -2.407817   -0.900837    0.124408
      6          6           0       -3.123543   -2.094081    0.044305
      7          6           0       -2.262903    1.559808   -0.174208
      8          6           0       -0.856514    1.500728    0.318187
      9          6           0       -0.243251    0.355372    0.705973
     10          6           0       -0.989899   -0.917444    0.622762
     11          8           0       -2.713962    2.657391   -0.482317
     12          8           0       -0.470347   -1.973466    0.956035
     13          1           0       -4.795005    1.243523   -1.013384
     14          1           0       -6.072352   -0.896096   -1.156591
     15          1           0       -4.990586   -3.020644   -0.477028
     16          1           0       -2.635340   -3.012554    0.345572
     17          8           0       -0.241670    2.694231    0.353599
     18          6           0        1.180145    0.324536    1.186980
     19          6           0        2.188437    0.041377    0.052496
     20          6           0        3.636487   -0.002133    0.551205
     21          6           0        4.653763   -0.280180   -0.560963
     22          6           0        6.104749   -0.326564   -0.068294
     23          6           0        7.114540   -0.605301   -1.185448
     24          1           0       -0.898679    3.345759    0.042585
     25          1           0        1.272504   -0.457040    1.945212
     26          1           0        1.421436    1.282958    1.653688
     27          1           0        2.088256    0.814156   -0.718084
     28          1           0        1.934614   -0.913624   -0.419523
     29          1           0        3.727661   -0.772909    1.327010
     30          1           0        3.881700    0.951446    1.036469
     31          1           0        4.561423    0.489970   -1.337915
     32          1           0        4.407437   -1.233141   -1.046942
     33          1           0        6.197174   -1.096116    0.707729
     34          1           0        6.351197    0.625538    0.417380
     35          1           0        6.915442   -1.567748   -1.667441
     36          1           0        8.138300   -0.632082   -0.801800
     37          1           0        7.070535    0.166782   -1.960236
 ---------------------------------------------------------------------

 SCF Done:  E(UB3LYP) =  -846.479589049     A.U. after   15 cycles

 The electronic state is 1-A.
 Alpha  occ. eigenvalues --  -19.18062 -19.15137 -19.13086 -10.29524 -10.28235
 Alpha  occ. eigenvalues --  -10.26900 -10.21292 -10.21162 -10.20557 -10.20356
 Alpha  occ. eigenvalues --  -10.20185 -10.20016 -10.19974 -10.17810 -10.16913
 Alpha  occ. eigenvalues --  -10.16299 -10.16244 -10.16099 -10.15559  -1.11063
 Alpha  occ. eigenvalues --   -1.06914  -1.06441  -0.89488  -0.84612  -0.80976
 Alpha  occ. eigenvalues --   -0.79019  -0.78235  -0.76230  -0.72212  -0.69331
 Alpha  occ. eigenvalues --   -0.66362  -0.65145  -0.62143  -0.60719  -0.58807
 Alpha  occ. eigenvalues --   -0.57753  -0.57552  -0.54464  -0.52096  -0.49996
 Alpha  occ. eigenvalues --   -0.48306  -0.47832  -0.47333  -0.46924  -0.45643
 Alpha  occ. eigenvalues --   -0.45510  -0.44046  -0.43850  -0.43283  -0.42428
 Alpha  occ. eigenvalues --   -0.41289  -0.40867  -0.40062  -0.39469  -0.38542
 Alpha  occ. eigenvalues --   -0.38130  -0.37885  -0.37258  -0.35766  -0.34949
 Alpha  occ. eigenvalues --   -0.33236  -0.32940  -0.32263  -0.32224  -0.30476
 Alpha  occ. eigenvalues --   -0.29183  -0.28237  -0.28061  -0.25855
 Alpha virt. eigenvalues --   -0.12745  -0.05823  -0.02783  -0.00969  -0.00181
 Alpha virt. eigenvalues --    0.00254   0.00839   0.01122   0.01737   0.02064
 Alpha virt. eigenvalues --    0.02230   0.02759   0.02957   0.03692   0.04326

  Beta  occ. eigenvalues --  -19.18062 -19.15137 -19.13086 -10.29524 -10.28235
  Beta  occ. eigenvalues --  -10.26900 -10.21292 -10.21162 -10.20557 -10.20356
  Beta  occ. eigenvalues --  -10.20185 -10.20016 -10.19974 -10.17810 -10.16913
  Beta  occ. eigenvalues --  -10.16299 -10.16244 -10.16099 -10.15559  -1.11063
  Beta  occ. eigenvalues --   -1.06914  -1.06441  -0.89488  -0.84612  -0.80976
  Beta  occ. eigenvalues --   -0.79019  -0.78235  -0.76230  -0.72212  -0.69331
  Beta  occ. eigenvalues --   -0.66362  -0.65145  -0.62143  -0.60719  -0.58807
  Beta  occ. eigenvalues --   -0.57753  -0.57552  -0.54464  -0.52096  -0.49996
  Beta  occ. eigenvalues --   -0.48306  -0.47832  -0.47333  -0.46924  -0.45643
  Beta  occ. eigenvalues --   -0.45510  -0.44046  -0.43850  -0.43283  -0.42428
  Beta  occ. eigenvalues --   -0.41289  -0.40867  -0.40062  -0.39469  -0.38542
  Beta  occ. eigenvalues --   -0.38130  -0.37885  -0.37258  -0.35766  -0.34949
  Beta  occ. eigenvalues --   -0.33236  -0.32940  -0.32263  -0.32224  -0.30476
  Beta  occ. eigenvalues --   -0.29183  -0.28237  -0.28061  -0.25855
  Beta virt. eigenvalues --   -0.12745  -0.05823  -0.02783  -0.00969  -0.00181
  Beta virt. eigenvalues --    0.00254   0.00839   0.01122   0.01737   0.02064
  Beta virt. eigenvalues --    0.02230   0.02759   0.02957   0.03692   0.04326

 Mulliken charges and spin densities:
               1          2
     1  C    0.210756  -0.000000
     2  C   -0.382546  -0.000000
     3  C   -0.395340   0.000000
     4  C    0.462390  -0.000000
     5  C   -0.074887   0.000000
     6  C    0.184644   0.000000
     7  C   -0.802363  -0.000000
     8  C   -0.447076   0.000000
     9  C    1.889614   0.000000
    10  C   -0.809840  -0.000000
    11  O   -0.312513  -0.000000
    12  O   -0.275498   0.000000
    13  H    0.191013   0.000000
    14  H    0.211374  -0.000000
    15  H    0.207695   0.000000
    16  H    0.190559  -0.000000
    17  O   -0.221729  -0.000000
    18  C   -0.353132   0.000000
    19  C   -0.539143   0.000000
    20  C   -0.099473   0.000000
    21  C   -0.219637  -0.000000
    22  C   -0.204406   0.000000
    23  C   -0.679396  -0.000000
    24  H    0.307360   0.000000
    25  H    0.217003  -0.000000
    26  H    0.230444  -0.000000
    27  H    0.170469  -0.000000
    28  H    0.172477  -0.000000
    29  H    0.118219   0.000000
    30  H    0.116537   0.000000
    31  H    0.122775   0.000000
    32  H    0.122647   0.000000
    33  H    0.133021  -0.000000
    34  H    0.132998  -0.000000
    35  H    0.140961  -0.000000
    36  H    0.143367   0.000000
    37  H    0.140657  -0.000000
 Sum of Mulliken charges =  -0.00000   0.00000

 Dipole moment (field-independent basis, Debye):
    X=             -2.7244    Y=             -0.2180    Z=             -1.0745  Tot=              2.9367
 Quadrupole moment (field-independent basis, Debye-Ang):
   XX=            -94.8669   YY=           -118.1312   ZZ=           -116.7426
   XY=             10.3596   XZ=              3.7668   YZ=              3.5644

 Normal termination of Gaussian 16 at Sun Jan 21 08:15:41 2024.
