 Q-Chem 5.4, Q-Chem, Inc., Pleasanton, CA (2021)
 Q-Chem 5.4.0 for Intel X86 EM64T Linux

User input:
--------------------------------------------------------------
$molecule
-2 1
C                 -4.5661430000      0.2297230000      0.0311060000
C                 -3.1136780000     -0.1830270000     -0.0011990000
C                 -2.7691650000     -1.5614240000     -0.1480530000
C                 -1.4472020000     -1.9519060000     -0.1707140000
C                 -0.3795620000     -1.0256430000     -0.0643420000
C                  0.9867290000     -1.5065460000     -0.1169520000
O                  1.2829480000     -2.7466330000     -0.2606260000
C                  1.9946640000     -0.4724140000      0.0132300000
C                  3.3656050000     -0.8320810000     -0.0209290000
C                  4.3767070000      0.1004960000      0.0932620000
C                  4.0472050000      1.4768640000      0.2500370000
C                  2.7221230000      1.8602570000      0.2892590000
C                  1.6587060000      0.9281190000      0.1792990000
C                  0.2906090000      1.4068080000      0.2273900000
O                 -0.0009770000      2.6489970000      0.3664090000
C                 -0.7152050000      0.3720040000      0.1011880000
C                 -2.0895540000      0.7325610000      0.1295530000
H                 -5.1224300000     -0.2593320000      0.8512360000
H                 -5.0916510000     -0.0395490000     -0.8932560000
H                 -4.6707760000      1.3108690000      0.1661620000
H                 -3.5609770000     -2.3032220000     -0.2468840000
H                 -1.1716790000     -2.9960350000     -0.2842040000
H                  3.5826880000     -1.8890540000     -0.1428760000
H                  5.4192920000     -0.2119730000      0.0631120000
H                  4.8373010000      2.2208210000      0.3391330000
H                  2.4379430000      2.9014850000      0.4081510000
H                 -2.3035220000      1.7898350000      0.2589930000
$end
$rem
MAX_SCF_CYCLES=200
BASIS  =  6-311++G(d,p)
GUI  =  2
JOB_TYPE  =  SP
METHOD  =  B3LYP
SOLVENT_METHOD = PCM
$end
$pcm
theory = CPCM
$end
$solvent
dielectric 37.219
opticaldielectric 1.43
$end

--------------------------------------------------------------

             Standard Nuclear Orientation (Angstroms)
    I     Atom           X                Y                Z
 ----------------------------------------------------------------
    1      C      -4.5661430000     0.2297230000     0.0311060000
    2      C      -3.1136780000    -0.1830270000    -0.0011990000
    3      C      -2.7691650000    -1.5614240000    -0.1480530000
    4      C      -1.4472020000    -1.9519060000    -0.1707140000
    5      C      -0.3795620000    -1.0256430000    -0.0643420000
    6      C       0.9867290000    -1.5065460000    -0.1169520000
    7      O       1.2829480000    -2.7466330000    -0.2606260000
    8      C       1.9946640000    -0.4724140000     0.0132300000
    9      C       3.3656050000    -0.8320810000    -0.0209290000
   10      C       4.3767070000     0.1004960000     0.0932620000
   11      C       4.0472050000     1.4768640000     0.2500370000
   12      C       2.7221230000     1.8602570000     0.2892590000
   13      C       1.6587060000     0.9281190000     0.1792990000
   14      C       0.2906090000     1.4068080000     0.2273900000
   15      O      -0.0009770000     2.6489970000     0.3664090000
   16      C      -0.7152050000     0.3720040000     0.1011880000
   17      C      -2.0895540000     0.7325610000     0.1295530000
   18      H      -5.1224300000    -0.2593320000     0.8512360000
   19      H      -5.0916510000    -0.0395490000    -0.8932560000
   20      H      -4.6707760000     1.3108690000     0.1661620000
   21      H      -3.5609770000    -2.3032220000    -0.2468840000
   22      H      -1.1716790000    -2.9960350000    -0.2842040000
   23      H       3.5826880000    -1.8890540000    -0.1428760000
   24      H       5.4192920000    -0.2119730000     0.0631120000
   25      H       4.8373010000     2.2208210000     0.3391330000
   26      H       2.4379430000     2.9014850000     0.4081510000
   27      H      -2.3035220000     1.7898350000     0.2589930000
 ----------------------------------------------------------------

    8    -728.5228908214      6.10e-06  Convergence criterion met
 Total energy in the final basis set =     -728.5228908214

                    Orbital Energies (a.u.)
 --------------------------------------------------------------

 Alpha MOs
 -- Occupied --
-19.0236 -19.0222 -10.1754 -10.1736 -10.1562 -10.1518 -10.1485 -10.1480
-10.1465 -10.1461 -10.1457 -10.1456 -10.1412 -10.1362 -10.1358 -10.1354
-10.1349  -0.9436  -0.9400  -0.8292  -0.8219  -0.7606  -0.7319  -0.7227
 -0.7126  -0.6705  -0.6302  -0.6032  -0.5774  -0.5574  -0.5247  -0.5030
 -0.4877  -0.4415  -0.4378  -0.4282  -0.4168  -0.4029  -0.3985  -0.3977
 -0.3835  -0.3787  -0.3708  -0.3669  -0.3552  -0.3482  -0.3343  -0.3284
 -0.3156  -0.3136  -0.2986  -0.2981  -0.2344  -0.2260  -0.2247  -0.2119
 -0.2062  -0.1981  -0.1060

          Ground-State Mulliken Net Atomic Charges

     Atom                 Charge (a.u.)
  ----------------------------------------
      1 C                    -0.434643
      2 C                     0.278453
      3 C                    -0.507780
      4 C                    -0.001653
      5 C                     0.080677
      6 C                    -0.475762
      7 O                    -0.681697
      8 C                     0.207697
      9 C                    -0.003774
     10 C                    -0.530331
     11 C                    -0.533319
     12 C                    -0.045848
     13 C                     0.381878
     14 C                    -0.415634
     15 O                    -0.684561
     16 C                     0.137171
     17 C                    -0.300629
     18 H                     0.154630
     19 H                     0.156904
     20 H                     0.163732
     21 H                     0.172696
     22 H                     0.141173
     23 H                     0.142552
     24 H                     0.171657
     25 H                     0.172872
     26 H                     0.143059
     27 H                     0.110480
  ----------------------------------------
  Sum of atomic charges =    -2.000000

                    Cartesian Multipole Moments
 -----------------------------------------------------------------
    Charge (ESU x 10^10)
                -9.6064
    Dipole Moment (Debye)
         X      -6.7565      Y       0.2966      Z      -0.5465
       Tot       6.7850
    Quadrupole Moments (Debye-Ang)
        XX    -127.2831     XY       9.2596     YY    -159.9243
        XZ       0.6747     YZ      -5.5469     ZZ    -112.8806

 Total job time:  78.19s(wall), 313.54s(cpu)
        *  Thank you very much for using Q-Chem.  Have a nice day.  *
