 Q-Chem 5.4, Q-Chem, Inc., Pleasanton, CA (2021)
 Q-Chem 5.4.0 for Intel X86 EM64T Linux

User input:
--------------------------------------------------------------
$molecule
-1 2
C                 -2.0341410000      3.0133820000      0.4654640000
C                 -2.7504320000      2.3711720000      1.4583700000
C                 -2.2777190000      1.1571520000      1.9966910000
C                 -0.8266230000      2.4688480000     -0.0229730000
C                 -0.3470250000      1.2422720000      0.5200980000
C                 -1.0940720000      0.6094950000      1.5289300000
C                 -0.0775280000      3.1417640000     -1.0628910000
C                  1.1456060000      2.5071390000     -1.4967380000
C                  1.6345570000      1.3179140000     -0.9986550000
C                  0.9119140000      0.6271930000      0.0477050000
O                 -0.4139000000      4.2396840000     -1.6171460000
O                  1.3280670000     -0.4541900000      0.5398280000
H                 -2.3772310000      3.9478210000      0.0357640000
H                 -3.6780460000      2.8017180000      1.8246150000
H                 -2.8409770000      0.6532950000      2.7765710000
H                 -0.7065170000     -0.3222500000      1.9252970000
C                  2.9224650000      0.7210800000     -1.5043360000
O                  1.7988520000      3.1989350000     -2.4756370000
H                  3.0865820000      1.0293960000     -2.5420750000
H                  2.8260510000     -0.3691640000     -1.4802960000
H                  1.2037730000      3.9698590000     -2.6089730000
C                  4.1492070000      1.1191380000     -0.6610330000
C                  5.4530390000      0.4860150000     -1.1588840000
C                  6.6828540000      0.8753420000     -0.3304480000
H                  3.9680640000      0.8195430000      0.3767410000
H                  4.2473550000      2.2113710000     -0.6662970000
H                  5.6191240000      0.7724590000     -2.2066060000
H                  5.3465480000     -0.6070270000     -1.1547040000
H                  6.5170430000      0.5878680000      0.7160040000
H                  6.7868820000      1.9684930000     -0.3312690000
C                  7.9893990000      0.2445890000     -0.8262380000
C                  9.2183600000      0.6344610000      0.0032320000
C                 10.5246900000      0.0033990000     -0.4922460000
C                 11.7531020000      0.3945230000      0.3373730000
C                 13.0593400000     -0.2361680000     -0.1580410000
C                 14.2880620000      0.1551890000      0.6708790000
C                 15.5880950000     -0.4797510000      0.1677860000
H                  8.1547980000      0.5318160000     -1.8732460000
H                  7.8854270000     -0.8485810000     -0.8253150000
H                  9.0529040000      0.3474380000      1.0499790000
H                  9.3223610000      1.7275290000      0.0025320000
H                 10.6899810000      0.2899700000     -1.5392500000
H                 10.4210460000     -1.0896790000     -0.4907430000
H                 11.5879720000      0.1078460000      1.3842550000
H                 11.8566320000      1.4875770000      0.3359980000
H                 13.2254270000      0.0500180000     -1.2051170000
H                 12.9571810000     -1.3294990000     -0.1562270000
H                 14.1231820000     -0.1313920000      1.7168270000
H                 14.3910150000      1.2473220000      0.6688980000
H                 15.5286580000     -1.5727580000      0.1907430000
H                 16.4443240000     -0.1809580000      0.7798330000
H                 15.7985710000     -0.1836210000     -0.8650480000
$end
$rem
MAX_SCF_CYCLES=200
BASIS  =  6-311++G(d,p)
GUI  =  2
JOB_TYPE  =  SP
METHOD  =  B3LYP
THRESH = 14
SCF_CONVERGENCE  = 6
SOLVENT_METHOD = COSMO
$end
$solvent
dielectric 37.219
opticaldielectric 1.43
$end

--------------------------------------------------------------

             Standard Nuclear Orientation (Angstroms)
    I     Atom           X                Y                Z
 ----------------------------------------------------------------
    1      C       6.7866423216     0.0000476159     1.0440313249
    2      C       7.4009303047     1.2376002146     1.0938574708
    3      C       6.7496809974     2.3704491007     0.5650669821
    4      C       5.5068278566    -0.1496674648     0.4671014936
    5      C       4.8468663134     0.9940788300    -0.0674302745
    6      C       5.4930871964     2.2409208126    -0.0040931054
    7      C       4.8645982639    -1.4458989700     0.4150078859
    8      C       3.5557687501    -1.4983974855    -0.1942852306
    9      C       2.8920720296    -0.4137365768    -0.7276080524
   10      C       3.5054568458     0.8961632019    -0.6817900212
   11      O       5.3631418707    -2.5310947125     0.8617488919
   12      O       2.9302861861     1.9154667319    -1.1454241283
   13      H       7.2673144568    -0.8857324446     1.4438776273
   14      H       8.3859187102     1.3380042573     1.5407241849
   15      H       7.2329004168     3.3421917283     0.6045577898
   16      H       4.9687091270     3.0950643322    -0.4175189269
   17      C       1.5246658774    -0.5515468908    -1.3455399630
   18      O       3.0114983029    -2.7502792719    -0.2051003712
   19      H       1.4041777128    -1.5631634813    -1.7468002946
   20      H       1.4518938743     0.1588422390    -2.1753333591
   21      H       3.7176013380    -3.2807526491     0.2264524282
   22      C       0.3788149186    -0.2626008391    -0.3565799967
   23      C      -1.0098773998    -0.3731101410    -0.9953284407
   24      C      -2.1601957158    -0.0904900186    -0.0220760113
   25      H       0.5174704318     0.7451700569     0.0492737890
   26      H       0.4502871563    -0.9598647647     0.4868347311
   27      H      -1.1357403836    -1.3789395286    -1.4193821331
   28      H      -1.0732375640     0.3245999998    -1.8410734781
   29      H      -2.0347695372     0.9149758714     0.4004201360
   30      H      -2.0943661746    -0.7854386968     0.8255762840
   31      C      -3.5511912480    -0.2011415377    -0.6573748220
   32      C      -4.7005758601     0.0820172841     0.3168437838
   33      C      -6.0914048590    -0.0281791654    -0.3185200519
   34      C      -7.2400530864     0.2543621293     0.6566821716
   35      C      -8.6307335985     0.1439914563     0.0216310640
   36      C      -9.7796561419     0.4258168732     0.9966068816
   37      C     -11.1649050319     0.3127427079     0.3526838138
   38      H      -3.6762516215    -1.2068446364    -1.0804624147
   39      H      -3.6170784694     0.4938927618    -1.5049701701
   40      H      -4.5754291859     1.0873959289     0.7399150107
   41      H      -4.6347317577    -0.6127832399     1.1645059433
   42      H      -6.2164596902    -1.0334582577    -0.7421197030
   43      H      -6.1575986642     0.6672158294    -1.1656375367
   44      H      -7.1151743690     1.2595981529     1.0801433670
   45      H      -7.1737496222    -0.4409081241     1.5038483441
   46      H      -8.7566346846    -0.8611765352    -0.4022105258
   47      H      -8.6984318654     0.8396470288    -0.8253002771
   48      H      -9.6550149263     1.4302465263     1.4195808074
   49      H      -9.7129280966    -0.2692917865     1.8426145963
   50      H     -11.2746432380     1.0205732128    -0.4753606207
   51      H     -11.9613082316     0.5194394222     1.0738116106
   52      H     -11.3330484223    -0.6917720049    -0.0490837646
 ----------------------------------------------------------------

   14   -1043.1671342777      4.63e-07  Convergence criterion met
 Total energy in the final basis set =    -1043.1671342777
    6   -1043.2481561403      8.94e-07  Convergence criterion met
 Total energy in the final basis set =    -1043.2481561403

                    Orbital Energies (a.u.)
 --------------------------------------------------------------

 Alpha MOs
 -- Occupied --
-19.1445 -19.0889 -19.0770 -10.2254 -10.2234 -10.2225 -10.1756 -10.1734
-10.1721 -10.1711 -10.1708 -10.1694 -10.1634 -10.1576 -10.1567 -10.1553
-10.1552 -10.1550 -10.1548 -10.1546 -10.1543 -10.1543 -10.1539 -10.1512
 -1.0646  -1.0026  -0.9989  -0.8591  -0.8142  -0.8065  -0.7930  -0.7747
 -0.7547  -0.7510  -0.7319  -0.7047  -0.6788  -0.6593  -0.6306  -0.6163
 -0.5990  -0.5794  -0.5732  -0.5702  -0.5670  -0.5655  -0.5373  -0.5052
 -0.4853  -0.4805  -0.4695  -0.4602  -0.4528  -0.4462  -0.4384  -0.4299
 -0.4267  -0.4244  -0.4198  -0.4191  -0.4111  -0.4041  -0.3994  -0.3912
 -0.3895  -0.3826  -0.3780  -0.3739  -0.3650  -0.3637  -0.3530  -0.3463
 -0.3444  -0.3405  -0.3380  -0.3329  -0.3263  -0.3250  -0.3215  -0.3174
 -0.3170  -0.3150  -0.3141  -0.2942  -0.2688  -0.2630  -0.2586  -0.2423
 -0.2284  -0.1534

 Beta MOs
 -- Occupied --
-19.1440 -19.0827 -19.0718 -10.2240 -10.2216 -10.2203 -10.1754 -10.1723
-10.1720 -10.1703 -10.1702 -10.1695 -10.1626 -10.1576 -10.1567 -10.1553
-10.1552 -10.1550 -10.1548 -10.1546 -10.1543 -10.1542 -10.1539 -10.1512
 -1.0624  -0.9935  -0.9885  -0.8567  -0.8123  -0.8057  -0.7921  -0.7736
 -0.7535  -0.7490  -0.7313  -0.7036  -0.6740  -0.6553  -0.6297  -0.6146
 -0.5975  -0.5785  -0.5731  -0.5686  -0.5670  -0.5646  -0.5355  -0.5029
 -0.4833  -0.4798  -0.4689  -0.4591  -0.4519  -0.4459  -0.4303  -0.4282
 -0.4256  -0.4235  -0.4166  -0.4155  -0.4095  -0.4023  -0.3970  -0.3901
 -0.3814  -0.3788  -0.3757  -0.3724  -0.3643  -0.3533  -0.3521  -0.3436
 -0.3403  -0.3368  -0.3319  -0.3301  -0.3256  -0.3242  -0.3214  -0.3174
 -0.3167  -0.3149  -0.3139  -0.2937  -0.2577  -0.2517  -0.2494  -0.2374
 -0.2199

          Ground-State Mulliken Net Atomic Charges

     Atom                 Charge (a.u.)    Spin (a.u.)
  --------------------------------------------------------
      1 C                     0.006072       0.075734
      2 C                    -0.393446      -0.001551
      3 C                    -0.473735       0.072289
      4 C                     0.497907      -0.006064
      5 C                    -0.133381       0.057100
      6 C                     0.066525       0.004269
      7 C                    -0.860184       0.176353
      8 C                    -0.616827       0.056613
      9 C                     2.012074       0.055401
     10 C                    -0.671327       0.082708
     11 O                    -0.556361       0.222164
     12 O                    -0.485045       0.193125
     13 H                     0.181437      -0.004091
     14 H                     0.204533      -0.000627
     15 H                     0.199704      -0.005105
     16 H                     0.180665      -0.000314
     17 C                    -0.406242       0.012983
     18 O                    -0.301978       0.016223
     19 H                     0.221048      -0.000488
     20 H                     0.203970       0.002474
     21 H                     0.307802      -0.003450
     22 C                    -0.889516       0.000038
     23 C                    -0.359278      -0.000043
     24 C                    -0.034361      -0.004946
     25 H                     0.182609      -0.001604
     26 H                     0.173258       0.002087
     27 H                     0.118809      -0.000381
     28 H                     0.121924       0.000451
     29 H                     0.130560      -0.000042
     30 H                     0.130810      -0.000058
     31 C                     0.016596      -0.001558
     32 C                     0.044080      -0.000142
     33 C                    -0.052884       0.000411
     34 C                    -0.308352       0.000027
     35 C                    -0.498983       0.000027
     36 C                    -0.298096      -0.000007
     37 C                    -0.710306       0.000003
     38 H                     0.137026      -0.000007
     39 H                     0.137298       0.000003
     40 H                     0.134280       0.000004
     41 H                     0.134336      -0.000004
     42 H                     0.133557      -0.000012
     43 H                     0.133244       0.000004
     44 H                     0.132197      -0.000001
     45 H                     0.131751       0.000001
     46 H                     0.129030       0.000003
     47 H                     0.128986      -0.000002
     48 H                     0.136381      -0.000000
     49 H                     0.136115       0.000001
     50 H                     0.145451       0.000000
     51 H                     0.154761       0.000001
     52 H                     0.145509      -0.000000
  --------------------------------------------------------
  Sum of atomic charges =    -1.000000

                    Cartesian Multipole Moments
 -----------------------------------------------------------------
    Charge (ESU x 10^10)
                -4.8032
    Dipole Moment (Debye)
         X     -18.8047      Y       1.6607      Z       1.2832
       Tot      18.9214
    Quadrupole Moments (Debye-Ang)
        XX    -235.4991     XY      17.9804     YY    -173.6777
        XZ       0.0962     YZ       8.2154     ZZ    -160.0400

 Total job time:  511.83s(wall), 3845.53s(cpu)
        *  Thank you very much for using Q-Chem.  Have a nice day.  *
