 Gaussian 16, Revision A.03,
 Gaussian 16:  ES64L-G16RevA.03 25-Dec-2016

 ----------------------------------------------------------------------
 #P UB3LYP/6-311++G(d,p) nosym opt freq SCRF=(PCM,Solvent=n,n-DiMethylF
 ormamide)
 ----------------------------------------------------------------------

 -------
 Reduced
 -------
 Symbolic Z-matrix:
 Charge = -2 Multiplicity = 1

 SCF Done:  E(UB3LYP) =  -918.296251979     A.U. after   17 cycles
 SCF Done:  E(UB3LYP) =  -918.298203602     A.U. after   12 cycles
 SCF Done:  E(UB3LYP) =  -918.298591565     A.U. after   12 cycles
 SCF Done:  E(UB3LYP) =  -918.298666746     A.U. after   12 cycles
 SCF Done:  E(UB3LYP) =  -918.298790322     A.U. after   12 cycles
 SCF Done:  E(UB3LYP) =  -918.298927095     A.U. after   13 cycles
 SCF Done:  E(UB3LYP) =  -918.298969636     A.U. after   11 cycles
 SCF Done:  E(UB3LYP) =  -918.299082155     A.U. after   11 cycles
 SCF Done:  E(UB3LYP) =  -918.299128376     A.U. after   12 cycles
 SCF Done:  E(UB3LYP) =  -918.299135418     A.U. after   12 cycles
 SCF Done:  E(UB3LYP) =  -918.299099516     A.U. after   11 cycles
 SCF Done:  E(UB3LYP) =  -918.299145870     A.U. after   12 cycles
 SCF Done:  E(UB3LYP) =  -918.299146175     A.U. after   10 cycles
 SCF Done:  E(UB3LYP) =  -918.299144905     A.U. after   10 cycles
 SCF Done:  E(UB3LYP) =  -918.299148149     A.U. after   11 cycles
 SCF Done:  E(UB3LYP) =  -918.299148246     A.U. after    8 cycles
 SCF Done:  E(UB3LYP) =  -918.299148453     A.U. after    9 cycles
 SCF Done:  E(UB3LYP) =  -918.299148475     A.U. after    8 cycles
 Optimization completed.
    -- Stationary point found.
 Normal termination of Gaussian 16 at Sat Feb 10 19:52:19 2024.

 ----------------------------------------------------------------------
 #P Geom=AllCheck Guess=TCheck SCRF=Check GenChk UB3LYP/6-311++G(d,p) F
 req
 ----------------------------------------------------------------------

 Structure from the checkpoint file:  "141-an.chk"
 -------
 Reduced
 -------
 Charge = -2 Multiplicity = 1

                          Input orientation:
 ---------------------------------------------------------------------
 Center     Atomic      Atomic             Coordinates (Angstroms)
 Number     Number       Type             X           Y           Z
 ---------------------------------------------------------------------
      1          6           0       -3.185842    3.678623    0.474304
      2          6           0       -4.418912    3.086625    0.615530
      3          6           0       -4.522340    1.669998    0.517662
      4          6           0       -1.995254    2.933766    0.241055
      5          6           0       -2.107851    1.488551    0.166251
      6          6           0       -3.404429    0.907148    0.301780
      7          6           0       -0.739986    3.621917    0.098526
      8          6           0        0.399165    2.775158   -0.113410
      9          6           0        0.286567    1.329943   -0.188215
     10          6           0       -0.968698    0.641791   -0.045667
     11          6           0        1.695741    3.356562   -0.248958
     12          6           0        2.813648    2.593713   -0.464857
     13          6           0        2.710220    1.177086   -0.562725
     14          6           0        1.477152    0.585087   -0.421484
     15          8           0       -0.644007    4.921665    0.159202
     16          8           0       -1.064682   -0.657955   -0.106381
     17          1           0       -3.491455   -0.171269    0.235219
     18          1           0        1.380225   -0.492135   -0.497574
     19          1           0       -3.088916    4.755845    0.550394
     20          1           0        1.782767    4.434979   -0.182397
     21          8           0        4.042082    3.224991   -0.659338
     22          8           0       -5.750776    1.038720    0.712127
     23          6           0       -6.771834    1.383614   -0.227418
     24          6           0        5.063149    2.880107    0.280201
     25          1           0       -5.302094    3.684894    0.812097
     26          1           0        3.593399    0.578818   -0.759307
     27          1           0       -7.654935    0.804553    0.043632
     28          1           0       -6.463925    1.123437   -1.246668
     29          1           0       -7.018723    2.449101   -0.188766
     30          1           0        5.946252    3.459153    0.009128
     31          1           0        5.310026    1.814616    0.241568
     32          1           0        4.755255    3.140308    1.299449
 ---------------------------------------------------------------------

 SCF Done:  E(UB3LYP) =  -918.299148475     A.U. after    1 cycles

 Alpha  occ. eigenvalues --  -19.13050 -19.13050 -19.01676 -19.01675 -10.20902
 Alpha  occ. eigenvalues --  -10.20902 -10.20337 -10.20336 -10.17165 -10.17163
 Alpha  occ. eigenvalues --  -10.15145 -10.15145 -10.15063 -10.15063 -10.14403
 Alpha  occ. eigenvalues --  -10.14402 -10.13818 -10.13817 -10.13693 -10.13692
 Alpha  occ. eigenvalues --   -1.03891  -1.03890  -0.92922  -0.92494  -0.82765
 Alpha  occ. eigenvalues --   -0.82154  -0.75598  -0.73226  -0.73104  -0.71495
 Alpha  occ. eigenvalues --   -0.68194  -0.67549  -0.63033  -0.61420  -0.57856
 Alpha  occ. eigenvalues --   -0.56912  -0.53088  -0.52027  -0.50641  -0.48646
 Alpha  occ. eigenvalues --   -0.46295  -0.45231  -0.45163  -0.45157  -0.44234
 Alpha  occ. eigenvalues --   -0.43215  -0.41793  -0.40494  -0.40360  -0.39655
 Alpha  occ. eigenvalues --   -0.38156  -0.37954  -0.37286  -0.35720  -0.35662
 Alpha  occ. eigenvalues --   -0.34882  -0.33031  -0.33000  -0.32499  -0.32055
 Alpha  occ. eigenvalues --   -0.30192  -0.29824  -0.27422  -0.26912  -0.23394
 Alpha  occ. eigenvalues --   -0.22479  -0.21678  -0.20644  -0.19950  -0.19390
 Alpha  occ. eigenvalues --   -0.10718
 Alpha virt. eigenvalues --   -0.02782  -0.00099   0.00063   0.00826   0.01443
 Alpha virt. eigenvalues --    0.01634   0.01804   0.02348   0.02796   0.03293
 Alpha virt. eigenvalues --    0.03705   0.04166   0.04629   0.05398   0.05837

  Beta  occ. eigenvalues --  -19.13050 -19.13050 -19.01676 -19.01675 -10.20902
  Beta  occ. eigenvalues --  -10.20902 -10.20337 -10.20336 -10.17165 -10.17163
  Beta  occ. eigenvalues --  -10.15145 -10.15145 -10.15063 -10.15063 -10.14403
  Beta  occ. eigenvalues --  -10.14402 -10.13818 -10.13817 -10.13693 -10.13692
  Beta  occ. eigenvalues --   -1.03891  -1.03890  -0.92922  -0.92494  -0.82765
  Beta  occ. eigenvalues --   -0.82154  -0.75598  -0.73226  -0.73104  -0.71495
  Beta  occ. eigenvalues --   -0.68194  -0.67549  -0.63033  -0.61420  -0.57856
  Beta  occ. eigenvalues --   -0.56912  -0.53088  -0.52027  -0.50641  -0.48646
  Beta  occ. eigenvalues --   -0.46295  -0.45231  -0.45163  -0.45157  -0.44234
  Beta  occ. eigenvalues --   -0.43215  -0.41793  -0.40494  -0.40360  -0.39655
  Beta  occ. eigenvalues --   -0.38156  -0.37954  -0.37286  -0.35720  -0.35662
  Beta  occ. eigenvalues --   -0.34882  -0.33031  -0.33000  -0.32499  -0.32055
  Beta  occ. eigenvalues --   -0.30192  -0.29824  -0.27422  -0.26912  -0.23394
  Beta  occ. eigenvalues --   -0.22479  -0.21678  -0.20644  -0.19950  -0.19390
  Beta  occ. eigenvalues --   -0.10718
  Beta virt. eigenvalues --   -0.02782  -0.00099   0.00063   0.00826   0.01443
  Beta virt. eigenvalues --    0.01634   0.01804   0.02348   0.02796   0.03293
  Beta virt. eigenvalues --    0.03705   0.04166   0.04629   0.05398   0.05837

 Mulliken charges and spin densities:
               1          2
     1  C   -0.162832   0.000000
     2  C    0.115257   0.000000
     3  C   -0.713283  -0.000000
     4  C    0.255875   0.000000
     5  C    0.526565   0.000000
     6  C   -0.252457   0.000000
     7  C   -0.523532   0.000000
     8  C    0.526569  -0.000000
     9  C    0.255866  -0.000000
    10  C   -0.523540   0.000000
    11  C   -0.252458  -0.000000
    12  C   -0.713274   0.000000
    13  C    0.115240   0.000000
    14  C   -0.162826   0.000000
    15  O   -0.677482  -0.000000
    16  O   -0.677482   0.000000
    17  H    0.166444  -0.000000
    18  H    0.152955  -0.000000
    19  H    0.152955   0.000000
    20  H    0.166444  -0.000000
    21  O   -0.212159  -0.000000
    22  O   -0.212159   0.000000
    23  C   -0.276930   0.000000
    24  C   -0.276930   0.000000
    25  H    0.177830   0.000000
    26  H    0.177830   0.000000
    27  H    0.155255  -0.000000
    28  H    0.139210   0.000000
    29  H    0.129292  -0.000000
    30  H    0.155255   0.000000
    31  H    0.129292  -0.000000
    32  H    0.139209  -0.000000
 Sum of Mulliken charges =  -2.00000  -0.00000

 Dipole moment (field-independent basis, Debye):
    X=              8.2072    Y=            -20.4795    Z=             -0.2537  Tot=             22.0642
 Quadrupole moment (field-independent basis, Debye-Ang):
   XX=           -140.4283   YY=           -227.0886   ZZ=           -131.3108
   XY=              3.1224   XZ=             16.3724   YZ=              1.3038

  Exact polarizability: 617.749   6.520 396.916 -44.505  15.373 191.799
 Approx polarizability: 656.556   7.496 466.451 -57.792  15.781 213.997

                      1                      2                      3
                      A                      A                      A
 Frequencies --     25.5550                32.2930                44.6122
 Red. masses --      2.7573                 2.5673                 4.5185
 Frc consts  --      0.0011                 0.0016                 0.0053
 IR Inten    --     27.3492                 0.0000                13.6981

                      4                      5                      6
                      A                      A                      A
 Frequencies --     84.9900                92.3373               137.6837
 Red. masses --      4.6168                 4.3737                 2.2705
 Frc consts  --      0.0196                 0.0220                 0.0254
 IR Inten    --     13.9276                 0.0000                 9.4941

                      7                      8                      9
                      A                      A                      A
 Frequencies --    153.4904               159.0649               178.8543
 Red. masses --      3.3437                 1.3103                 2.4889
 Frc consts  --      0.0464                 0.0195                 0.0469
 IR Inten    --      3.7120                 0.0000                18.9781

                     10                     11                     12
                      A                      A                      A
 Frequencies --    188.3831               227.8170               230.9899
 Red. masses --      3.5763                 3.5304                 5.0586
 Frc consts  --      0.0748                 0.1080                 0.1590
 IR Inten    --      0.0000                 0.4495                 0.0000

                     13                     14                     15
                      A                      A                      A
 Frequencies --    255.1831               307.4879               333.6699
 Red. masses --      5.8344                 7.7781                 8.9687
 Frc consts  --      0.2238                 0.4333                 0.5883
 IR Inten    --      0.0000                 0.0000                 3.0246

                     16                     17                     18
                      A                      A                      A
 Frequencies --    361.3188               363.6021               406.1451
 Red. masses --      5.5091                 6.5180                 6.8303
 Frc consts  --      0.4238                 0.5077                 0.6638
 IR Inten    --     16.5767                 0.0000                 0.0000

                     19                     20                     21
                      A                      A                      A
 Frequencies --    408.2589               436.1248               459.1129
 Red. masses --      5.5452                 3.7109                 6.1043
 Frc consts  --      0.5446                 0.4159                 0.7581
 IR Inten    --     48.5391                16.7541                 0.0000

                     22                     23                     24
                      A                      A                      A
 Frequencies --    479.0418               496.7347               510.5854
 Red. masses --      3.3823                11.4505                 4.7342
 Frc consts  --      0.4573                 1.6647                 0.7272
 IR Inten    --      0.0000                 0.0000                 0.0000

                     25                     26                     27
                      A                      A                      A
 Frequencies --    531.3742               604.2463               626.1185
 Red. masses --      5.0587                 3.3851                 6.1542
 Frc consts  --      0.8416                 0.7282                 1.4215
 IR Inten    --     26.7210                61.0161                 0.0000

                     28                     29                     30
                      A                      A                      A
 Frequencies --    654.7288               674.4316               694.9178
 Red. masses --      6.6262                 3.6387                 6.3015
 Frc consts  --      1.6736                 0.9751                 1.7929
 IR Inten    --     26.3292                 0.0000                 0.0000

                     31                     32                     33
                      A                      A                      A
 Frequencies --    707.7750               713.3328               731.4521
 Red. masses --      6.2829                 4.7859                 5.6229
 Frc consts  --      1.8544                 1.4348                 1.7725
 IR Inten    --    119.9152                34.2326                27.2676

                     34                     35                     36
                      A                      A                      A
 Frequencies --    771.3498               778.6059               801.0802
 Red. masses --      2.2175                 3.9240                 1.6262
 Frc consts  --      0.7774                 1.4016                 0.6149
 IR Inten    --      0.0000                 0.0000                64.2312

                     37                     38                     39
                      A                      A                      A
 Frequencies --    820.4578               869.5053               911.5405
 Red. masses --      3.3837                 6.8599                 1.4653
 Frc consts  --      1.3420                 3.0557                 0.7174
 IR Inten    --      0.0000               176.3842                 0.0000

                     40                     41                     42
                      A                      A                      A
 Frequencies --    911.7802               952.7568               971.9079
 Red. masses --      1.4650                 3.4866                 1.3092
 Frc consts  --      0.7176                 1.8647                 0.7286
 IR Inten    --     56.8727                29.8843                 0.0000

                     43                     44                     45
                      A                      A                      A
 Frequencies --    973.0592               979.4271              1023.5886
 Red. masses --      1.3115                 4.7650                 3.0817
 Frc consts  --      0.7316                 2.6932                 1.9023
 IR Inten    --      5.3462                 0.0000               332.6182

                     46                     47                     48
                      A                      A                      A
 Frequencies --   1024.3565              1079.0590              1117.3621
 Red. masses --      3.9618                 3.6304                 1.5151
 Frc consts  --      2.4493                 2.4905                 1.1145
 IR Inten    --      0.0000               669.1110                 0.0000

                     49                     50                     51
                      A                      A                      A
 Frequencies --   1127.8834              1128.2798              1161.2964
 Red. masses --      2.4648                 2.7141                 1.7433
 Frc consts  --      1.8474                 2.0357                 1.3852
 IR Inten    --      0.0000               874.3076              1124.2174

                     52                     53                     54
                      A                      A                      A
 Frequencies --   1164.5270              1164.8620              1181.8354
 Red. masses --      1.2833                 1.2994                 1.9938
 Frc consts  --      1.0253                 1.0388                 1.6407
 IR Inten    --      0.0000                37.5880               122.4426

                     55                     56                     57
                      A                      A                      A
 Frequencies --   1188.1890              1190.2684              1225.2997
 Red. masses --      1.9667                 1.6808                 2.4121
 Frc consts  --      1.6359                 1.4030                 2.1337
 IR Inten    --      0.0000                 0.0000                91.8682

                     58                     59                     60
                      A                      A                      A
 Frequencies --   1232.3627              1246.0021              1298.1766
 Red. masses --      3.1539                 2.1595                 3.7374
 Frc consts  --      2.8221                 1.9753                 3.7109
 IR Inten    --      0.0000               328.4009                 0.0000

                     61                     62                     63
                      A                      A                      A
 Frequencies --   1323.7661              1331.6829              1353.3554
 Red. masses --      2.7721                 4.3840                 6.0131
 Frc consts  --      2.8620                 4.5806                 6.4889
 IR Inten    --      0.0000              2462.2807               947.7788

                     64                     65                     66
                      A                      A                      A
 Frequencies --   1415.8979              1447.5640              1455.6923
 Red. masses --      5.0561                 4.8586                 1.6522
 Frc consts  --      5.9721                 5.9985                 2.0628
 IR Inten    --    287.0721                 0.0000               195.2522

                     67                     68                     69
                      A                      A                      A
 Frequencies --   1466.7167              1474.1495              1478.4050
 Red. masses --      1.5434                 2.7490                 1.4106
 Frc consts  --      1.9563                 3.5197                 1.8165
 IR Inten    --      0.0000                 0.0000                82.2452

                     70                     71                     72
                      A                      A                      A
 Frequencies --   1479.8622              1480.3991              1494.2602
 Red. masses --      1.0675                 1.2093                 1.0528
 Frc consts  --      1.3774                 1.5614                 1.3850
 IR Inten    --      0.0000                28.6050                53.0078

                     73                     74                     75
                      A                      A                      A
 Frequencies --   1494.4904              1505.9706              1524.6873
 Red. masses --      1.0575                 4.4556                 6.1769
 Frc consts  --      1.3916                 5.9537                 8.4602
 IR Inten    --      0.0000                 0.0000                83.7637

                     76                     77                     78
                      A                      A                      A
 Frequencies --   1575.9841              1614.3463              1616.9374
 Red. masses --      7.9353                 6.4139                 6.5307
 Frc consts  --     11.6123                 9.8485                10.0600
 IR Inten    --      0.0000               455.2143                 0.0000

                     79                     80                     81
                      A                      A                      A
 Frequencies --   3000.0590              3000.2848              3060.6507
 Red. masses --      1.0342                 1.0343                 1.1035
 Frc consts  --      5.4844                 5.4855                 6.0907
 IR Inten    --    262.7745                 0.0001               125.8578

                     82                     83                     84
                      A                      A                      A
 Frequencies --   3060.6529              3115.1539              3115.1782
 Red. masses --      1.1035                 1.1007                 1.1006
 Frc consts  --      6.0907                 6.2931                 6.2930
 IR Inten    --      0.0075               117.6194                 0.0002

                     85                     86                     87
                      A                      A                      A
 Frequencies --   3158.5336              3158.7578              3175.4086
 Red. masses --      1.0857                 1.0858                 1.0941
 Frc consts  --      6.3813                 6.3832                 6.4997
 IR Inten    --      6.1234                 0.0000               105.1513

                     88                     89                     90
                      A                      A                      A
 Frequencies --   3175.4357              3178.0892              3178.7235
 Red. masses --      1.0935                 1.0891                 1.0897
 Frc consts  --      6.4963                 6.4810                 6.4871
 IR Inten    --      0.0011                75.8983                 0.0000

 - Thermochemistry -
 -------------------
 Temperature   298.150 Kelvin.  Pressure   1.00000 Atm.
 Atom     1 has atomic number  6 and mass  12.00000

 Molecular mass:   268.07356 amu.
 Principal axes and moments of inertia in atomic units:
                           1         2         3
     Eigenvalues --  1918.67066********************
           X            0.99183  -0.09947   0.07992
           Y            0.10585   0.99116  -0.07996
           Z           -0.07126   0.08776   0.99359
 This molecule is an asymmetric top.
 Rotational symmetry number  1.
 Warning -- assumption of classical behavior for rotation
           may cause significant error
 Rotational temperatures (Kelvin)      0.04514     0.00820     0.00704
 Rotational constants (GHZ):           0.94062     0.17082     0.14678
 Zero-point vibrational energy     625154.2 (Joules/Mol)
                                  149.41545 (Kcal/Mol)
 Warning -- explicit consideration of  26 degrees of freedom as
           vibrations may cause significant error
 Vibrational temperatures:     36.77    46.46    64.19   122.28   132.85
          (Kelvin)            198.10   220.84   228.86   257.33   271.04
                              327.78   332.34   367.15   442.41   480.08
                              519.86   523.14   584.35   587.39   627.49
                              660.56   689.23   714.69   734.62   764.53
                              869.38   900.84   942.01   970.36   999.83
                             1018.33  1026.33  1052.40  1109.80  1120.24
                             1152.58  1180.46  1251.02  1311.50  1311.85
                             1370.80  1398.36  1400.02  1409.18  1472.72
                             1473.82  1552.53  1607.63  1622.77  1623.34
                             1670.85  1675.49  1675.98  1700.40  1709.54
                             1712.53  1762.93  1773.10  1792.72  1867.79
                             1904.60  1915.99  1947.18  2037.16  2082.72
                             2094.42  2110.28  2120.97  2127.10  2129.19
                             2129.96  2149.91  2150.24  2166.76  2193.69
                             2267.49  2322.68  2326.41  4316.42  4316.74
                             4403.59  4403.60  4482.01  4482.05  4544.43
                             4544.75  4568.70  4568.74  4572.56  4573.47

 Zero-point correction=                           0.238109 (Hartree/Particle)
 Thermal correction to Energy=                    0.255260
 Thermal correction to Enthalpy=                  0.256204
 Thermal correction to Gibbs Free Energy=         0.191932
 Sum of electronic and zero-point Energies=           -918.061040
 Sum of electronic and thermal Energies=              -918.043888
 Sum of electronic and thermal Enthalpies=            -918.042944
 Sum of electronic and thermal Free Energies=         -918.107216

                     E (Thermal)             CV                S
                      KCal/Mol        Cal/Mol-Kelvin    Cal/Mol-Kelvin
 Total                  160.178             65.750            135.272
 Electronic               0.000              0.000              0.000
 Translational            0.889              2.981             42.657
 Rotational               0.889              2.981             33.877
 Vibrational            158.401             59.788             58.738
 Vibration     1          0.593              1.985              6.148
 Vibration     2          0.594              1.983              5.683
 Vibration     3          0.595              1.980              5.043
 Vibration     4          0.601              1.960              3.772
 Vibration     5          0.602              1.955              3.610
 Vibration     6          0.614              1.916              2.836
 Vibration     7          0.619              1.899              2.629
 Vibration     8          0.621              1.892              2.561
 Vibration     9          0.629              1.868              2.340
 Vibration    10          0.633              1.856              2.244
 Vibration    11          0.651              1.799              1.896
 Vibration    12          0.653              1.794              1.871
 Vibration    13          0.666              1.754              1.694
 Vibration    14          0.697              1.659              1.376
 Vibration    15          0.715              1.608              1.242
 Vibration    16          0.735              1.552              1.116
 Vibration    17          0.737              1.547              1.107
 Vibration    18          0.771              1.457              0.940
 Vibration    19          0.773              1.452              0.933
 Vibration    20          0.797              1.391              0.839
 Vibration    21          0.817              1.341              0.769
 Vibration    22          0.835              1.297              0.713
 Vibration    23          0.852              1.257              0.666
 Vibration    24          0.866              1.227              0.632
 Vibration    25          0.886              1.181              0.584
 Vibration    26          0.963              1.023              0.442

 Optimization completed.
    -- Stationary point found.
 Normal termination of Gaussian 16 at Sat Feb 10 21:11:16 2024.
