 Q-Chem 5.4, Q-Chem, Inc., Pleasanton, CA (2021)
 Q-Chem 5.4.0 for Intel X86 EM64T Linux

User input:
--------------------------------------------------------------
$molecule
0 1
C                  2.5611520000     -0.9114090000     -0.1425140000
C                  1.3133130000     -0.0959360000     -0.0072950000
C                  1.2609480000      1.2268610000      0.2365470000
Cl                 2.6864550000      2.2046480000      0.4354950000
C                 -0.0252260000      1.9856640000      0.3606760000
O                 -0.0491980000      3.1748040000      0.5765730000
C                 -1.2775590000      1.1845590000      0.2017060000
C                 -1.2885320000     -0.1392570000     -0.0384780000
C                 -2.5365810000     -0.9530850000     -0.1988140000
C                  0.0256920000     -0.8485020000     -0.1552560000
O                  0.0568750000     -2.0474580000     -0.3720390000
Cl                -2.7520930000      2.0915180000      0.3507730000
H                  2.5994650000     -1.6697390000      0.6448210000
H                  2.5521070000     -1.4547720000     -1.0904590000
H                  3.4534050000     -0.2932000000     -0.0861300000
H                 -3.1603240000     -0.8799610000      0.6963790000
H                 -3.1343870000     -0.5782680000     -1.0344020000
H                 -2.2855120000     -1.9964660000     -0.3775840000
$end
$rem
MAX_SCF_CYCLES=200
BASIS  =  6-311++G(d,p)
GUI  =  2
JOB_TYPE  =  SP
METHOD  =  B3LYP
SOLVENT_METHOD = PCM
$end
$pcm
theory = CPCM
$end
$solvent
dielectric 37.219
opticaldielectric 1.43
$end

--------------------------------------------------------------

             Standard Nuclear Orientation (Angstroms)
    I     Atom           X                Y                Z
 ----------------------------------------------------------------
    1      C       2.5611520000    -0.9114090000    -0.1425140000
    2      C       1.3133130000    -0.0959360000    -0.0072950000
    3      C       1.2609480000     1.2268610000     0.2365470000
    4      Cl      2.6864550000     2.2046480000     0.4354950000
    5      C      -0.0252260000     1.9856640000     0.3606760000
    6      O      -0.0491980000     3.1748040000     0.5765730000
    7      C      -1.2775590000     1.1845590000     0.2017060000
    8      C      -1.2885320000    -0.1392570000    -0.0384780000
    9      C      -2.5365810000    -0.9530850000    -0.1988140000
   10      C       0.0256920000    -0.8485020000    -0.1552560000
   11      O       0.0568750000    -2.0474580000    -0.3720390000
   12      Cl     -2.7520930000     2.0915180000     0.3507730000
   13      H       2.5994650000    -1.6697390000     0.6448210000
   14      H       2.5521070000    -1.4547720000    -1.0904590000
   15      H       3.4534050000    -0.2932000000    -0.0861300000
   16      H      -3.1603240000    -0.8799610000     0.6963790000
   17      H      -3.1343870000    -0.5782680000    -1.0344020000
   18      H      -2.2855120000    -1.9964660000    -0.3775840000
 ----------------------------------------------------------------

    9   -1379.4736157398      4.80e-06  Convergence criterion met
 Total energy in the final basis set =    -1379.4736157398

                    Orbital Energies (a.u.)
 --------------------------------------------------------------

 Alpha MOs
 -- Occupied --
********-101.5764 -19.1555 -19.1518 -10.3092 -10.2996 -10.2707 -10.2694
-10.2334 -10.2326 -10.1803 -10.1792  -9.4918  -9.4910  -7.2564  -7.2558
 -7.2470  -7.2462  -7.2458  -7.2451  -1.0946  -1.0849  -0.9181  -0.9053
 -0.8397  -0.8064  -0.7532  -0.7044  -0.6848  -0.6077  -0.6050  -0.5618
 -0.5087  -0.4872  -0.4819  -0.4605  -0.4601  -0.4442  -0.4423  -0.4364
 -0.4256  -0.4060  -0.4014  -0.3912  -0.3807  -0.3678  -0.3422  -0.3334
 -0.3100  -0.3003  -0.2941  -0.2750

          Ground-State Mulliken Net Atomic Charges

     Atom                 Charge (a.u.)
  ----------------------------------------
      1 C                    -0.538121
      2 C                     0.500432
      3 C                     0.318140
      4 Cl                    0.397285
      5 C                    -1.134334
      6 O                    -0.195701
      7 C                     0.247489
      8 C                     0.584799
      9 C                    -0.641264
     10 C                    -0.912462
     11 O                    -0.242624
     12 Cl                    0.471047
     13 H                     0.210631
     14 H                     0.200900
     15 H                     0.141217
     16 H                     0.198204
     17 H                     0.200252
     18 H                     0.194111
  ----------------------------------------
  Sum of atomic charges =     0.000000

                    Cartesian Multipole Moments
 -----------------------------------------------------------------
    Charge (ESU x 10^10)
                 0.0000
    Dipole Moment (Debye)
         X      -0.0200      Y      -3.2471      Z      -0.5837
       Tot       3.2992
    Quadrupole Moments (Debye-Ang)
        XX     -75.3632     XY       0.1588     YY    -104.9897
        XZ       0.1240     YZ      -4.2973     ZZ     -82.1588

 Total job time:  19.43s(wall), 141.24s(cpu)
        *  Thank you very much for using Q-Chem.  Have a nice day.  *
