 Gaussian 16, Revision A.03,
 Gaussian 16:  ES64L-G16RevA.03 25-Dec-2016

 --------------------------------------
 #P UB3LYP/6-311++G(d,p) nosym opt freq
 --------------------------------------

 -------
 Radical
 -------
 Symbolic Z-matrix:
 Charge = -1 Multiplicity = 2

 SCF Done:  E(UB3LYP) =  -783.687506969     A.U. after   23 cycles
 SCF Done:  E(UB3LYP) =  -783.710709790     A.U. after   18 cycles
 SCF Done:  E(UB3LYP) =  -783.713800715     A.U. after   18 cycles
 SCF Done:  E(UB3LYP) =  -783.714236983     A.U. after   17 cycles
 SCF Done:  E(UB3LYP) =  -783.714740691     A.U. after   16 cycles
 SCF Done:  E(UB3LYP) =  -783.714743896     A.U. after   15 cycles
 SCF Done:  E(UB3LYP) =  -783.714787232     A.U. after   14 cycles
 SCF Done:  E(UB3LYP) =  -783.714789846     A.U. after   13 cycles
 SCF Done:  E(UB3LYP) =  -783.714793444     A.U. after   12 cycles
 SCF Done:  E(UB3LYP) =  -783.714793504     A.U. after   10 cycles
 Optimization completed.
    -- Stationary point found.
 Normal termination of Gaussian 16 at Thu Dec 21 06:39:04 2023.

 ----------------------------------------------------------------------
 #P Geom=AllCheck Guess=TCheck SCRF=Check GenChk UB3LYP/6-311++G(d,p) F
 req
 ----------------------------------------------------------------------

 Structure from the checkpoint file:  "170-rad.chk"
 -------
 Radical
 -------
 Charge = -1 Multiplicity = 2

                          Input orientation:
 ---------------------------------------------------------------------
 Center     Atomic      Atomic             Coordinates (Angstroms)
 Number     Number       Type             X           Y           Z
 ---------------------------------------------------------------------
      1          6           0        3.890972    1.285176   -1.301592
      2          7           0        2.508305    1.057654   -0.992988
      3          6           0        2.048575   -0.016463   -0.277859
      4          6           0        2.924061   -1.001904    0.196947
      5          6           0        2.438604   -2.099654    0.925579
      6          6           0        1.092419   -2.234264    1.191227
      7          6           0        0.173972   -1.264690    0.733641
      8          6           0       -1.243684   -1.467676    1.051019
      9          8           0       -1.640809   -2.463938    1.705516
     10          6           0       -2.173842   -0.449496    0.567897
     11          6           0       -3.553774   -0.581005    0.837231
     12          6           0       -4.460727    0.361907    0.396386
     13          6           0       -4.009615    1.481266   -0.337599
     14          6           0       -2.664300    1.629138   -0.611812
     15          6           0       -1.718784    0.676531   -0.170710
     16          6           0       -0.304878    0.875418   -0.485163
     17          8           0        0.052013    1.902494   -1.150070
     18          6           0        0.631174   -0.132141   -0.011260
     19          1           0        4.326643    0.476647   -1.909167
     20          1           0        4.515297    1.386087   -0.399745
     21          1           0        3.973192    2.213008   -1.871608
     22          1           0        1.770116    1.708991   -1.274323
     23          1           0        3.985884   -0.918178   -0.000143
     24          1           0        3.140979   -2.848864    1.281016
     25          1           0        0.698571   -3.073066    1.750608
     26          1           0       -3.868648   -1.450611    1.402608
     27          1           0       -5.518748    0.244936    0.612462
     28          1           0       -4.721163    2.224506   -0.685520
     29          1           0       -2.291805    2.478190   -1.172578
 ---------------------------------------------------------------------

 SCF Done:  E(UB3LYP) =  -783.714793504     A.U. after    2 cycles

 Alpha  occ. eigenvalues --  -18.95037 -18.94227 -14.19626 -10.10092 -10.09948
 Alpha  occ. eigenvalues --  -10.09561 -10.09195 -10.05678 -10.05630 -10.05168
 Alpha  occ. eigenvalues --  -10.04978 -10.04942 -10.04885 -10.04818 -10.04650
 Alpha  occ. eigenvalues --  -10.04579 -10.04304 -10.03280  -0.87580  -0.86786
 Alpha  occ. eigenvalues --   -0.81546  -0.73600  -0.71864  -0.66081  -0.63096
 Alpha  occ. eigenvalues --   -0.62865  -0.61663  -0.57289  -0.54139  -0.51135
 Alpha  occ. eigenvalues --   -0.49822  -0.46162  -0.44074  -0.41388  -0.40603
 Alpha  occ. eigenvalues --   -0.38382  -0.35753  -0.34928  -0.33888  -0.33859
 Alpha  occ. eigenvalues --   -0.32930  -0.31992  -0.30359  -0.29359  -0.29244
 Alpha  occ. eigenvalues --   -0.28615  -0.27522  -0.27142  -0.25356  -0.25128
 Alpha  occ. eigenvalues --   -0.24608  -0.23502  -0.22430  -0.21820  -0.21269
 Alpha  occ. eigenvalues --   -0.17696  -0.14171  -0.13394  -0.12563  -0.11830
 Alpha  occ. eigenvalues --   -0.10584  -0.08263  -0.01249
 Alpha virt. eigenvalues --    0.07240   0.07624   0.08358   0.09143   0.09968
 Alpha virt. eigenvalues --    0.10272   0.10719   0.11210   0.11990   0.12551
 Alpha virt. eigenvalues --    0.12750   0.13522   0.14398   0.15085   0.15660

  Beta  occ. eigenvalues --  -18.94511 -18.93633 -14.19617 -10.10092 -10.09762
  Beta  occ. eigenvalues --  -10.09564 -10.09068 -10.05627 -10.05578 -10.05107
  Beta  occ. eigenvalues --  -10.04985 -10.04954 -10.04873 -10.04732 -10.04555
  Beta  occ. eigenvalues --  -10.04464 -10.04219 -10.03272  -0.86698  -0.85756
  Beta  occ. eigenvalues --   -0.81463  -0.73370  -0.71709  -0.65682  -0.62970
  Beta  occ. eigenvalues --   -0.62693  -0.61452  -0.57163  -0.53438  -0.50978
  Beta  occ. eigenvalues --   -0.49595  -0.46074  -0.43898  -0.41157  -0.40496
  Beta  occ. eigenvalues --   -0.38289  -0.35578  -0.34694  -0.33848  -0.33724
  Beta  occ. eigenvalues --   -0.32870  -0.31884  -0.30323  -0.29073  -0.28486
  Beta  occ. eigenvalues --   -0.28232  -0.27185  -0.26786  -0.25225  -0.24557
  Beta  occ. eigenvalues --   -0.23441  -0.22679  -0.22290  -0.21080  -0.20680
  Beta  occ. eigenvalues --   -0.17178  -0.12755  -0.12098  -0.11828  -0.11358
  Beta  occ. eigenvalues --   -0.10040  -0.07607
  Beta virt. eigenvalues --    0.04483   0.07238   0.08348   0.08482   0.09134
  Beta virt. eigenvalues --    0.10264   0.10719   0.10903   0.11319   0.11990
  Beta virt. eigenvalues --    0.12543   0.13067   0.13518   0.14388   0.15072

 Mulliken charges and spin densities:
               1          2
     1  C   -0.343418  -0.002376
     2  N   -0.275140   0.005568
     3  C    0.137942   0.010791
     4  C   -0.005175   0.068858
     5  C   -0.443787   0.051007
     6  C   -0.022172   0.029976
     7  C    0.650666   0.079041
     8  C   -0.787271   0.066197
     9  O   -0.358397   0.222971
    10  C    0.162654   0.048051
    11  C    0.000991   0.012173
    12  C   -0.387997   0.041813
    13  C   -0.466276   0.040363
    14  C    0.048270   0.020957
    15  C    0.098141   0.023089
    16  C   -0.359881   0.103686
    17  O   -0.391210   0.195850
    18  C    0.029659   0.002076
    19  H    0.127560   0.001576
    20  H    0.129009   0.001671
    21  H    0.126565  -0.000173
    22  H    0.400688  -0.002906
    23  H    0.107704  -0.005348
    24  H    0.129477  -0.003713
    25  H    0.145607  -0.002339
    26  H    0.151541  -0.001264
    27  H    0.120994  -0.003493
    28  H    0.122511  -0.003406
    29  H    0.150746  -0.000696
 Sum of Mulliken charges =  -1.00000   1.00000

 Dipole moment (field-independent basis, Debye):
    X=              3.8056    Y=              2.5228    Z=             -2.0162  Tot=              4.9912
 Quadrupole moment (field-independent basis, Debye-Ang):
   XX=           -124.1502   YY=           -129.7673   ZZ=           -120.4289
   XY=             -3.2224   XZ=              3.3883   YZ=              9.9767

  Exact polarizability: 353.324 -24.531 214.566 -18.813 -60.019 147.653
 Approx polarizability: 513.603 -27.403 388.827 -30.512-126.366 252.543

                      1                      2                      3
                      A                      A                      A
 Frequencies --     36.1586                56.0344                66.9145
 Red. masses --      3.1974                 7.6377                 5.1098
 Frc consts  --      0.0025                 0.0141                 0.0135
 IR Inten    --      5.4762                 2.0441                 0.0612

                      4                      5                      6
                      A                      A                      A
 Frequencies --    133.0890               165.6952               178.8772
 Red. masses --      4.5265                 3.6730                 3.7381
 Frc consts  --      0.0472                 0.0594                 0.0705
 IR Inten    --      0.0357                 2.8436                 3.0402

                      7                      8                      9
                      A                      A                      A
 Frequencies --    187.8541               229.9240               272.2861
 Red. masses --      2.3527                 1.7790                 4.0974
 Frc consts  --      0.0489                 0.0554                 0.1790
 IR Inten    --      0.0038                 0.0114                 4.8849

                     10                     11                     12
                      A                      A                      A
 Frequencies --    278.3078               326.4703               342.2262
 Red. masses --      4.3873                 4.5801                 8.1300
 Frc consts  --      0.2002                 0.2876                 0.5610
 IR Inten    --      0.1075                 2.7093                 2.7264

                     13                     14                     15
                      A                      A                      A
 Frequencies --    378.4415               418.2429               423.4464
 Red. masses --      7.4703                 6.2388                12.6071
 Frc consts  --      0.6304                 0.6430                 1.3319
 IR Inten    --      4.4100                 0.0211                 9.7257

                     16                     17                     18
                      A                      A                      A
 Frequencies --    438.6262               482.7922               490.4786
 Red. masses --      3.3884                 6.4789                11.5099
 Frc consts  --      0.3841                 0.8898                 1.6314
 IR Inten    --      0.8690                 4.9706                 0.1949

                     19                     20                     21
                      A                      A                      A
 Frequencies --    498.7393               565.5216               597.5445
 Red. masses --      4.1688                 4.2290                 6.2039
 Frc consts  --      0.6110                 0.7969                 1.3051
 IR Inten    --      1.3804                 7.1421                11.2653

                     22                     23                     24
                      A                      A                      A
 Frequencies --    626.4361               646.6294               673.0323
 Red. masses --      5.0472                 4.1568                 5.6685
 Frc consts  --      1.1670                 1.0241                 1.5128
 IR Inten    --      5.4400                 1.9676                 6.9487

                     25                     26                     27
                      A                      A                      A
 Frequencies --    697.0693               701.6795               709.2915
 Red. masses --      1.1242                 5.8184                 2.1712
 Frc consts  --      0.3218                 1.6879                 0.6436
 IR Inten    --     52.1063                 5.0802                81.7345

                     28                     29                     30
                      A                      A                      A
 Frequencies --    737.7440               766.8307               782.8517
 Red. masses --      1.8217                 2.2168                 2.0177
 Frc consts  --      0.5842                 0.7680                 0.7286
 IR Inten    --     14.5421                 8.9829                22.8296

                     31                     32                     33
                      A                      A                      A
 Frequencies --    795.1386               811.6960               844.2703
 Red. masses --      5.9828                 4.2769                 1.5219
 Frc consts  --      2.2286                 1.6602                 0.6391
 IR Inten    --      4.4345                 5.2189                 2.8990

                     34                     35                     36
                      A                      A                      A
 Frequencies --    866.8347               868.1515               931.1674
 Red. masses --      1.5424                 6.0958                 6.6532
 Frc consts  --      0.6828                 2.7069                 3.3989
 IR Inten    --      0.1242                21.6515                 2.7182

                     37                     38                     39
                      A                      A                      A
 Frequencies --    958.0718               980.4232               981.1593
 Red. masses --      1.2729                 1.3420                 1.2778
 Frc consts  --      0.6884                 0.7601                 0.7248
 IR Inten    --      1.0586                 2.1934                 0.6082

                     40                     41                     42
                      A                      A                      A
 Frequencies --    995.7495              1038.0161              1086.8752
 Red. masses --      5.1977                 2.0118                 2.0048
 Frc consts  --      3.0364                 1.2772                 1.3953
 IR Inten    --     28.0220                19.8183                20.6965

                     43                     44                     45
                      A                      A                      A
 Frequencies --   1109.6030              1120.8908              1146.0460
 Red. masses --      2.1029                 1.9875                 1.2741
 Frc consts  --      1.5255                 1.4713                 0.9860
 IR Inten    --     14.7183                17.0922                 0.4108

                     46                     47                     48
                      A                      A                      A
 Frequencies --   1147.6874              1175.1776              1184.7099
 Red. masses --      1.3486                 2.2801                 2.0880
 Frc consts  --      1.0466                 1.8553                 1.7266
 IR Inten    --     15.8692                14.4349                 4.4968

                     49                     50                     51
                      A                      A                      A
 Frequencies --   1187.1664              1205.5436              1236.3810
 Red. masses --      1.4257                 2.0562                 2.9586
 Frc consts  --      1.1839                 1.7607                 2.6647
 IR Inten    --     29.6912                 2.3354                23.3437

                     52                     53                     54
                      A                      A                      A
 Frequencies --   1251.9802              1293.6263              1336.7586
 Red. masses --      1.9604                 3.1161                 2.3675
 Frc consts  --      1.8105                 3.0724                 2.4925
 IR Inten    --     24.5577                70.3158                54.7280

                     55                     56                     57
                      A                      A                      A
 Frequencies --   1361.7554              1371.4945              1404.6465
 Red. masses --      8.6879                 5.9372                 2.8825
 Frc consts  --      9.4921                 6.5799                 3.3508
 IR Inten    --      4.9200                17.0630               269.9211

                     58                     59                     60
                      A                      A                      A
 Frequencies --   1426.7364              1458.3132              1475.6495
 Red. masses --      2.7070                 1.3589                 1.0420
 Frc consts  --      3.2466                 1.7027                 1.3368
 IR Inten    --     77.4476                75.7766                 4.3958

                     61                     62                     63
                      A                      A                      A
 Frequencies --   1477.7631              1481.0129              1508.5625
 Red. masses --      2.5411                 3.3074                 3.5616
 Frc consts  --      3.2695                 4.2742                 4.7755
 IR Inten    --     24.5538                17.9056                 7.5359

                     64                     65                     66
                      A                      A                      A
 Frequencies --   1518.9200              1535.6553              1553.7490
 Red. masses --      1.1266                 5.5688                 3.5085
 Frc consts  --      1.5313                 7.7374                 4.9904
 IR Inten    --     94.1773               579.9803                55.2406

                     67                     68                     69
                      A                      A                      A
 Frequencies --   1586.3131              1613.5685              1621.3600
 Red. masses --      3.1438                 3.7492                 5.2733
 Frc consts  --      4.6610                 5.7513                 8.1675
 IR Inten    --    237.6442               183.3253                46.8031

                     70                     71                     72
                      A                      A                      A
 Frequencies --   1625.8189              2941.3704              2959.7170
 Red. masses --      6.0348                 1.0415                 1.1015
 Frc consts  --      9.3985                 5.3089                 5.6852
 IR Inten    --     11.1872               251.0803                92.2976

                     73                     74                     75
                      A                      A                      A
 Frequencies --   3085.6658              3132.6915              3134.2060
 Red. masses --      1.0915                 1.0846                 1.0868
 Frc consts  --      6.1229                 6.2715                 6.2900
 IR Inten    --     39.3223                20.8208                40.1381

                     76                     77                     78
                      A                      A                      A
 Frequencies --   3152.0692              3178.8762              3182.8931
 Red. masses --      1.0913                 1.0896                 1.0917
 Frc consts  --      6.3884                 6.4876                 6.5161
 IR Inten    --     56.5339                34.3282                16.3387

                     79                     80                     81
                      A                      A                      A
 Frequencies --   3187.4116              3196.2834              3320.7205
 Red. masses --      1.0921                 1.0917                 1.0832
 Frc consts  --      6.5374                 6.5709                 7.0373
 IR Inten    --     25.4469                14.0820               232.0932

 - Thermochemistry -
 -------------------
 Temperature   298.150 Kelvin.  Pressure   1.00000 Atm.
 Atom     1 has atomic number  6 and mass  12.00000

 Molecular mass:   237.07898 amu.
 Principal axes and moments of inertia in atomic units:
                           1         2         3
     Eigenvalues --  2315.627755351.278347655.58579
           X            0.99304  -0.01023   0.11734
           Y           -0.05158   0.85782   0.51136
           Z           -0.10589  -0.51385   0.85132
 This molecule is an asymmetric top.
 Rotational symmetry number  1.
 Warning -- assumption of classical behavior for rotation
           may cause significant error
 Rotational temperatures (Kelvin)      0.03740     0.01619     0.01131
 Rotational constants (GHZ):           0.77937     0.33725     0.23574
 Zero-point vibrational energy     579923.2 (Joules/Mol)
                                  138.60496 (Kcal/Mol)
 Warning -- explicit consideration of  21 degrees of freedom as
           vibrations may cause significant error
 Vibrational temperatures:     52.02    80.62    96.28   191.49   238.40
          (Kelvin)            257.36   270.28   330.81   391.76   400.42
                              469.72   492.39   544.49   601.76   609.24
                              631.09   694.63   705.69   717.57   813.66
                              859.73   901.30   930.36   968.34  1002.93
                             1009.56  1020.51  1061.45  1103.30  1126.35
                             1144.03  1167.85  1214.72  1247.18  1249.08
                             1339.74  1378.45  1410.61  1411.67  1432.66
                             1493.47  1563.77  1596.47  1612.71  1648.90
                             1651.27  1690.82  1704.53  1708.07  1734.51
                             1778.88  1801.32  1861.24  1923.30  1959.26
                             1973.27  2020.97  2052.76  2098.19  2123.13
                             2126.17  2130.85  2170.48  2185.39  2209.47
                             2235.50  2282.35  2321.57  2332.78  2339.19
                             4231.98  4258.37  4439.58  4507.24  4509.42
                             4535.12  4573.69  4579.47  4585.97  4598.74
                             4777.78

 Zero-point correction=                           0.220881 (Hartree/Particle)
 Thermal correction to Energy=                    0.234972
 Thermal correction to Enthalpy=                  0.235916
 Thermal correction to Gibbs Free Energy=         0.178877
 Sum of electronic and zero-point Energies=           -783.493912
 Sum of electronic and thermal Energies=              -783.479822
 Sum of electronic and thermal Enthalpies=            -783.478878
 Sum of electronic and thermal Free Energies=         -783.535917

                     E (Thermal)             CV                S
                      KCal/Mol        Cal/Mol-Kelvin    Cal/Mol-Kelvin
 Total                  147.447             56.387            120.050
 Electronic               0.000              0.000              1.377
 Translational            0.889              2.981             42.291
 Rotational               0.889              2.981             32.917
 Vibrational            145.670             50.426             43.464
 Vibration     1          0.594              1.982              5.459
 Vibration     2          0.596              1.975              4.592
 Vibration     3          0.598              1.970              4.242
 Vibration     4          0.613              1.920              2.901
 Vibration     5          0.624              1.885              2.484
 Vibration     6          0.629              1.868              2.340
 Vibration     7          0.633              1.857              2.249
 Vibration     8          0.652              1.795              1.880
 Vibration     9          0.675              1.724              1.582
 Vibration    10          0.679              1.714              1.544
 Vibration    11          0.710              1.623              1.277
 Vibration    12          0.721              1.591              1.202
 Vibration    13          0.749              1.516              1.045
 Vibration    14          0.781              1.431              0.898
 Vibration    15          0.786              1.419              0.880
 Vibration    16          0.799              1.386              0.831
 Vibration    17          0.839              1.288              0.703
 Vibration    18          0.846              1.271              0.682
 Vibration    19          0.854              1.253              0.661
 Vibration    20          0.921              1.106              0.513
 Vibration    21          0.955              1.037              0.454

                           ! Non-Optimized Parameters !
 Normal termination of Gaussian 16 at Thu Dec 21 07:44:10 2023.
