 Q-Chem 5.4, Q-Chem, Inc., Pleasanton, CA (2021)
 Q-Chem 5.4.0 for Intel X86 EM64T Linux

User input:
--------------------------------------------------------------
$molecule
-1 2
C                  5.7529790000     -5.7076820000      0.4541040000
C                  5.8532890000     -5.8847270000     -0.9144900000
C                  5.1313530000     -5.0454490000     -1.7863270000
C                  4.9361030000     -4.6961520000      0.9977710000
C                  4.2098620000     -3.8520170000      0.1201470000
C                  4.3240920000     -4.0470970000     -1.2707530000
C                  4.8498280000     -4.5321310000      2.4568700000
C                  3.9884970000     -3.4720250000      2.9442090000
C                  3.2836420000     -2.6391250000      2.0811880000
C                  3.3452010000     -2.7846550000      0.6418860000
O                  5.5013730000     -5.2874720000      3.2319060000
O                  2.6908620000     -2.0343320000     -0.1365700000
H                  6.4873520000     -6.6693090000     -1.3176270000
C                  2.3849900000     -1.5343960000      2.5901470000
H                  5.2093430000     -5.1833240000     -2.8610610000
C                  3.9076440000     -3.3131440000      4.4453070000
C                  0.9036940000     -1.9503370000      2.6835730000
C                 -0.0144180000     -0.8148680000      3.1492110000
C                 -1.4923410000     -1.2132660000      3.2358550000
H                  6.2965310000     -6.3376110000      1.1490040000
H                  3.7560330000     -3.3865340000     -1.9159640000
H                  2.4534680000     -0.6941860000      1.8920280000
H                  2.7228180000     -1.1828680000      3.5706260000
H                  4.4365940000     -4.1409200000      4.9182920000
H                  2.8725610000     -3.3008890000      4.8039250000
H                  4.3743070000     -2.3777870000      4.7811750000
H                  0.8056680000     -2.8034840000      3.3670020000
H                  0.5857560000     -2.2981270000      1.6956170000
H                  0.0904940000      0.0341400000      2.4609460000
H                  0.3195600000     -0.4536040000      4.1320950000
H                 -1.5979160000     -2.0641280000      3.9221220000
H                 -1.8245660000     -1.5737570000      2.2537590000
C                 -2.4145640000     -0.0779320000      3.6955000000
C                 -3.8922850000     -0.4772660000      3.7806150000
C                 -4.8144700000      0.6584520000      4.2389650000
C                 -6.2918200000      0.2587160000      4.3237480000
C                 -7.2145690000      1.3938480000      4.7820850000
C                 -8.6883460000      0.9841560000      4.8633890000
H                 -2.3095170000      0.7722670000      3.0086170000
H                 -2.0813900000      0.2836670000      4.6775840000
H                 -3.9976700000     -1.3274750000      4.4674030000
H                 -4.2251760000     -0.8388900000      2.7989240000
H                 -4.7093690000      1.5084200000      3.5518760000
H                 -4.4815140000      1.0203290000      5.2207840000
H                 -6.3981290000     -0.5913150000      5.0107570000
H                 -6.6258980000     -0.1027470000      3.3421990000
H                 -7.1095450000      2.2429590000      4.0954910000
H                 -6.8818010000      1.7548700000      5.7631250000
H                 -9.0599380000      0.6508630000      3.8889480000
H                 -9.3192010000      1.8152600000      5.1927450000
H                 -8.8306420000      0.1591090000      5.5689420000
$end

$rem
BASIS  =  6-311++G(d,p)
GUI  =  2
JOB_TYPE  =  SP
METHOD  =  B3LYP
SCF_CONVERGENCE  = 8
SOLVENT_METHOD = sm12
$end

$smx
solvent dimethylformamide
charges CM5
$end

--------------------------------------------------------------

             Standard Nuclear Orientation (Angstroms)
    I     Atom           X                Y                Z
 ----------------------------------------------------------------
    1      C       5.7529790000    -5.7076820000     0.4541040000
    2      C       5.8532890000    -5.8847270000    -0.9144900000
    3      C       5.1313530000    -5.0454490000    -1.7863270000
    4      C       4.9361030000    -4.6961520000     0.9977710000
    5      C       4.2098620000    -3.8520170000     0.1201470000
    6      C       4.3240920000    -4.0470970000    -1.2707530000
    7      C       4.8498280000    -4.5321310000     2.4568700000
    8      C       3.9884970000    -3.4720250000     2.9442090000
    9      C       3.2836420000    -2.6391250000     2.0811880000
   10      C       3.3452010000    -2.7846550000     0.6418860000
   11      O       5.5013730000    -5.2874720000     3.2319060000
   12      O       2.6908620000    -2.0343320000    -0.1365700000
   13      H       6.4873520000    -6.6693090000    -1.3176270000
   14      C       2.3849900000    -1.5343960000     2.5901470000
   15      H       5.2093430000    -5.1833240000    -2.8610610000
   16      C       3.9076440000    -3.3131440000     4.4453070000
   17      C       0.9036940000    -1.9503370000     2.6835730000
   18      C      -0.0144180000    -0.8148680000     3.1492110000
   19      C      -1.4923410000    -1.2132660000     3.2358550000
   20      H       6.2965310000    -6.3376110000     1.1490040000
   21      H       3.7560330000    -3.3865340000    -1.9159640000
   22      H       2.4534680000    -0.6941860000     1.8920280000
   23      H       2.7228180000    -1.1828680000     3.5706260000
   24      H       4.4365940000    -4.1409200000     4.9182920000
   25      H       2.8725610000    -3.3008890000     4.8039250000
   26      H       4.3743070000    -2.3777870000     4.7811750000
   27      H       0.8056680000    -2.8034840000     3.3670020000
   28      H       0.5857560000    -2.2981270000     1.6956170000
   29      H       0.0904940000     0.0341400000     2.4609460000
   30      H       0.3195600000    -0.4536040000     4.1320950000
   31      H      -1.5979160000    -2.0641280000     3.9221220000
   32      H      -1.8245660000    -1.5737570000     2.2537590000
   33      C      -2.4145640000    -0.0779320000     3.6955000000
   34      C      -3.8922850000    -0.4772660000     3.7806150000
   35      C      -4.8144700000     0.6584520000     4.2389650000
   36      C      -6.2918200000     0.2587160000     4.3237480000
   37      C      -7.2145690000     1.3938480000     4.7820850000
   38      C      -8.6883460000     0.9841560000     4.8633890000
   39      H      -2.3095170000     0.7722670000     3.0086170000
   40      H      -2.0813900000     0.2836670000     4.6775840000
   41      H      -3.9976700000    -1.3274750000     4.4674030000
   42      H      -4.2251760000    -0.8388900000     2.7989240000
   43      H      -4.7093690000     1.5084200000     3.5518760000
   44      H      -4.4815140000     1.0203290000     5.2207840000
   45      H      -6.3981290000    -0.5913150000     5.0107570000
   46      H      -6.6258980000    -0.1027470000     3.3421990000
   47      H      -7.1095450000     2.2429590000     4.0954910000
   48      H      -6.8818010000     1.7548700000     5.7631250000
   49      H      -9.0599380000     0.6508630000     3.8889480000
   50      H      -9.3192010000     1.8152600000     5.1927450000
   51      H      -8.8306420000     0.1591090000     5.5689420000
 ----------------------------------------------------------------

   16    -967.9010892356      3.76e-09  Convergence criterion met
 Total energy in the final basis set =     -967.9911848211

                    Orbital Energies (a.u.)
 --------------------------------------------------------------

 Alpha MOs
 -- Occupied --
-19.0724 -19.0716 -10.2187 -10.2174 -10.1812 -10.1807 -10.1768 -10.1767
-10.1762 -10.1756 -10.1718 -10.1681 -10.1648 -10.1636 -10.1632 -10.1629
-10.1628 -10.1624 -10.1624 -10.1622 -10.1619 -10.1615 -10.1573  -0.9966
 -0.9940  -0.8619  -0.8250  -0.8135  -0.7974  -0.7752  -0.7593  -0.7549
 -0.7404  -0.7117  -0.6862  -0.6624  -0.6492  -0.6174  -0.6019  -0.5879
 -0.5803  -0.5752  -0.5743  -0.5549  -0.5188  -0.4948  -0.4873  -0.4738
 -0.4677  -0.4584  -0.4461  -0.4379  -0.4319  -0.4310  -0.4272  -0.4198
 -0.4152  -0.4107  -0.4065  -0.4016  -0.3951  -0.3897  -0.3871  -0.3840
 -0.3726  -0.3712  -0.3643  -0.3597  -0.3535  -0.3503  -0.3434  -0.3413
 -0.3359  -0.3351  -0.3291  -0.3263  -0.3250  -0.3229  -0.3226  -0.3027
 -0.2689  -0.2617  -0.2453  -0.2423  -0.2315  -0.1504

 Beta MOs
 -- Occupied --
-19.0659 -19.0651 -10.2173 -10.2160 -10.1808 -10.1803 -10.1767 -10.1767
-10.1755 -10.1750 -10.1704 -10.1667 -10.1648 -10.1637 -10.1631 -10.1629
-10.1628 -10.1624 -10.1624 -10.1622 -10.1619 -10.1616 -10.1573  -0.9854
 -0.9825  -0.8599  -0.8222  -0.8127  -0.7967  -0.7742  -0.7578  -0.7533
 -0.7393  -0.7099  -0.6850  -0.6582  -0.6462  -0.6167  -0.6008  -0.5861
 -0.5799  -0.5745  -0.5742  -0.5525  -0.5169  -0.4926  -0.4872  -0.4734
 -0.4655  -0.4577  -0.4455  -0.4363  -0.4314  -0.4272  -0.4261  -0.4180
 -0.4140  -0.4082  -0.4017  -0.3962  -0.3923  -0.3891  -0.3865  -0.3818
 -0.3706  -0.3653  -0.3615  -0.3533  -0.3465  -0.3425  -0.3418  -0.3375
 -0.3347  -0.3333  -0.3286  -0.3256  -0.3249  -0.3226  -0.3225  -0.3019
 -0.2551  -0.2480  -0.2364  -0.2322  -0.2256

          Ground-State Mulliken Net Atomic Charges

     Atom                 Charge (a.u.)    Spin (a.u.)
  --------------------------------------------------------
      1 C                    -0.092285       0.030518
      2 C                     0.883003       0.027381
      3 C                     0.868186       0.028323
      4 C                    -1.362055       0.017793
      5 C                    -1.021969       0.027376
      6 C                    -0.046784       0.034070
      7 C                    -2.038120       0.067023
      8 C                    -0.263353       0.092423
      9 C                     0.734136       0.098069
     10 C                    -2.066123       0.072980
     11 O                    -0.327296       0.243878
     12 O                    -0.269273       0.244608
     13 H                     0.356939      -0.002303
     14 C                    -0.559745       0.014880
     15 H                     0.354478      -0.002191
     16 C                     0.567571      -0.000313
     17 C                    -2.725989       0.000143
     18 C                    -0.889977       0.006815
     19 C                     0.045416      -0.006921
     20 H                     0.148603      -0.002352
     21 H                     0.145508      -0.002699
     22 H                     0.119513       0.003355
     23 H                     0.264028       0.000439
     24 H                     0.193758      -0.001840
     25 H                     0.241241       0.004635
     26 H                     0.201415       0.006027
     27 H                     0.028389      -0.000780
     28 H                     0.098420      -0.000530
     29 H                     0.171694       0.000312
     30 H                     0.176949      -0.000527
     31 H                     0.155525       0.000172
     32 H                     0.113595      -0.000158
     33 C                     1.132255      -0.000706
     34 C                     1.116934      -0.000114
     35 C                     0.908788       0.000187
     36 C                     0.367236       0.000026
     37 C                     0.057707       0.000016
     38 C                    -0.402778      -0.000012
     39 H                     0.105028      -0.000005
     40 H                     0.108104       0.000004
     41 H                     0.109587      -0.000005
     42 H                     0.109772       0.000004
     43 H                     0.120737       0.000002
     44 H                     0.124696      -0.000001
     45 H                     0.107041       0.000000
     46 H                     0.105290      -0.000001
     47 H                     0.123619      -0.000001
     48 H                     0.124792      -0.000000
     49 H                     0.139620       0.000000
     50 H                     0.195868      -0.000002
     51 H                     0.140306       0.000001
  --------------------------------------------------------
  Sum of atomic charges =    -1.000000

                    Cartesian Multipole Moments
 -----------------------------------------------------------------
    Charge (ESU x 10^10)
                -4.8032
    Dipole Moment (Debye)
         X     -19.9849      Y      18.1488      Z      -6.8029
       Tot      27.8398
    Quadrupole Moments (Debye-Ang)
        XX    -246.0706     XY      85.6039     YY    -230.7513
        XZ     -36.5658     YZ      36.2762     ZZ    -171.0290

 Total job time:  2582.60s(wall), 19191.95s(cpu)
        *  Thank you very much for using Q-Chem.  Have a nice day.  *
