 Gaussian 16, Revision A.03,
 Gaussian 16:  ES64L-G16RevA.03 25-Dec-2016

 --------------------------------------
 #P UB3LYP/6-311++G(d,p) nosym opt freq
 --------------------------------------

 -------
 Radical
 -------
 Symbolic Z-matrix:
 Charge = -1 Multiplicity = 2

 SCF Done:  E(UB3LYP) =  -967.905180820     A.U. after   22 cycles
 Optimization completed.
    -- Stationary point found.
 Normal termination of Gaussian 16 at Sun Jan  7 20:49:34 2024.

 ----------------------------------------------------------------------
 #P Geom=AllCheck Guess=TCheck SCRF=Check GenChk UB3LYP/6-311++G(d,p) F
 req
 ----------------------------------------------------------------------

 Structure from the checkpoint file:  "249-rad.chk"
 -------
 Radical
 -------
 Charge = -1 Multiplicity = 2

                          Input orientation:
 ---------------------------------------------------------------------
 Center     Atomic      Atomic             Coordinates (Angstroms)
 Number     Number       Type             X           Y           Z
 ---------------------------------------------------------------------
      1          6           0        5.752979   -5.707682    0.454104
      2          6           0        5.853289   -5.884727   -0.914490
      3          6           0        5.131353   -5.045449   -1.786327
      4          6           0        4.936103   -4.696152    0.997771
      5          6           0        4.209862   -3.852017    0.120147
      6          6           0        4.324092   -4.047097   -1.270753
      7          6           0        4.849828   -4.532131    2.456870
      8          6           0        3.988497   -3.472025    2.944209
      9          6           0        3.283642   -2.639125    2.081188
     10          6           0        3.345201   -2.784655    0.641886
     11          8           0        5.501373   -5.287472    3.231906
     12          8           0        2.690862   -2.034332   -0.136570
     13          1           0        6.487352   -6.669309   -1.317627
     14          6           0        2.384990   -1.534396    2.590147
     15          1           0        5.209343   -5.183324   -2.861061
     16          6           0        3.907644   -3.313144    4.445307
     17          6           0        0.903694   -1.950337    2.683573
     18          6           0       -0.014418   -0.814868    3.149211
     19          6           0       -1.492341   -1.213266    3.235855
     20          1           0        6.296531   -6.337611    1.149004
     21          1           0        3.756033   -3.386534   -1.915964
     22          1           0        2.453468   -0.694186    1.892028
     23          1           0        2.722818   -1.182868    3.570626
     24          1           0        4.436594   -4.140920    4.918292
     25          1           0        2.872561   -3.300889    4.803925
     26          1           0        4.374307   -2.377787    4.781175
     27          1           0        0.805668   -2.803484    3.367002
     28          1           0        0.585756   -2.298127    1.695617
     29          1           0        0.090494    0.034140    2.460946
     30          1           0        0.319560   -0.453604    4.132095
     31          1           0       -1.597916   -2.064128    3.922122
     32          1           0       -1.824566   -1.573757    2.253759
     33          6           0       -2.414564   -0.077932    3.695500
     34          6           0       -3.892285   -0.477266    3.780615
     35          6           0       -4.814470    0.658452    4.238965
     36          6           0       -6.291820    0.258716    4.323748
     37          6           0       -7.214569    1.393848    4.782085
     38          6           0       -8.688346    0.984156    4.863389
     39          1           0       -2.309517    0.772267    3.008617
     40          1           0       -2.081390    0.283667    4.677584
     41          1           0       -3.997670   -1.327475    4.467403
     42          1           0       -4.225176   -0.838890    2.798924
     43          1           0       -4.709369    1.508420    3.551876
     44          1           0       -4.481514    1.020329    5.220784
     45          1           0       -6.398129   -0.591315    5.010757
     46          1           0       -6.625898   -0.102747    3.342199
     47          1           0       -7.109545    2.242959    4.095491
     48          1           0       -6.881801    1.754870    5.763125
     49          1           0       -9.059938    0.650863    3.888948
     50          1           0       -9.319201    1.815260    5.192745
     51          1           0       -8.830642    0.159109    5.568942
 ---------------------------------------------------------------------

 SCF Done:  E(UB3LYP) =  -967.905180820     A.U. after    1 cycles

 Alpha  occ. eigenvalues --  -18.93850 -18.93828 -10.11864 -10.11538 -10.11208
 Alpha  occ. eigenvalues --  -10.10701 -10.10020 -10.09244 -10.08552 -10.08512
 Alpha  occ. eigenvalues --  -10.08200 -10.07056 -10.05498 -10.05405 -10.05356
 Alpha  occ. eigenvalues --  -10.04617 -10.04601 -10.04481 -10.04368 -10.04317
 Alpha  occ. eigenvalues --  -10.04169 -10.03826 -10.03773  -0.86321  -0.86036
 Alpha  occ. eigenvalues --   -0.75619  -0.73179  -0.72826  -0.70310  -0.68838
 Alpha  occ. eigenvalues --   -0.66042  -0.63428  -0.62444  -0.61984  -0.58898
 Alpha  occ. eigenvalues --   -0.56253  -0.53884  -0.52845  -0.52189  -0.50648
 Alpha  occ. eigenvalues --   -0.48646  -0.47322  -0.45772  -0.43018  -0.42496
 Alpha  occ. eigenvalues --   -0.40418  -0.39114  -0.38453  -0.37506  -0.36920
 Alpha  occ. eigenvalues --   -0.36206  -0.34757  -0.34018  -0.33683  -0.32870
 Alpha  occ. eigenvalues --   -0.32449  -0.31400  -0.30420  -0.30254  -0.29969
 Alpha  occ. eigenvalues --   -0.29161  -0.28891  -0.28380  -0.27733  -0.27687
 Alpha  occ. eigenvalues --   -0.27431  -0.27137  -0.26484  -0.26315  -0.25957
 Alpha  occ. eigenvalues --   -0.25696  -0.24775  -0.24198  -0.23950  -0.23206
 Alpha  occ. eigenvalues --   -0.22851  -0.22113  -0.21713  -0.20805  -0.20486
 Alpha  occ. eigenvalues --   -0.13710  -0.13024  -0.11578  -0.10893  -0.09885
 Alpha  occ. eigenvalues --   -0.01756
 Alpha virt. eigenvalues --    0.03574   0.05377   0.05717   0.05863   0.07514
 Alpha virt. eigenvalues --    0.07828   0.08291   0.08473   0.09040   0.09143
 Alpha virt. eigenvalues --    0.09328   0.09975   0.10335   0.10568   0.10810

  Beta  occ. eigenvalues --  -18.93190 -18.93183 -10.11864 -10.11538 -10.11208
  Beta  occ. eigenvalues --  -10.10701 -10.10020 -10.09243 -10.08420 -10.08375
  Beta  occ. eigenvalues --  -10.08199 -10.07054 -10.05484 -10.05367 -10.05318
  Beta  occ. eigenvalues --  -10.04623 -10.04608 -10.04492 -10.04301 -10.04250
  Beta  occ. eigenvalues --  -10.04017 -10.03786 -10.03689  -0.85208  -0.84887
  Beta  occ. eigenvalues --   -0.75619  -0.72986  -0.72822  -0.70200  -0.68582
  Beta  occ. eigenvalues --   -0.65928  -0.63267  -0.62293  -0.61864  -0.58738
  Beta  occ. eigenvalues --   -0.56121  -0.53755  -0.52554  -0.51895  -0.50591
  Beta  occ. eigenvalues --   -0.48596  -0.47214  -0.45475  -0.43018  -0.42259
  Beta  occ. eigenvalues --   -0.40414  -0.38961  -0.38452  -0.37468  -0.36747
  Beta  occ. eigenvalues --   -0.36166  -0.34713  -0.33972  -0.33487  -0.32794
  Beta  occ. eigenvalues --   -0.32396  -0.31353  -0.30210  -0.30032  -0.29931
  Beta  occ. eigenvalues --   -0.29016  -0.28832  -0.28180  -0.27624  -0.27427
  Beta  occ. eigenvalues --   -0.27261  -0.26495  -0.26354  -0.26256  -0.25832
  Beta  occ. eigenvalues --   -0.25350  -0.24718  -0.24071  -0.23293  -0.23143
  Beta  occ. eigenvalues --   -0.22009  -0.21066  -0.20930  -0.20354  -0.20203
  Beta  occ. eigenvalues --   -0.12400  -0.11585  -0.10326  -0.10157  -0.09278
  Beta virt. eigenvalues --    0.03574   0.04868   0.05377   0.05717   0.05863
  Beta virt. eigenvalues --    0.07514   0.07827   0.08290   0.08467   0.09041
  Beta virt. eigenvalues --    0.09189   0.09888   0.09978   0.10339   0.10631

 Mulliken charges and spin densities:
               1          2
     1  C    0.159912   0.023323
     2  C   -0.375755   0.028916
     3  C   -0.374673   0.029038
     4  C    0.356016   0.023568
     5  C   -0.140494   0.029855
     6  C    0.071225   0.027404
     7  C   -1.054198   0.062772
     8  C    1.136770   0.107521
     9  C    1.186910   0.095335
    10  C   -1.088047   0.073335
    11  O   -0.386234   0.246691
    12  O   -0.367562   0.240047
    13  H    0.118686  -0.002568
    14  C   -0.581272   0.012385
    15  H    0.117578  -0.002399
    16  C   -0.592206  -0.003501
    17  C   -1.011556  -0.000696
    18  C   -0.258337   0.008609
    19  C   -0.012167  -0.007110
    20  H    0.160842  -0.002082
    21  H    0.160320  -0.002349
    22  H    0.227663   0.003297
    23  H    0.156371   0.000719
    24  H    0.195875  -0.002013
    25  H    0.131337   0.005806
    26  H    0.139766   0.006903
    27  H    0.103708  -0.001578
    28  H    0.199754  -0.000668
    29  H    0.115282   0.000636
    30  H    0.092090  -0.000701
    31  H    0.119237   0.000415
    32  H    0.123126  -0.000234
    33  C    0.096720  -0.000738
    34  C    0.018505  -0.000172
    35  C   -0.202984   0.000195
    36  C   -0.423385   0.000045
    37  C   -0.259814   0.000014
    38  C   -0.673319  -0.000014
    39  H    0.122010  -0.000015
    40  H    0.119135   0.000025
    41  H    0.120828  -0.000015
    42  H    0.123848  -0.000003
    43  H    0.119355   0.000003
    44  H    0.117834  -0.000002
    45  H    0.116806   0.000002
    46  H    0.117683  -0.000001
    47  H    0.125945  -0.000001
    48  H    0.125240   0.000000
    49  H    0.134450   0.000001
    50  H    0.137325  -0.000003
    51  H    0.133855   0.000000
 Sum of Mulliken charges =  -1.00000   1.00000

 Dipole moment (field-independent basis, Debye):
    X=            -18.8035    Y=             17.7242    Z=             -6.8625  Tot=             26.7360
 Quadrupole moment (field-independent basis, Debye-Ang):
   XX=           -250.6751   YY=           -231.1544   ZZ=           -175.5503
   XY=             86.3550   XZ=            -29.1473   YZ=             31.7762

  Exact polarizability: 300.603 -85.425 266.091 -28.819  26.182 308.743
 Approx polarizability: 375.772-102.877 415.652  13.901  -6.995 489.986

                      1                      2                      3
                      A                      A                      A
 Frequencies --     12.9238                20.4621                27.4522
 Red. masses --      4.7207                 4.8876                 1.5743
 Frc consts  --      0.0005                 0.0012                 0.0007
 IR Inten    --      0.0315                 0.0815                 0.0293

                      4                      5                      6
                      A                      A                      A
 Frequencies --     34.5510                48.2543                73.9084
 Red. masses --      4.1192                 4.7633                 2.9278
 Frc consts  --      0.0029                 0.0065                 0.0094
 IR Inten    --      0.4480                 1.6196                 2.4247

                      7                      8                      9
                      A                      A                      A
 Frequencies --     76.9146                82.7486               101.4014
 Red. masses --      2.0414                 3.2826                 2.1594
 Frc consts  --      0.0071                 0.0132                 0.0131
 IR Inten    --      0.3354                 5.6543                 0.0515

                     10                     11                     12
                      A                      A                      A
 Frequencies --    116.2494               122.7842               124.7825
 Red. masses --      1.4306                 3.2238                 1.8371
 Frc consts  --      0.0114                 0.0286                 0.0169
 IR Inten    --      0.3554                 0.5482                 0.0682

                     13                     14                     15
                      A                      A                      A
 Frequencies --    125.9402               142.3397               160.2625
 Red. masses --      2.1711                 4.7541                 1.8386
 Frc consts  --      0.0203                 0.0568                 0.0278
 IR Inten    --      0.2580                 0.1397                 0.0099

                     16                     17                     18
                      A                      A                      A
 Frequencies --    162.6317               176.7886               201.5150
 Red. masses --      2.1403                 6.1046                 3.9001
 Frc consts  --      0.0334                 0.1124                 0.0933
 IR Inten    --      0.0377                 1.2687                 0.0844

                     19                     20                     21
                      A                      A                      A
 Frequencies --    244.0290               245.8743               255.8896
 Red. masses --      1.1194                 3.8128                 4.2637
 Frc consts  --      0.0393                 0.1358                 0.1645
 IR Inten    --      0.0001                 0.3365                 3.9403

                     22                     23                     24
                      A                      A                      A
 Frequencies --    310.7309               329.9614               339.0814
 Red. masses --      4.1745                 3.1823                 2.6798
 Frc consts  --      0.2375                 0.2041                 0.1815
 IR Inten    --      1.0009                 0.1355                 0.4714

                     25                     26                     27
                      A                      A                      A
 Frequencies --    349.9018               387.5366               392.0294
 Red. masses --      4.0050                 7.5461                 4.0518
 Frc consts  --      0.2889                 0.6677                 0.3669
 IR Inten    --      0.8591                10.2788                 1.2414

                     28                     29                     30
                      A                      A                      A
 Frequencies --    427.8569               429.2836               445.9878
 Red. masses --      6.2199                 4.6780                 3.9059
 Frc consts  --      0.6709                 0.5079                 0.4577
 IR Inten    --      2.9218                 0.4514                 1.3991

                     31                     32                     33
                      A                      A                      A
 Frequencies --    457.1130               491.1826               495.5075
 Red. masses --      3.4910                 4.6524                 3.3529
 Frc consts  --      0.4298                 0.6613                 0.4850
 IR Inten    --      0.6771                 0.7562                 0.1387

                     34                     35                     36
                      A                      A                      A
 Frequencies --    527.6867               563.2807               638.3260
 Red. masses --      5.8020                 4.8371                 5.0412
 Frc consts  --      0.9519                 0.9042                 1.2102
 IR Inten    --      0.7852                 3.9051                17.6884

                     37                     38                     39
                      A                      A                      A
 Frequencies --    676.0387               676.5436               691.8256
 Red. masses --      5.4235                 3.4652                 3.5283
 Frc consts  --      1.4604                 0.9345                 0.9950
 IR Inten    --      1.1337                 1.8442                21.8508

                     40                     41                     42
                      A                      A                      A
 Frequencies --    718.6448               729.9073               730.7495
 Red. masses --      3.0216                 1.0706                 1.0780
 Frc consts  --      0.9194                 0.3361                 0.3392
 IR Inten    --     34.8655                 4.5708                 1.1150

                     43                     44                     45
                      A                      A                      A
 Frequencies --    737.0891               756.3155               778.9525
 Red. masses --      1.1296                 1.1980                 1.8793
 Frc consts  --      0.3616                 0.4038                 0.6718
 IR Inten    --      1.0605                 0.3988                22.3175

                     46                     47                     48
                      A                      A                      A
 Frequencies --    791.6582               800.0059               829.5406
 Red. masses --      1.3640                 4.3396                 1.9583
 Frc consts  --      0.5037                 1.6364                 0.7940
 IR Inten    --      0.1806                 0.1120                 3.6681

                     49                     50                     51
                      A                      A                      A
 Frequencies --    860.5373               871.0332               894.2571
 Red. masses --      1.5653                 1.4781                 1.9826
 Frc consts  --      0.6830                 0.6607                 0.9341
 IR Inten    --      0.8168                 0.0007                 1.5429

                     52                     53                     54
                      A                      A                      A
 Frequencies --    903.7568               930.9868               975.7079
 Red. masses --      2.0299                 1.8047                 4.1150
 Frc consts  --      0.9768                 0.9216                 2.3081
 IR Inten    --      2.9101                 5.2587                 1.7584

                     55                     56                     57
                      A                      A                      A
 Frequencies --    978.3666               980.4021               985.1944
 Red. masses --      1.3805                 1.2589                 1.6431
 Frc consts  --      0.7786                 0.7129                 0.9396
 IR Inten    --      2.5330                 0.0382                 0.3963

                     58                     59                     60
                      A                      A                      A
 Frequencies --    989.8304              1003.7144              1012.6124
 Red. masses --      2.5264                 3.5662                 3.5665
 Frc consts  --      1.4584                 2.1168                 2.1547
 IR Inten    --      4.2123                 0.6114                 0.2945

                     61                     62                     63
                      A                      A                      A
 Frequencies --   1034.7430              1037.1126              1042.4113
 Red. masses --      1.7426                 2.6885                 1.3901
 Frc consts  --      1.0993                 1.7038                 0.8900
 IR Inten    --     16.5730                 2.0783                 5.5331

                     64                     65                     66
                      A                      A                      A
 Frequencies --   1043.5373              1056.6404              1063.5757
 Red. masses --      1.5907                 2.6110                 2.1848
 Frc consts  --      1.0206                 1.7176                 1.4561
 IR Inten    --      0.4186                 0.0724                 1.2313

                     67                     68                     69
                      A                      A                      A
 Frequencies --   1064.7337              1067.1062              1080.1740
 Red. masses --      2.2563                 1.6346                 2.8811
 Frc consts  --      1.5071                 1.0966                 1.9806
 IR Inten    --      0.3206                 2.8743                 0.6290

                     70                     71                     72
                      A                      A                      A
 Frequencies --   1105.5214              1137.7317              1141.1096
 Red. masses --      2.0738                 2.6129                 1.8430
 Frc consts  --      1.4933                 1.9928                 1.4139
 IR Inten    --      5.1419                11.8684                22.1615

                     73                     74                     75
                      A                      A                      A
 Frequencies --   1145.3822              1182.4981              1206.4228
 Red. masses --      1.4622                 2.5731                 1.9296
 Frc consts  --      1.1302                 2.1199                 1.6547
 IR Inten    --      4.4419                 0.5770                 0.3810

                     76                     77                     78
                      A                      A                      A
 Frequencies --   1212.4236              1225.0713              1234.0113
 Red. masses --      1.9503                 1.2586                 2.3992
 Frc consts  --      1.6891                 1.1129                 2.1526
 IR Inten    --      1.5844                 0.2465                18.9344

                     79                     80                     81
                      A                      A                      A
 Frequencies --   1244.1968              1262.8477              1270.6982
 Red. masses --      1.9002                 1.3020                 1.7730
 Frc consts  --      1.7331                 1.2234                 1.6867
 IR Inten    --     10.2170                 0.2891                26.3366

                     82                     83                     84
                      A                      A                      A
 Frequencies --   1279.2075              1299.4086              1305.8208
 Red. masses --      1.5018                 1.3191                 1.2696
 Frc consts  --      1.4479                 1.3122                 1.2755
 IR Inten    --      5.1060                 1.5285                 0.5020

                     85                     86                     87
                      A                      A                      A
 Frequencies --   1321.4002              1325.7741              1329.1824
 Red. masses --      1.0251                 1.1714                 1.0569
 Frc consts  --      1.0546                 1.2131                 1.1001
 IR Inten    --      0.6966                 0.1588                 1.1101

                     88                     89                     90
                      A                      A                      A
 Frequencies --   1333.2906              1336.7128              1337.2714
 Red. masses --      1.3341                 1.0827                 1.1345
 Frc consts  --      1.3973                 1.1398                 1.1953
 IR Inten    --      2.3452                 0.6236                 0.3481

                     91                     92                     93
                      A                      A                      A
 Frequencies --   1357.2295              1360.2065              1377.0704
 Red. masses --      9.8872                 1.4129                 1.3691
 Frc consts  --     10.7308                 1.5402                 1.5297
 IR Inten    --      9.0380                 1.8289                11.9051

                     94                     95                     96
                      A                      A                      A
 Frequencies --   1378.7679              1389.6995              1395.8751
 Red. masses --      1.4284                 1.5612                 1.5991
 Frc consts  --      1.5999                 1.7764                 1.8357
 IR Inten    --      2.4250                 0.7375                 0.1608

                     97                     98                     99
                      A                      A                      A
 Frequencies --   1397.6855              1405.0935              1410.2731
 Red. masses --      1.5885                 2.7622                 1.2522
 Frc consts  --      1.8284                 3.2131                 1.4673
 IR Inten    --      1.1575                64.5369                 2.2935

                    100                    101                    102
                      A                      A                      A
 Frequencies --   1455.4279              1471.1366              1477.7626
 Red. masses --      1.6824                 2.6518                 1.2969
 Frc consts  --      2.0998                 3.3814                 1.6687
 IR Inten    --    135.1966                48.9139                 2.3224

                    103                    104                    105
                      A                      A                      A
 Frequencies --   1481.7343              1483.0276              1484.6185
 Red. masses --      1.1074                 1.0851                 1.3645
 Frc consts  --      1.4326                 1.4061                 1.7720
 IR Inten    --      2.0355                 0.7389                 3.5886

                    106                    107                    108
                      A                      A                      A
 Frequencies --   1485.9524              1486.7342              1491.2290
 Red. masses --      1.2365                 1.0813                 1.0799
 Frc consts  --      1.6086                 1.4082                 1.4148
 IR Inten    --      0.5112                 0.0780                 0.3913

                    109                    110                    111
                      A                      A                      A
 Frequencies --   1497.3121              1498.7197              1501.5765
 Red. masses --      1.0823                 1.0399                 1.0981
 Frc consts  --      1.4297                 1.3762                 1.4587
 IR Inten    --      0.3078                 7.3266                 5.4594

                    112                    113                    114
                      A                      A                      A
 Frequencies --   1504.4055              1510.1660              1510.9936
 Red. masses --      1.0950                 1.0965                 3.7919
 Frc consts  --      1.4602                 1.4733                 5.1007
 IR Inten    --      3.4447                 0.6814                 6.8771

                    115                    116                    117
                      A                      A                      A
 Frequencies --   1514.4935              1521.3707              1544.2579
 Red. masses --      1.0981                 4.9536                 5.2334
 Frc consts  --      1.4840                 6.7552                 7.3532
 IR Inten    --     13.3879               413.6943                32.7218

                    118                    119                    120
                      A                      A                      A
 Frequencies --   1612.8512              1625.9021              2981.3279
 Red. masses --      8.1064                 5.9886                 1.0601
 Frc consts  --     12.4242                 9.3275                 5.5514
 IR Inten    --      3.8549                 5.7331                11.3981

                    121                    122                    123
                      A                      A                      A
 Frequencies --   2986.2352              2988.1449              2989.7376
 Red. masses --      1.0572                 1.0584                 1.0576
 Frc consts  --      5.5545                 5.5679                 5.5697
 IR Inten    --      1.9525                 4.2510                 1.6580

                    124                    125                    126
                      A                      A                      A
 Frequencies --   2990.5674              2992.9689              2999.1321
 Red. masses --      1.0464                 1.0612                 1.0729
 Frc consts  --      5.5139                 5.6009                 5.6861
 IR Inten    --     84.9617                 4.3252                 3.7019

                    127                    128                    129
                      A                      A                      A
 Frequencies --   2999.3384              3002.8264              3005.2633
 Red. masses --      1.0726                 1.0913                 1.0828
 Frc consts  --      5.6852                 5.7976                 5.7617
 IR Inten    --     32.0726                 0.0712                14.0975

                    130                    131                    132
                      A                      A                      A
 Frequencies --   3006.3772              3009.9858              3013.5074
 Red. masses --      1.0709                 1.0869                 1.0353
 Frc consts  --      5.7025                 5.8019                 5.5394
 IR Inten    --    137.5292                21.6905                57.7327

                    133                    134                    135
                      A                      A                      A
 Frequencies --   3016.5704              3020.7220              3028.8569
 Red. masses --      1.0965                 1.0672                 1.1027
 Frc consts  --      5.8788                 5.7372                 5.9601
 IR Inten    --      8.8789               101.9087                 9.8037

                    136                    137                    138
                      A                      A                      A
 Frequencies --   3033.5424              3039.2367              3047.9999
 Red. masses --      1.0918                 1.1041                 1.1019
 Frc consts  --      5.9197                 6.0087                 6.0315
 IR Inten    --     50.6268                 3.4920               114.1230

                    139                    140                    141
                      A                      A                      A
 Frequencies --   3050.8213              3069.6685              3074.4417
 Red. masses --      1.0997                 1.1038                 1.1024
 Frc consts  --      6.0305                 6.1280                 6.1393
 IR Inten    --     56.4606                58.5832                80.6790

                    142                    143                    144
                      A                      A                      A
 Frequencies --   3075.3376              3110.3175              3130.3253
 Red. masses --      1.1010                 1.0948                 1.0846
 Frc consts  --      6.1349                 6.2402                 6.2616
 IR Inten    --     54.7050                 7.6663                16.3510

                    145                    146                    147
                      A                      A                      A
 Frequencies --   3149.9367              3180.3035              3182.9331
 Red. masses --      1.0913                 1.0912                 1.0926
 Frc consts  --      6.3798                 6.5028                 6.5218
 IR Inten    --     56.6632                12.1849                28.1989

 - Thermochemistry -
 -------------------
 Temperature   298.150 Kelvin.  Pressure   1.00000 Atm.
 Atom     1 has atomic number  6 and mass  12.00000

 Molecular mass:   312.20893 amu.
 Principal axes and moments of inertia in atomic units:
                           1         2         3
     Eigenvalues --  2722.99126********************
           X            0.86393   0.29652   0.40707
           Y           -0.40857  -0.05992   0.91076
           Z           -0.29444   0.95315  -0.06938
 This molecule is an asymmetric top.
 Rotational symmetry number  1.
 Warning -- assumption of classical behavior for rotation
           may cause significant error
 Rotational temperatures (Kelvin)      0.03181     0.00280     0.00267
 Rotational constants (GHZ):           0.66278     0.05830     0.05564
 Zero-point vibrational energy    1154281.9 (Joules/Mol)
                                  275.87998 (Kcal/Mol)
 Warning -- explicit consideration of  35 degrees of freedom as
           vibrations may cause significant error
 Vibrational temperatures:     18.59    29.44    39.50    49.71    69.43
          (Kelvin)            106.34   110.66   119.06   145.89   167.26
                              176.66   179.53   181.20   204.80   230.58
                              233.99   254.36   289.94   351.10   353.76
                              368.17   447.07   474.74   487.86   503.43
                              557.58   564.04   615.59   617.64   641.68
                              657.68   706.70   712.92   759.22   810.44
                              918.41   972.67   973.40   995.38  1033.97
                             1050.17  1051.39  1060.51  1088.17  1120.74
                             1139.02  1151.03  1193.52  1238.12  1253.22
                             1286.64  1300.30  1339.48  1403.83  1407.65
                             1410.58  1417.47  1424.15  1444.12  1456.92
                             1488.76  1492.17  1499.80  1501.42  1520.27
                             1530.25  1531.91  1535.33  1554.13  1590.60
                             1636.94  1641.80  1647.95  1701.35  1735.77
                             1744.41  1762.60  1775.47  1790.12  1816.96
                             1828.25  1840.49  1869.56  1878.78  1901.20
                             1907.49  1912.40  1918.31  1923.23  1924.04
                             1952.75  1957.03  1981.30  1983.74  1999.47
                             2008.35  2010.96  2021.62  2029.07  2094.04
                             2116.64  2126.17  2131.89  2133.75  2136.03
                             2137.95  2139.08  2145.55  2154.30  2156.32
                             2160.43  2164.50  2172.79  2173.98  2179.02
                             2188.91  2221.84  2320.53  2339.31  4289.47
                             4296.53  4299.27  4301.57  4302.76  4306.21
                             4315.08  4315.38  4320.40  4323.90  4325.51
                             4330.70  4335.76  4340.17  4346.15  4357.85
                             4364.59  4372.78  4385.39  4389.45  4416.57
                             4423.44  4424.72  4475.05  4503.84  4532.06
                             4575.75  4579.53

 Zero-point correction=                           0.439643 (Hartree/Particle)
 Thermal correction to Energy=                    0.463938
 Thermal correction to Enthalpy=                  0.464882
 Thermal correction to Gibbs Free Energy=         0.381314
 Sum of electronic and zero-point Energies=           -967.465538
 Sum of electronic and thermal Energies=              -967.441243
 Sum of electronic and thermal Enthalpies=            -967.440299
 Sum of electronic and thermal Free Energies=         -967.523867

                     E (Thermal)             CV                S
                      KCal/Mol        Cal/Mol-Kelvin    Cal/Mol-Kelvin
 Total                  291.125             90.314            175.885
 Electronic               0.000              0.000              1.377
 Translational            0.889              2.981             43.112
 Rotational               0.889              2.981             36.257
 Vibrational            289.348             84.352             95.139
 Vibration     1          0.593              1.987              7.501
 Vibration     2          0.593              1.986              6.589
 Vibration     3          0.593              1.984              6.006
 Vibration     4          0.594              1.983              5.549
 Vibration     5          0.595              1.978              4.888
 Vibration     6          0.599              1.966              4.046
 Vibration     7          0.599              1.965              3.968
 Vibration     8          0.600              1.961              3.825
 Vibration     9          0.604              1.948              3.427
 Vibration    10          0.608              1.936              3.162
 Vibration    11          0.610              1.930              3.056
 Vibration    12          0.610              1.928              3.025
 Vibration    13          0.611              1.927              3.007
 Vibration    14          0.616              1.911              2.772
 Vibration    15          0.622              1.891              2.547
 Vibration    16          0.623              1.888              2.519
 Vibration    17          0.628              1.871              2.362
 Vibration    18          0.638              1.838              2.119
 Vibration    19          0.659              1.773              1.773
 Vibration    20          0.660              1.770              1.760
 Vibration    21          0.666              1.753              1.690
 Vibration    22          0.700              1.653              1.358
 Vibration    23          0.713              1.616              1.260
 Vibration    24          0.719              1.597              1.216
 Vibration    25          0.727              1.575              1.167
 Vibration    26          0.756              1.497              1.010
 Vibration    27          0.759              1.487              0.992
 Vibration    28          0.789              1.410              0.866
 Vibration    29          0.791              1.406              0.861
 Vibration    30          0.805              1.370              0.808
 Vibration    31          0.815              1.345              0.775
 Vibration    32          0.847              1.270              0.681
 Vibration    33          0.851              1.260              0.669
 Vibration    34          0.883              1.189              0.592
 Vibration    35          0.919              1.111              0.517

                           ! Non-Optimized Parameters !
 Normal termination of Gaussian 16 at Mon Jan  8 01:06:57 2024.
