 Gaussian 16, Revision A.03,
 Gaussian 16:  ES64L-G16RevA.03 25-Dec-2016

 ----------------------------------------------------------------------
 #P UB3LYP/6-311++G(d,p) nosym opt freq SCRF=(PCM,Solvent=n,n-DiMethylF
 ormamide)
 ----------------------------------------------------------------------

 -------
 Reduced
 -------
 Symbolic Z-matrix:
 Charge = -2 Multiplicity = 1

 SCF Done:  E(UB3LYP) =  -610.771700063     A.U. after   16 cycles
 SCF Done:  E(UB3LYP) =  -610.772350611     A.U. after   14 cycles
 SCF Done:  E(UB3LYP) =  -610.772486028     A.U. after   14 cycles
 SCF Done:  E(UB3LYP) =  -610.772506551     A.U. after   12 cycles
 SCF Done:  E(UB3LYP) =  -610.772509278     A.U. after   11 cycles
 SCF Done:  E(UB3LYP) =  -610.772510910     A.U. after   10 cycles
 Optimization completed.
    -- Stationary point found.
 Normal termination of Gaussian 16 at Sun Feb 11 02:41:48 2024.

 ----------------------------------------------------------------------
 #P Geom=AllCheck Guess=TCheck SCRF=Check GenChk UB3LYP/6-311++G(d,p) F
 req
 ----------------------------------------------------------------------

 Structure from the checkpoint file:  "279-an.chk"
 -------
 Reduced
 -------
 Charge = -2 Multiplicity = 1

                          Input orientation:
 ---------------------------------------------------------------------
 Center     Atomic      Atomic             Coordinates (Angstroms)
 Number     Number       Type             X           Y           Z
 ---------------------------------------------------------------------
      1          8           0       -1.276534    2.580566    0.336418
      2          6           0       -1.242683    1.281639    0.217055
      3          6           0       -2.407299    0.480895    0.193857
      4          6           0       -2.347430   -0.913862    0.062104
      5          8           0       -3.505494   -1.672906    0.042328
      6          6           0       -1.162674   -1.657837   -0.059918
      7          8           0       -1.254746   -2.978496   -0.181222
      8          6           0        0.044074   -0.894575   -0.040270
      9          6           0        1.315505   -1.528034   -0.155048
     10          6           0        2.492976   -0.811703   -0.137995
     11          6           0        2.463370    0.600257   -0.002934
     12          6           0        1.246429    1.246198    0.110087
     13          6           0        0.013656    0.551392    0.096173
     14          1           0       -3.377912    0.964131    0.278964
     15          1           0        1.332228   -2.607967   -0.258084
     16          1           0        3.445046   -1.327094   -0.228094
     17          1           0        3.390093    1.165716    0.011324
     18          1           0        1.205757    2.325282    0.215579
     19          1           0       -3.124886   -2.576471   -0.058501
 ---------------------------------------------------------------------

 SCF Done:  E(UB3LYP) =  -610.772510910     A.U. after    1 cycles

 Alpha  occ. eigenvalues --  -19.11271 -19.02277 -19.01719 -10.17902 -10.17594
 Alpha  occ. eigenvalues --  -10.16096 -10.14975 -10.14629 -10.14543 -10.14504
 Alpha  occ. eigenvalues --  -10.14120 -10.13650 -10.12009  -1.02260  -0.92638
 Alpha  occ. eigenvalues --   -0.91634  -0.82428  -0.76461  -0.72249  -0.70040
 Alpha  occ. eigenvalues --   -0.64267  -0.59093  -0.57544  -0.53571  -0.50069
 Alpha  occ. eigenvalues --   -0.47788  -0.44432  -0.42868  -0.42021  -0.40069
 Alpha  occ. eigenvalues --   -0.38761  -0.37990  -0.36062  -0.35532  -0.34809
 Alpha  occ. eigenvalues --   -0.34436  -0.31656  -0.31606  -0.30083  -0.29397
 Alpha  occ. eigenvalues --   -0.22926  -0.22228  -0.21020  -0.19833  -0.19681
 Alpha  occ. eigenvalues --   -0.11441
 Alpha virt. eigenvalues --   -0.00615   0.00163   0.01236   0.01559   0.01707
 Alpha virt. eigenvalues --    0.03079   0.03449   0.05379   0.05669   0.05830
 Alpha virt. eigenvalues --    0.07145   0.07319   0.07954   0.08886   0.09138

  Beta  occ. eigenvalues --  -19.11271 -19.02277 -19.01719 -10.17902 -10.17594
  Beta  occ. eigenvalues --  -10.16096 -10.14975 -10.14629 -10.14543 -10.14504
  Beta  occ. eigenvalues --  -10.14120 -10.13650 -10.12009  -1.02260  -0.92638
  Beta  occ. eigenvalues --   -0.91634  -0.82428  -0.76461  -0.72249  -0.70040
  Beta  occ. eigenvalues --   -0.64267  -0.59093  -0.57544  -0.53571  -0.50069
  Beta  occ. eigenvalues --   -0.47788  -0.44432  -0.42868  -0.42021  -0.40069
  Beta  occ. eigenvalues --   -0.38761  -0.37990  -0.36062  -0.35532  -0.34809
  Beta  occ. eigenvalues --   -0.34436  -0.31656  -0.31606  -0.30083  -0.29397
  Beta  occ. eigenvalues --   -0.22926  -0.22228  -0.21020  -0.19833  -0.19681
  Beta  occ. eigenvalues --   -0.11441
  Beta virt. eigenvalues --   -0.00615   0.00163   0.01236   0.01559   0.01707
  Beta virt. eigenvalues --    0.03079   0.03449   0.05379   0.05669   0.05830
  Beta virt. eigenvalues --    0.07145   0.07319   0.07954   0.08886   0.09138

 Mulliken charges and spin densities:
               1          2
     1  O   -0.708634  -0.000000
     2  C   -0.455874   0.000000
     3  C    0.375012  -0.000000
     4  C   -0.182414   0.000000
     5  O   -0.357049  -0.000000
     6  C   -0.785896  -0.000000
     7  O   -0.753745   0.000000
     8  C    0.337476  -0.000000
     9  C    0.016616   0.000000
    10  C   -0.392121   0.000000
    11  C   -0.424456   0.000000
    12  C    0.085621   0.000000
    13  C    0.227250  -0.000000
    14  H    0.145057   0.000000
    15  H    0.144474  -0.000000
    16  H    0.159832   0.000000
    17  H    0.155625   0.000000
    18  H    0.141214  -0.000000
    19  H    0.272013   0.000000
 Sum of Mulliken charges =  -2.00000   0.00000

 Dipole moment (field-independent basis, Debye):
    X=             11.3713    Y=              1.4419    Z=             -0.7674  Tot=             11.4880
 Quadrupole moment (field-independent basis, Debye-Ang):
   XX=           -112.9106   YY=           -137.9939   ZZ=            -86.7701
   XY=             -2.5996   XZ=              1.4063   YZ=             -4.6231

  Exact polarizability: 322.273   8.706 267.102  -7.977  13.481 119.993
 Approx polarizability: 368.809  12.515 307.239  -9.228  16.209 129.665

                      1                      2                      3
                      A                      A                      A
 Frequencies --    101.2362               140.2650               173.7113
 Red. masses --      7.9462                 4.2479                 8.5097
 Frc consts  --      0.0480                 0.0492                 0.1513
 IR Inten    --     12.6385                 0.9969                 4.4056

                      4                      5                      6
                      A                      A                      A
 Frequencies --    251.2675               263.6350               286.8354
 Red. masses --      6.0463                 5.4137                 5.5487
 Frc consts  --      0.2249                 0.2217                 0.2690
 IR Inten    --     13.3359                 0.0552                28.6360

                      7                      8                      9
                      A                      A                      A
 Frequencies --    346.7812               364.7796               429.3968
 Red. masses --     11.0590                 6.9171                 9.0599
 Frc consts  --      0.7836                 0.5423                 0.9842
 IR Inten    --      6.1720                 0.4045                 6.7792

                     10                     11                     12
                      A                      A                      A
 Frequencies --    440.1037               474.8040               506.6589
 Red. masses --      3.3731                 8.9437                 3.3363
 Frc consts  --      0.3849                 1.1879                 0.5046
 IR Inten    --      9.2644                 6.3100                 0.1701

                     13                     14                     15
                      A                      A                      A
 Frequencies --    533.0092               638.9966               642.2080
 Red. masses --      8.8810                 6.3347                 2.7363
 Frc consts  --      1.4866                 1.5240                 0.6649
 IR Inten    --      4.2964                35.5433                 3.2957

                     16                     17                     18
                      A                      A                      A
 Frequencies --    675.0134               687.9128               691.6343
 Red. masses --      5.5877                 1.4217                 2.5160
 Frc consts  --      1.5001                 0.3964                 0.7091
 IR Inten    --      9.6175               177.8242                15.1153

                     19                     20                     21
                      A                      A                      A
 Frequencies --    724.6342               749.9898               761.6403
 Red. masses --      6.5552                 3.1523                 1.5640
 Frc consts  --      2.0280                 1.0447                 0.5345
 IR Inten    --    100.7225                 3.4161               120.4704

                     22                     23                     24
                      A                      A                      A
 Frequencies --    798.6240               829.4679               844.9615
 Red. masses --      1.9480                 4.6008                 1.4396
 Frc consts  --      0.7320                 1.8650                 0.6056
 IR Inten    --     35.0030                98.1463                 0.0843

                     25                     26                     27
                      A                      A                      A
 Frequencies --    965.4321               976.5094               983.5842
 Red. masses --      1.3316                 1.2508                 7.2882
 Frc consts  --      0.7312                 0.7027                 4.1543
 IR Inten    --      3.4064                 1.2594               327.1131

                     28                     29                     30
                      A                      A                      A
 Frequencies --   1020.3955              1080.9155              1119.0523
 Red. masses --      2.0205                 3.5495                 2.1468
 Frc consts  --      1.2395                 2.4434                 1.5840
 IR Inten    --     17.1249               128.7088                51.2285

                     31                     32                     33
                      A                      A                      A
 Frequencies --   1145.5198              1157.1157              1174.0525
 Red. masses --      1.5901                 2.1539                 1.5388
 Frc consts  --      1.2293                 1.6991                 1.2497
 IR Inten    --     74.1556                89.1940               707.8920

                     34                     35                     36
                      A                      A                      A
 Frequencies --   1228.4295              1240.7044              1316.1447
 Red. masses --      2.4255                 2.5854                 5.7262
 Frc consts  --      2.1565                 2.3449                 5.8442
 IR Inten    --    162.3190               207.1594               492.3762

                     37                     38                     39
                      A                      A                      A
 Frequencies --   1329.2809              1382.7495              1417.0486
 Red. masses --      1.7650                 6.7255                 5.5492
 Frc consts  --      1.8375                 7.5764                 6.5652
 IR Inten    --     64.2912              1396.1208                51.8990

                     40                     41                     42
                      A                      A                      A
 Frequencies --   1444.3458              1460.5868              1521.0774
 Red. masses --      2.2567                 2.8254                 3.9634
 Frc consts  --      2.7737                 3.5513                 5.4029
 IR Inten    --    144.4435               164.1227                29.1256

                     43                     44                     45
                      A                      A                      A
 Frequencies --   1544.7723              1596.8913              1614.5842
 Red. masses --      4.8756                 5.6278                 6.0669
 Frc consts  --      6.8550                 8.4554                 9.3183
 IR Inten    --    609.7375               157.0647                 2.6860

                     46                     47                     48
                      A                      A                      A
 Frequencies --   3129.3658              3135.4323              3150.8279
 Red. masses --      1.0886                 1.0844                 1.0878
 Frc consts  --      6.2811                 6.2810                 6.3630
 IR Inten    --     95.1505                12.4648                21.9867

                     49                     50                     51
                      A                      A                      A
 Frequencies --   3163.4064              3171.0874              3419.4377
 Red. masses --      1.0924                 1.0940                 1.0640
 Frc consts  --      6.4410                 6.4819                 7.3297
 IR Inten    --     56.2398                65.4127               226.8866

 - Thermochemistry -
 -------------------
 Temperature   298.150 Kelvin.  Pressure   1.00000 Atm.
 Atom     1 has atomic number  8 and mass  15.99491

 Molecular mass:   174.03169 amu.
 Principal axes and moments of inertia in atomic units:
                           1         2         3
     Eigenvalues --  1461.731022283.631883745.35801
           X            0.93086  -0.36288   0.04270
           Y            0.36533   0.92626  -0.09263
           Z           -0.00594   0.10182   0.99478
 This molecule is an asymmetric top.
 Rotational symmetry number  1.
 Warning -- assumption of classical behavior for rotation
           may cause significant error
 Rotational temperatures (Kelvin)      0.05925     0.03793     0.02313
 Rotational constants (GHZ):           1.23466     0.79029     0.48186
 Zero-point vibrational energy     348390.3 (Joules/Mol)
                                   83.26729 (Kcal/Mol)
 Warning -- explicit consideration of  13 degrees of freedom as
           vibrations may cause significant error
 Vibrational temperatures:    145.66   201.81   249.93   361.52   379.31
          (Kelvin)            412.69   498.94   524.84   617.81   633.21
                              683.14   728.97   766.88   919.37   923.99
                              971.19   989.75   995.11  1042.59  1079.07
                             1095.83  1149.04  1193.42  1215.71  1389.04
                             1404.98  1415.16  1468.12  1555.20  1610.07
                             1648.15  1664.83  1689.20  1767.44  1785.10
                             1893.64  1912.54  1989.47  2038.82  2078.09
                             2101.46  2188.49  2222.58  2297.57  2323.03
                             4502.46  4511.19  4533.34  4551.44  4562.49
                             4919.81

 Zero-point correction=                           0.132695 (Hartree/Particle)
 Thermal correction to Energy=                    0.142334
 Thermal correction to Enthalpy=                  0.143278
 Thermal correction to Gibbs Free Energy=         0.097838
 Sum of electronic and zero-point Energies=           -610.639816
 Sum of electronic and thermal Energies=              -610.630177
 Sum of electronic and thermal Enthalpies=            -610.629233
 Sum of electronic and thermal Free Energies=         -610.674673

                     E (Thermal)             CV                S
                      KCal/Mol        Cal/Mol-Kelvin    Cal/Mol-Kelvin
 Total                   89.316             39.171             95.638
 Electronic               0.000              0.000              0.000
 Translational            0.889              2.981             41.370
 Rotational               0.889              2.981             30.903
 Vibrational             87.539             33.209             23.365
 Vibration     1          0.604              1.948              3.430
 Vibration     2          0.615              1.913              2.800
 Vibration     3          0.627              1.875              2.395
 Vibration     4          0.663              1.761              1.722
 Vibration     5          0.670              1.740              1.638
 Vibration     6          0.684              1.698              1.493
 Vibration     7          0.725              1.582              1.181
 Vibration     8          0.738              1.545              1.102
 Vibration     9          0.791              1.406              0.861
 Vibration    10          0.800              1.383              0.826
 Vibration    11          0.832              1.306              0.724
 Vibration    12          0.862              1.235              0.642
 Vibration    13          0.888              1.177              0.581

 Optimization completed.
    -- Stationary point found.
 Normal termination of Gaussian 16 at Sun Feb 11 02:57:11 2024.
