 Q-Chem 5.4, Q-Chem, Inc., Pleasanton, CA (2021)
 Q-Chem 5.4.0 for Intel X86 EM64T Linux

User input:
--------------------------------------------------------------
$molecule
-2 1
C                  7.2407880000      1.1961570000      0.1847870000
C                  8.3663610000      1.0312620000      1.0848680000
C                  8.9766880000     -0.2001620000      1.2654550000
C                  8.5280410000     -1.3895980000      0.5624140000
C                  7.3942580000     -1.2267830000     -0.3326990000
C                  6.7928940000      0.0092290000     -0.5176780000
O                  6.6677460000      2.3264920000      0.0097020000
O                  9.1021150000     -2.5211340000      0.7225750000
C                  5.6299660000      0.2087050000     -1.4771900000
C                  6.9145010000     -2.4665630000     -1.0513340000
C                  8.8464560000      2.2596810000      1.8192660000
C                 10.1450710000     -0.3593620000      2.2084950000
C                  4.2886550000      0.1314870000     -0.7924710000
H                  5.6903770000     -0.4931440000     -2.3122300000
H                  5.7265130000      1.2251060000     -1.8796040000
H                  7.4549790000     -3.3288310000     -0.6575500000
H                  7.1028310000     -2.4180660000     -2.1341520000
H                  5.8379580000     -2.6267190000     -0.9206540000
H                  8.2474470000      3.1163640000      1.5059940000
H                  9.9050810000      2.4737300000      1.6156890000
H                  8.7558890000      2.1501140000      2.9094900000
H                  9.8925620000     -0.0485610000      3.2319030000
H                 11.0076080000      0.2504190000      1.9028620000
H                 10.4486590000     -1.4073190000      2.2226900000
C                  3.2063100000     -0.5925820000     -1.1176670000
C                  3.1359800000     -1.5350370000     -2.2976250000
C                  1.9449470000     -0.5131670000     -0.2783200000
C                  0.7278430000      0.1019620000     -0.9986850000
C                 -0.5283790000      0.1526920000     -0.1181280000
C                 -1.8092740000      0.6620680000     -0.8116890000
C                 -3.0388650000      0.4317620000      0.0915580000
C                 -4.4027900000      0.6928430000     -0.5641270000
C                 -5.5842250000      0.3560730000      0.3569370000
C                 -6.9866470000      0.5230400000     -0.2652110000
C                 -8.0557720000     -0.0759890000      0.6720250000
C                 -9.4758870000     -0.1628170000      0.0940590000
C                 -1.6791540000      2.1330600000     -1.2368610000
C                -10.4615750000     -0.8500690000      1.0491060000
C                -11.8906840000     -1.0461390000      0.5049200000
C                -12.6135230000      0.2827090000      0.2382180000
C                -12.7098970000     -1.9270370000      1.4592940000
H                  4.2242450000      0.7729250000      0.0845370000
H                  4.1101730000     -1.6883810000     -2.7612520000
H                  2.4539900000     -1.1666660000     -3.0749420000
H                  2.7545770000     -2.5169970000     -1.9868140000
H                  2.1536670000      0.0715350000      0.6238340000
H                  1.6685320000     -1.5237380000      0.0617730000
H                  0.5014980000     -0.4767130000     -1.9029670000
H                  1.0025570000      1.1071310000     -1.3350690000
H                 -0.3290930000      0.7767000000      0.7643820000
H                 -0.7223560000     -0.8574550000      0.2657070000
H                 -1.9523800000      0.0592610000     -1.7210070000
H                 -2.9424090000      1.0586030000      0.9892510000
H                 -3.0166400000     -0.6065970000      0.4463090000
H                 -4.4809620000      0.0926510000     -1.4810730000
H                 -4.4665780000      1.7389300000     -0.8770230000
H                 -5.5234290000      0.9726130000      1.2647310000
H                 -5.4770270000     -0.6838630000      0.6917730000
C                 -7.2877760000      1.9881300000     -0.6181290000
H                 -8.0784810000      0.5065850000      1.6037660000
H                 -7.7360510000     -1.0866110000      0.9577210000
H                 -9.4457270000     -0.7172920000     -0.8537090000
H                 -9.8397710000      0.8392460000     -0.1504610000
H                 -0.8208590000      2.2861020000     -1.8948320000
H                 -1.5424820000      2.7757830000     -0.3591410000
H                 -2.5665240000      2.4827500000     -1.7709090000
H                -10.5150550000     -0.2834020000      1.9888890000
H                -10.0580260000     -1.8361660000      1.3161590000
H                -11.8094640000     -1.5805610000     -0.4518040000
H                -12.1006800000      0.8898340000     -0.5149950000
H                -12.6894670000      0.8817090000      1.1533090000
H                -13.6332280000      0.1076600000     -0.1229280000
H                -12.2328670000     -2.9030920000      1.6100700000
H                -13.7189200000     -2.1066020000      1.0730370000
H                -12.8143920000     -1.4520890000      2.4421580000
H                 -7.0042530000     -0.0591150000     -1.1983770000
H                 -7.2917020000      2.6112180000      0.2841220000
H                 -8.2637090000      2.0978870000     -1.0980490000
H                 -6.5437980000      2.4017950000     -1.3044800000
$end
$rem
MAX_SCF_CYCLES=200
BASIS  =  6-311++G(d,p)
GUI  =  2
JOB_TYPE  =  SP
SCF_ALGORITHM = DIIS_GDM
THRESH = 14
METHOD  =  B3LYP
SOLVENT_METHOD = PCM
$end
$pcm
theory = CPCM
$end
$solvent
dielectric 37.219
opticaldielectric 1.43
$end

--------------------------------------------------------------

             Standard Nuclear Orientation (Angstroms)
    I     Atom           X                Y                Z
 ----------------------------------------------------------------
    1      C       7.2407880000     1.1961570000     0.1847870000
    2      C       8.3663610000     1.0312620000     1.0848680000
    3      C       8.9766880000    -0.2001620000     1.2654550000
    4      C       8.5280410000    -1.3895980000     0.5624140000
    5      C       7.3942580000    -1.2267830000    -0.3326990000
    6      C       6.7928940000     0.0092290000    -0.5176780000
    7      O       6.6677460000     2.3264920000     0.0097020000
    8      O       9.1021150000    -2.5211340000     0.7225750000
    9      C       5.6299660000     0.2087050000    -1.4771900000
   10      C       6.9145010000    -2.4665630000    -1.0513340000
   11      C       8.8464560000     2.2596810000     1.8192660000
   12      C      10.1450710000    -0.3593620000     2.2084950000
   13      C       4.2886550000     0.1314870000    -0.7924710000
   14      H       5.6903770000    -0.4931440000    -2.3122300000
   15      H       5.7265130000     1.2251060000    -1.8796040000
   16      H       7.4549790000    -3.3288310000    -0.6575500000
   17      H       7.1028310000    -2.4180660000    -2.1341520000
   18      H       5.8379580000    -2.6267190000    -0.9206540000
   19      H       8.2474470000     3.1163640000     1.5059940000
   20      H       9.9050810000     2.4737300000     1.6156890000
   21      H       8.7558890000     2.1501140000     2.9094900000
   22      H       9.8925620000    -0.0485610000     3.2319030000
   23      H      11.0076080000     0.2504190000     1.9028620000
   24      H      10.4486590000    -1.4073190000     2.2226900000
   25      C       3.2063100000    -0.5925820000    -1.1176670000
   26      C       3.1359800000    -1.5350370000    -2.2976250000
   27      C       1.9449470000    -0.5131670000    -0.2783200000
   28      C       0.7278430000     0.1019620000    -0.9986850000
   29      C      -0.5283790000     0.1526920000    -0.1181280000
   30      C      -1.8092740000     0.6620680000    -0.8116890000
   31      C      -3.0388650000     0.4317620000     0.0915580000
   32      C      -4.4027900000     0.6928430000    -0.5641270000
   33      C      -5.5842250000     0.3560730000     0.3569370000
   34      C      -6.9866470000     0.5230400000    -0.2652110000
   35      C      -8.0557720000    -0.0759890000     0.6720250000
   36      C      -9.4758870000    -0.1628170000     0.0940590000
   37      C      -1.6791540000     2.1330600000    -1.2368610000
   38      C     -10.4615750000    -0.8500690000     1.0491060000
   39      C     -11.8906840000    -1.0461390000     0.5049200000
   40      C     -12.6135230000     0.2827090000     0.2382180000
   41      C     -12.7098970000    -1.9270370000     1.4592940000
   42      H       4.2242450000     0.7729250000     0.0845370000
   43      H       4.1101730000    -1.6883810000    -2.7612520000
   44      H       2.4539900000    -1.1666660000    -3.0749420000
   45      H       2.7545770000    -2.5169970000    -1.9868140000
   46      H       2.1536670000     0.0715350000     0.6238340000
   47      H       1.6685320000    -1.5237380000     0.0617730000
   48      H       0.5014980000    -0.4767130000    -1.9029670000
   49      H       1.0025570000     1.1071310000    -1.3350690000
   50      H      -0.3290930000     0.7767000000     0.7643820000
   51      H      -0.7223560000    -0.8574550000     0.2657070000
   52      H      -1.9523800000     0.0592610000    -1.7210070000
   53      H      -2.9424090000     1.0586030000     0.9892510000
   54      H      -3.0166400000    -0.6065970000     0.4463090000
   55      H      -4.4809620000     0.0926510000    -1.4810730000
   56      H      -4.4665780000     1.7389300000    -0.8770230000
   57      H      -5.5234290000     0.9726130000     1.2647310000
   58      H      -5.4770270000    -0.6838630000     0.6917730000
   59      C      -7.2877760000     1.9881300000    -0.6181290000
   60      H      -8.0784810000     0.5065850000     1.6037660000
   61      H      -7.7360510000    -1.0866110000     0.9577210000
   62      H      -9.4457270000    -0.7172920000    -0.8537090000
   63      H      -9.8397710000     0.8392460000    -0.1504610000
   64      H      -0.8208590000     2.2861020000    -1.8948320000
   65      H      -1.5424820000     2.7757830000    -0.3591410000
   66      H      -2.5665240000     2.4827500000    -1.7709090000
   67      H     -10.5150550000    -0.2834020000     1.9888890000
   68      H     -10.0580260000    -1.8361660000     1.3161590000
   69      H     -11.8094640000    -1.5805610000    -0.4518040000
   70      H     -12.1006800000     0.8898340000    -0.5149950000
   71      H     -12.6894670000     0.8817090000     1.1533090000
   72      H     -13.6332280000     0.1076600000    -0.1229280000
   73      H     -12.2328670000    -2.9030920000     1.6100700000
   74      H     -13.7189200000    -2.1066020000     1.0730370000
   75      H     -12.8143920000    -1.4520890000     2.4421580000
   76      H      -7.0042530000    -0.0591150000    -1.1983770000
   77      H      -7.2917020000     2.6112180000     0.2841220000
   78      H      -8.2637090000     2.0978870000    -1.0980490000
   79      H      -6.5437980000     2.4017950000    -1.3044800000
 ----------------------------------------------------------------

   15   -1285.0487022954      6.48e-06  Convergence criterion met
 Total energy in the final basis set =    -1285.0487022954

                    Orbital Energies (a.u.)
 --------------------------------------------------------------

 Alpha MOs
 -- Occupied --
-19.0040 -19.0030 -10.1653 -10.1627 -10.1619 -10.1569 -10.1535 -10.1532
-10.1528 -10.1526 -10.1523 -10.1523 -10.1520 -10.1518 -10.1515 -10.1509
-10.1504 -10.1491 -10.1489 -10.1488 -10.1469 -10.1456 -10.1435 -10.1371
-10.1287 -10.1284 -10.1278 -10.1122 -10.1114 -10.1111 -10.1108  -0.9285
 -0.9254  -0.8174  -0.8114  -0.8024  -0.7935  -0.7784  -0.7615  -0.7516
 -0.7366  -0.7189  -0.7031  -0.6878  -0.6762  -0.6718  -0.6703  -0.6672
 -0.6618  -0.6396  -0.6136  -0.5945  -0.5879  -0.5777  -0.5647  -0.5548
 -0.5503  -0.5429  -0.5042  -0.5005  -0.4901  -0.4733  -0.4685  -0.4634
 -0.4589  -0.4458  -0.4413  -0.4366  -0.4334  -0.4269  -0.4228  -0.4158
 -0.4120  -0.4051  -0.4008  -0.3995  -0.3965  -0.3880  -0.3831  -0.3810
 -0.3787  -0.3771  -0.3726  -0.3721  -0.3706  -0.3670  -0.3656  -0.3598
 -0.3572  -0.3555  -0.3552  -0.3520  -0.3466  -0.3438  -0.3407  -0.3379
 -0.3356  -0.3331  -0.3277  -0.3251  -0.3202  -0.3196  -0.3173  -0.3127
 -0.3114  -0.3107  -0.3092  -0.3066  -0.3047  -0.3004  -0.2974  -0.2966
 -0.2887  -0.2819  -0.2229  -0.2087  -0.1908  -0.1842  -0.1772  -0.0974

          Ground-State Mulliken Net Atomic Charges

     Atom                 Charge (a.u.)
  ----------------------------------------
      1 C                    -1.156991
      2 C                     0.596829
      3 C                     0.305128
      4 C                    -1.184316
      5 C                     0.569071
      6 C                     0.971050
      7 O                    -0.720547
      8 O                    -0.742833
      9 C                    -0.132777
     10 C                    -0.659910
     11 C                    -0.544130
     12 C                    -0.525487
     13 C                    -0.613216
     14 H                     0.165157
     15 H                     0.182107
     16 H                     0.156947
     17 H                     0.146411
     18 H                     0.142010
     19 H                     0.155372
     20 H                     0.127916
     21 H                     0.131674
     22 H                     0.127287
     23 H                     0.130208
     24 H                     0.161058
     25 C                     1.294131
     26 C                    -0.815870
     27 C                    -1.279475
     28 C                    -0.130418
     29 C                    -0.878241
     30 C                     1.377762
     31 C                    -0.971118
     32 C                    -0.071877
     33 C                    -1.047194
     34 C                     1.332719
     35 C                    -0.778393
     36 C                     0.032925
     37 C                    -0.807664
     38 C                    -0.765965
     39 C                     0.554354
     40 C                    -0.721241
     41 C                    -0.686225
     42 H                     0.232821
     43 H                     0.110174
     44 H                     0.170535
     45 H                     0.166690
     46 H                     0.125384
     47 H                     0.167318
     48 H                     0.134461
     49 H                     0.151782
     50 H                     0.142045
     51 H                     0.130536
     52 H                     0.137873
     53 H                     0.155116
     54 H                     0.112514
     55 H                     0.160654
     56 H                     0.104467
     57 H                     0.149718
     58 H                     0.118797
     59 C                    -0.791966
     60 H                     0.146720
     61 H                     0.112984
     62 H                     0.152469
     63 H                     0.105321
     64 H                     0.146290
     65 H                     0.164240
     66 H                     0.147795
     67 H                     0.145058
     68 H                     0.133263
     69 H                     0.144076
     70 H                     0.148088
     71 H                     0.152518
     72 H                     0.151057
     73 H                     0.140964
     74 H                     0.161842
     75 H                     0.144690
     76 H                     0.136252
     77 H                     0.163426
     78 H                     0.150221
     79 H                     0.147579
  ----------------------------------------
  Sum of atomic charges =    -2.000000

                    Cartesian Multipole Moments
 -----------------------------------------------------------------
    Charge (ESU x 10^10)
                -9.6064
    Dipole Moment (Debye)
         X     -75.1165      Y       0.7854      Z      -3.9403
       Tot      75.2239
    Quadrupole Moments (Debye-Ang)
        XX    -819.3614     XY      32.3290     YY    -260.2325
        XZ     -32.2879     YZ       8.3783     ZZ    -215.0249

 Total job time:  1038.21s(wall), 7175.28s(cpu)
        *  Thank you very much for using Q-Chem.  Have a nice day.  *
