 Gaussian 16, Revision A.03,

 -------------------------
 #P HF/6-311++G(d,p) nosym
 -------------------------

 -------
 Reduced
 -------
 Symbolic Z-matrix:
 Charge = -2 Multiplicity = 1

 SCF Done:  E(RHF) =  -5981.95511946     A.U. after   27 cycles
 Normal termination of Gaussian 16 at Thu Dec 21 07:52:09 2023.
 Gaussian 16:  ES64L-G16RevA.03 25-Dec-2016

 ------------------------------------------------------------------
 #P UB3LYP/6-311++G(d,p) nosym guess=read geom=check nosym opt freq
 ------------------------------------------------------------------

 -------------------------------------------
 Then here read in HF orbitals and run B3LYP
 -------------------------------------------
 Structure from the checkpoint file:  "021-an.chk"
 Charge = -2 Multiplicity = 1

 SCF Done:  E(UB3LYP) =  -5990.83187197     A.U. after   55 cycles
 SCF Done:  E(UB3LYP) =  -5990.87438821     A.U. after   27 cycles
 SCF Done:  E(UB3LYP) =  -5990.88702713     A.U. after   20 cycles
 SCF Done:  E(UB3LYP) =  -5990.88976362     A.U. after   19 cycles
 SCF Done:  E(UB3LYP) =  -5990.89029530     A.U. after   20 cycles
 SCF Done:  E(UB3LYP) =  -5990.89046952     A.U. after   19 cycles
 SCF Done:  E(UB3LYP) =  -5990.89059326     A.U. after   17 cycles
 SCF Done:  E(UB3LYP) =  -5990.89063742     A.U. after   16 cycles
 SCF Done:  E(UB3LYP) =  -5990.89064862     A.U. after   15 cycles
 SCF Done:  E(UB3LYP) =  -5990.89065195     A.U. after   16 cycles
 SCF Done:  E(UB3LYP) =  -5990.89065262     A.U. after   13 cycles
 SCF Done:  E(UB3LYP) =  -5990.89065279     A.U. after   13 cycles
 Optimization completed.
    -- Stationary point found.
 Normal termination of Gaussian 16 at Thu Dec 21 10:34:46 2023.

 ----------------------------------------------------------------------
 #P Geom=AllCheck Guess=TCheck SCRF=Check GenChk UB3LYP/6-311++G(d,p) F
 req
 ----------------------------------------------------------------------

 Structure from the checkpoint file:  "021-an.chk"
 -------------------------------------------
 Then here read in HF orbitals and run B3LYP
 -------------------------------------------
 Charge = -2 Multiplicity = 1

                         Standard orientation:
 ---------------------------------------------------------------------
 Center     Atomic      Atomic             Coordinates (Angstroms)
 Number     Number       Type             X           Y           Z
 ---------------------------------------------------------------------
      1         35           0       -2.087711   -2.586179    0.305687
      2          6           0       -0.882923   -1.037347    0.074855
      3          6           0       -1.403316    0.265569    0.040343
      4          6           0       -0.495849    1.413610    0.133629
      5          8           0       -0.910505    2.615023    0.233430
      6          6           0        0.882974    1.037398    0.074453
      7          6           0        1.403457   -0.265782    0.040838
      8          6           0        0.496036   -1.413617    0.134483
      9          8           0        0.910185   -2.615153    0.234687
     10          6           0        2.839321   -0.570537   -0.132778
     11          6           0        3.474860   -1.573790    0.628419
     12          6           0        4.820829   -1.880844    0.444545
     13          6           0        5.582353   -1.218557   -0.522671
     14          6           0        4.963632   -0.240247   -1.304703
     15          6           0        3.620451    0.073990   -1.112873
     16         35           0        2.087559    2.586283    0.306025
     17          6           0       -2.839257    0.570406   -0.132968
     18          6           0       -3.474732    1.572931    0.629135
     19          6           0       -4.820723    1.880084    0.445577
     20          6           0       -5.582173    1.218625   -0.522257
     21          6           0       -4.963482    0.241023   -1.305168
     22          6           0       -3.620276   -0.073334   -1.113591
     23          1           0        2.881054   -2.120959    1.346483
     24          1           0        5.278679   -2.654079    1.057404
     25          1           0        6.630543   -1.465967   -0.670065
     26          1           0        5.529107    0.279341   -2.074724
     27          1           0        3.156373    0.828473   -1.735023
     28          1           0       -2.880915    2.119458    1.347691
     29          1           0       -5.278652    2.652740    1.059094
     30          1           0       -6.630367    1.466147   -0.669433
     31          1           0       -5.528955   -0.277918   -2.075620
     32          1           0       -3.156117   -0.827330   -1.736286
 ---------------------------------------------------------------------

 SCF Done:  E(UB3LYP) =  -5990.89065279     A.U. after    2 cycles

 The electronic state is 1-A.
 Alpha  occ. eigenvalues -- -482.57817-482.57813 -62.23094 -62.23091 -56.05095
 Alpha  occ. eigenvalues --  -56.05092 -56.04775 -56.04771 -56.04737 -56.04734
 Alpha  occ. eigenvalues --  -18.79348 -18.79346  -9.97337  -9.97330  -9.97207
 Alpha  occ. eigenvalues --   -9.97201  -9.97005  -9.96999  -9.96789  -9.96787
 Alpha  occ. eigenvalues --   -9.96647  -9.96641  -9.96276  -9.96270  -9.96018
 Alpha  occ. eigenvalues --   -9.96012  -9.95478  -9.95470  -9.93551  -9.93546
 Alpha  occ. eigenvalues --   -8.44048  -8.44045  -6.27072  -6.27068  -6.26005
 Alpha  occ. eigenvalues --   -6.26001  -6.25890  -6.25886  -2.38186  -2.38182
 Alpha  occ. eigenvalues --   -2.37903  -2.37899  -2.37815  -2.37811  -2.36965
 Alpha  occ. eigenvalues --   -2.36963  -2.36962  -2.36959  -0.72235  -0.71805
 Alpha  occ. eigenvalues --   -0.64729  -0.64715  -0.59368  -0.57283  -0.54147
 Alpha  occ. eigenvalues --   -0.53893  -0.53695  -0.53650  -0.51487  -0.46883
 Alpha  occ. eigenvalues --   -0.42330  -0.41260  -0.39597  -0.39568  -0.37977
 Alpha  occ. eigenvalues --   -0.34365  -0.31145  -0.30341  -0.29383  -0.25709
 Alpha  occ. eigenvalues --   -0.25208  -0.24907  -0.23927  -0.22199  -0.21568
 Alpha  occ. eigenvalues --   -0.21408  -0.21006  -0.20806  -0.16799  -0.16409
 Alpha  occ. eigenvalues --   -0.16086  -0.15247  -0.14657  -0.13836  -0.13723
 Alpha  occ. eigenvalues --   -0.13333  -0.13108  -0.11974  -0.10622  -0.10292
 Alpha  occ. eigenvalues --   -0.07687  -0.06010  -0.05520  -0.05471  -0.04487
 Alpha  occ. eigenvalues --   -0.04203  -0.03501  -0.03014   0.00159   0.01711
 Alpha  occ. eigenvalues --    0.02666   0.03004   0.10103
 Alpha virt. eigenvalues --    0.13958   0.13985   0.15843   0.15856   0.17171
 Alpha virt. eigenvalues --    0.17314   0.17353   0.18923   0.19100   0.19560
 Alpha virt. eigenvalues --    0.19625   0.19778   0.20301   0.21042   0.21210

  Beta  occ. eigenvalues -- -482.57817-482.57813 -62.23094 -62.23091 -56.05095
  Beta  occ. eigenvalues --  -56.05092 -56.04775 -56.04771 -56.04737 -56.04734
  Beta  occ. eigenvalues --  -18.79348 -18.79346  -9.97337  -9.97330  -9.97207
  Beta  occ. eigenvalues --   -9.97201  -9.97005  -9.96999  -9.96789  -9.96787
  Beta  occ. eigenvalues --   -9.96647  -9.96641  -9.96276  -9.96270  -9.96018
  Beta  occ. eigenvalues --   -9.96012  -9.95478  -9.95470  -9.93551  -9.93546
  Beta  occ. eigenvalues --   -8.44048  -8.44045  -6.27072  -6.27068  -6.26005
  Beta  occ. eigenvalues --   -6.26001  -6.25890  -6.25886  -2.38186  -2.38182
  Beta  occ. eigenvalues --   -2.37903  -2.37899  -2.37815  -2.37811  -2.36965
  Beta  occ. eigenvalues --   -2.36963  -2.36962  -2.36959  -0.72235  -0.71805
  Beta  occ. eigenvalues --   -0.64729  -0.64715  -0.59368  -0.57283  -0.54147
  Beta  occ. eigenvalues --   -0.53893  -0.53695  -0.53650  -0.51487  -0.46883
  Beta  occ. eigenvalues --   -0.42330  -0.41260  -0.39597  -0.39568  -0.37977
  Beta  occ. eigenvalues --   -0.34365  -0.31145  -0.30341  -0.29383  -0.25709
  Beta  occ. eigenvalues --   -0.25208  -0.24907  -0.23927  -0.22199  -0.21568
  Beta  occ. eigenvalues --   -0.21408  -0.21006  -0.20806  -0.16799  -0.16409
  Beta  occ. eigenvalues --   -0.16086  -0.15247  -0.14657  -0.13836  -0.13723
  Beta  occ. eigenvalues --   -0.13333  -0.13108  -0.11974  -0.10622  -0.10292
  Beta  occ. eigenvalues --   -0.07687  -0.06010  -0.05520  -0.05471  -0.04487
  Beta  occ. eigenvalues --   -0.04203  -0.03501  -0.03014   0.00159   0.01711
  Beta  occ. eigenvalues --    0.02666   0.03004   0.10103
  Beta virt. eigenvalues --    0.13958   0.13985   0.15843   0.15856   0.17171
  Beta virt. eigenvalues --    0.17314   0.17353   0.18923   0.19100   0.19560
  Beta virt. eigenvalues --    0.19625   0.19778   0.20301   0.21042   0.21210

 Mulliken charges and spin densities:
               1          2
     1  Br  -0.335130  -0.000000
     2  C   -0.410704   0.000000
     3  C    1.446060  -0.000000
     4  C   -1.812761  -0.000000
     5  O   -0.391842  -0.000000
     6  C   -0.412512   0.000000
     7  C    1.448288   0.000000
     8  C   -1.810629  -0.000000
     9  O   -0.391835   0.000000
    10  C    1.755913  -0.000000
    11  C    0.072261  -0.000000
    12  C   -0.215449  -0.000000
    13  C   -0.331661  -0.000000
    14  C   -0.532744  -0.000000
    15  C   -0.959403   0.000000
    16  Br  -0.335360  -0.000000
    17  C    1.755527   0.000000
    18  C    0.072084  -0.000000
    19  C   -0.215984   0.000000
    20  C   -0.331328   0.000000
    21  C   -0.532611  -0.000000
    22  C   -0.957261  -0.000000
    23  H    0.224199  -0.000000
    24  H    0.110733   0.000000
    25  H    0.088483  -0.000000
    26  H    0.108109   0.000000
    27  H    0.181936   0.000000
    28  H    0.224265  -0.000000
    29  H    0.110741   0.000000
    30  H    0.088530   0.000000
    31  H    0.108131  -0.000000
    32  H    0.181953   0.000000
 Sum of Mulliken charges =  -2.00000  -0.00000

 Dipole moment (field-independent basis, Debye):
    X=             -0.0085    Y=             -0.0004    Z=             -0.7328  Tot=              0.7329
 Quadrupole moment (field-independent basis, Debye-Ang):
   XX=           -241.2343   YY=           -221.9976   ZZ=           -164.3496
   XY=              8.3341   XZ=             -0.0004   YZ=              0.0079

  Exact polarizability: 601.096 -25.254 314.445  -0.029   0.010 199.174
 Approx polarizability: 859.353 -10.344 541.914  -0.062  -0.013 338.198

                      1                      2                      3
                      A                      A                      A
 Frequencies --     20.9034                47.5055                52.2142
 Red. masses --      6.9943                 8.6819                 9.5088
 Frc consts  --      0.0018                 0.0115                 0.0153
 IR Inten    --      0.4918                 4.1862                11.5347

                      4                      5                      6
                      A                      A                      A
 Frequencies --     66.1852                67.6117                70.2710
 Red. masses --      5.7773                 4.5982                 5.6414
 Frc consts  --      0.0149                 0.0124                 0.0164
 IR Inten    --      0.7925                12.4541                 0.0670

                      7                      8                      9
                      A                      A                      A
 Frequencies --     85.9736               141.2465               141.5526
 Red. masses --      6.7605                12.1694                 9.3109
 Frc consts  --      0.0294                 0.1430                 0.1099
 IR Inten    --      2.4200                 1.1915                 2.1693

                     10                     11                     12
                      A                      A                      A
 Frequencies --    182.5459               187.2317               200.8274
 Red. masses --      6.3515                36.9900                 6.6966
 Frc consts  --      0.1247                 0.7640                 0.1591
 IR Inten    --      2.3105                 0.0007                 0.0359

                     13                     14                     15
                      A                      A                      A
 Frequencies --    216.5578               229.5907               276.8243
 Red. masses --      6.9246                 7.2007                 6.5088
 Frc consts  --      0.1913                 0.2236                 0.2939
 IR Inten    --      0.0104                11.1440                 0.2620

                     16                     17                     18
                      A                      A                      A
 Frequencies --    286.3523               330.3134               331.5815
 Red. masses --     11.0599                 8.1205                 7.6200
 Frc consts  --      0.5343                 0.5220                 0.4936
 IR Inten    --     85.9133                 1.3847                 0.0917

                     19                     20                     21
                      A                      A                      A
 Frequencies --    334.8100               420.5637               421.1063
 Red. masses --     10.8329                 3.9903                 2.9602
 Frc consts  --      0.7155                 0.4158                 0.3093
 IR Inten    --      1.6107                 0.2568                 0.0156

                     22                     23                     24
                      A                      A                      A
 Frequencies --    422.0713               478.6175               484.0469
 Red. masses --      4.4338                 5.8210                 7.1268
 Frc consts  --      0.4654                 0.7856                 0.9838
 IR Inten    --     24.7522                 2.8780                 0.3576

                     25                     26                     27
                      A                      A                      A
 Frequencies --    524.0273               545.4276               583.4761
 Red. masses --      3.9683                 6.4646                 5.4703
 Frc consts  --      0.6420                 1.1331                 1.0973
 IR Inten    --     13.3560                26.3359                15.1774

                     28                     29                     30
                      A                      A                      A
 Frequencies --    629.6034               630.7298               632.9138
 Red. masses --      6.8664                 6.2509                 6.6740
 Frc consts  --      1.6037                 1.4651                 1.5752
 IR Inten    --      3.0554                 0.1737                 0.5482

                     31                     32                     33
                      A                      A                      A
 Frequencies --    688.5484               688.9185               699.9460
 Red. masses --      1.4768                 1.5037                 5.9637
 Frc consts  --      0.4125                 0.4205                 1.7214
 IR Inten    --     52.2098                41.1309                 0.7641

                     34                     35                     36
                      A                      A                      A
 Frequencies --    704.9666               727.6569               730.8950
 Red. masses --      6.8312                 4.2088                 7.9455
 Frc consts  --      2.0003                 1.3130                 2.5008
 IR Inten    --     85.4088                 9.5506                 8.8147

                     37                     38                     39
                      A                      A                      A
 Frequencies --    763.0824               776.0318               779.3365
 Red. masses --      3.7016                 5.9206                 3.4755
 Frc consts  --      1.2699                 2.1008                 1.2437
 IR Inten    --     15.2474                13.0196                 3.1194

                     40                     41                     42
                      A                      A                      A
 Frequencies --    819.6757               820.2125               871.8183
 Red. masses --      1.2612                 1.2670                 3.9897
 Frc consts  --      0.4993                 0.5022                 1.7867
 IR Inten    --     11.3137                 0.4530               152.9585

                     43                     44                     45
                      A                      A                      A
 Frequencies --    883.9482               887.7109               934.2246
 Red. masses --      1.9500                 1.6220                 7.3878
 Frc consts  --      0.8977                 0.7531                 3.7990
 IR Inten    --     43.8419                 9.2120                 0.0019

                     46                     47                     48
                      A                      A                      A
 Frequencies --    947.4428               948.1538               954.8273
 Red. masses --      1.2972                 1.3099                 1.3028
 Frc consts  --      0.6861                 0.6938                 0.6998
 IR Inten    --      3.7401                 0.5883                 1.5273

                     49                     50                     51
                      A                      A                      A
 Frequencies --    956.0296              1006.4354              1009.2588
 Red. masses --      1.3135                 6.2970                 6.2893
 Frc consts  --      0.7073                 3.7580                 3.7745
 IR Inten    --      0.6990               227.8388                 0.9279

                     52                     53                     54
                      A                      A                      A
 Frequencies --   1036.3040              1045.7415              1052.2658
 Red. masses --      4.6108                 2.1118                 2.5459
 Frc consts  --      2.9174                 1.3607                 1.6609
 IR Inten    --    318.4055                 0.9424                98.5832

                     55                     56                     57
                      A                      A                      A
 Frequencies --   1086.7575              1089.0020              1120.3173
 Red. masses --      2.0495                 1.6327                 5.0186
 Frc consts  --      1.4261                 1.1408                 3.7112
 IR Inten    --    178.6251                 8.3844               267.9513

                     58                     59                     60
                      A                      A                      A
 Frequencies --   1163.7062              1163.7761              1193.6295
 Red. masses --      1.0875                 1.0836                 1.1852
 Frc consts  --      0.8677                 0.8647                 0.9949
 IR Inten    --      0.1080                 0.2028                16.9239

                     61                     62                     63
                      A                      A                      A
 Frequencies --   1194.0706              1209.1335              1239.9941
 Red. masses --      1.1586                 4.6760                 4.7892
 Frc consts  --      0.9733                 4.0279                 4.3386
 IR Inten    --      0.0158                40.2583                 1.1136

                     64                     65                     66
                      A                      A                      A
 Frequencies --   1300.0413              1319.0074              1332.9296
 Red. masses --      3.8804                 4.0939                 9.7922
 Frc consts  --      3.8640                 4.1965                10.2505
 IR Inten    --      0.0025                14.2864                 0.3349

                     67                     68                     69
                      A                      A                      A
 Frequencies --   1349.2874              1352.1631              1382.4967
 Red. masses --      1.6451                 1.6250                 8.6251
 Frc consts  --      1.7646                 1.7505                 9.7128
 IR Inten    --      7.4027                 0.3099               599.5775

                     70                     71                     72
                      A                      A                      A
 Frequencies --   1409.9829              1452.1024              1459.0569
 Red. masses --     10.6926                 2.8896                 2.3176
 Frc consts  --     12.5245                 3.5899                 2.9069
 IR Inten    --      3.8078               216.9945                 0.8605

                     73                     74                     75
                      A                      A                      A
 Frequencies --   1474.9229              1513.0275              1515.9576
 Red. masses --      4.4109                 2.1850                 2.3551
 Frc consts  --      5.6535                 2.9471                 3.1889
 IR Inten    --    341.8998                 1.8062               243.5458

                     76                     77                     78
                      A                      A                      A
 Frequencies --   1569.2206              1588.1169              1588.6458
 Red. masses --      9.5102                 5.1306                 5.2648
 Frc consts  --     13.7978                 7.6239                 7.8286
 IR Inten    --      0.4050                 0.1108                 0.3986

                     79                     80                     81
                      A                      A                      A
 Frequencies --   1612.1855              1620.2834              3109.9009
 Red. masses --      5.3529                 5.6173                 1.0823
 Frc consts  --      8.1972                 8.6888                 6.1671
 IR Inten    --    588.9781                 1.6771                11.1996

                     82                     83                     84
                      A                      A                      A
 Frequencies --   3110.0534              3122.6315              3122.6972
 Red. masses --      1.0823                 1.0888                 1.0888
 Frc consts  --      6.1680                 6.2553                 6.2556
 IR Inten    --      0.4933                74.6390                75.2419

                     85                     86                     87
                      A                      A                      A
 Frequencies --   3142.9416              3143.2655              3190.5097
 Red. masses --      1.0954                 1.0952                 1.0914
 Frc consts  --      6.3750                 6.3755                 6.5456
 IR Inten    --    285.5758                 3.8687                 8.9412

                     88                     89                     90
                      A                      A                      A
 Frequencies --   3190.5837              3214.7794              3214.8649
 Red. masses --      1.0914                 1.0919                 1.0919
 Frc consts  --      6.5458                 6.6484                 6.6488
 IR Inten    --      9.9153                 6.6095                 6.6691

 - Thermochemistry -
 -------------------
 Temperature   298.150 Kelvin.  Pressure   1.00000 Atm.
 Atom     1 has atomic number 35 and mass  78.91834

 Molecular mass:   415.90475 amu.
 Principal axes and moments of inertia in atomic units:
                           1         2         3
     Eigenvalues --  6030.14112********************
           X            0.99770  -0.06785  -0.00000
           Y            0.06785   0.99770  -0.00000
           Z            0.00000   0.00000   1.00000
 This molecule is an asymmetric top.
 Rotational symmetry number  1.
 Warning -- assumption of classical behavior for rotation
           may cause significant error
 Rotational temperatures (Kelvin)      0.01436     0.00628     0.00458
 Rotational constants (GHZ):           0.29929     0.13077     0.09549
 Zero-point vibrational energy     578024.5 (Joules/Mol)
                                  138.15118 (Kcal/Mol)
 Warning -- explicit consideration of  27 degrees of freedom as
           vibrations may cause significant error
 Vibrational temperatures:     30.08    68.35    75.12    95.23    97.28
          (Kelvin)            101.10   123.70   203.22   203.66   262.64
                              269.38   288.95   311.58   330.33   398.29
                              412.00   475.25   477.07   481.72   605.10
                              605.88   607.27   688.62   696.44   753.96
                              784.75   839.49   905.86   907.48   910.62
                              990.67   991.20  1007.07  1014.29  1046.94
                             1051.59  1097.91  1116.54  1121.29  1179.33
                             1180.10  1254.35  1271.80  1277.22  1344.14
                             1363.16  1364.18  1373.78  1375.51  1448.04
                             1452.10  1491.01  1504.59  1513.98  1563.60
                             1566.83  1611.89  1674.31  1674.41  1717.37
                             1718.00  1739.67  1784.07  1870.47  1897.76
                             1917.79  1941.32  1945.46  1989.10  2028.65
                             2089.25  2099.26  2122.09  2176.91  2181.12
                             2257.76  2284.95  2285.71  2319.58  2331.23
                             4474.45  4474.67  4492.77  4492.86  4521.99
                             4522.46  4590.43  4590.54  4625.35  4625.47

 Zero-point correction=                           0.220158 (Hartree/Particle)
 Thermal correction to Energy=                    0.239102
 Thermal correction to Enthalpy=                  0.240046
 Thermal correction to Gibbs Free Energy=         0.170158
 Sum of electronic and zero-point Energies=          -5990.670495
 Sum of electronic and thermal Energies=             -5990.651551
 Sum of electronic and thermal Enthalpies=           -5990.650607
 Sum of electronic and thermal Free Energies=        -5990.720495

                     E (Thermal)             CV                S
                      KCal/Mol        Cal/Mol-Kelvin    Cal/Mol-Kelvin
 Total                  150.039             71.558            147.092
 Electronic               0.000              0.000              0.000
 Translational            0.889              2.981             43.967
 Rotational               0.889              2.981             35.707
 Vibrational            148.261             65.596             67.419
 Vibration     1          0.593              1.986              6.546
 Vibration     2          0.595              1.979              4.919
 Vibration     3          0.596              1.977              4.732
 Vibration     4          0.598              1.970              4.264
 Vibration     5          0.598              1.970              4.222
 Vibration     6          0.598              1.968              4.146
 Vibration     7          0.601              1.959              3.750
 Vibration     8          0.615              1.912              2.787
 Vibration     9          0.615              1.912              2.783
 Vibration    10          0.630              1.864              2.302
 Vibration    11          0.632              1.857              2.255
 Vibration    12          0.638              1.839              2.126
 Vibration    13          0.645              1.816              1.988
 Vibration    14          0.652              1.796              1.882
 Vibration    15          0.678              1.716              1.553
 Vibration    16          0.684              1.699              1.495
 Vibration    17          0.713              1.615              1.259
 Vibration    18          0.714              1.612              1.252
 Vibration    19          0.716              1.606              1.237
 Vibration    20          0.783              1.426              0.890
 Vibration    21          0.784              1.424              0.888
 Vibration    22          0.784              1.422              0.885
 Vibration    23          0.835              1.297              0.714
 Vibration    24          0.840              1.285              0.699
 Vibration    25          0.879              1.197              0.601
 Vibration    26          0.901              1.150              0.554
 Vibration    27          0.940              1.067              0.479

                           ! Non-Optimized Parameters !
 Normal termination of Gaussian 16 at Thu Dec 21 13:33:20 2023.
