 Gaussian 16, Revision A.03,
 Gaussian 16:  ES64L-G16RevA.03 25-Dec-2016

 ----------------------------------------------------------------------
 #P UB3LYP/6-311++G(d,p) nosym opt freq SCRF=(PCM,Solvent=n,n-DiMethylF
 ormamide)
 ----------------------------------------------------------------------

 -------
 Radical
 -------
 Symbolic Z-matrix:
 Charge = -1 Multiplicity = 2

 SCF Done:  E(UB3LYP) =  -918.022014449     A.U. after   19 cycles
 SCF Done:  E(UB3LYP) =  -918.022361046     A.U. after   16 cycles
 SCF Done:  E(UB3LYP) =  -918.022403016     A.U. after   15 cycles
 SCF Done:  E(UB3LYP) =  -918.022418451     A.U. after   13 cycles
 SCF Done:  E(UB3LYP) =  -918.022420059     A.U. after   11 cycles
 SCF Done:  E(UB3LYP) =  -918.022420471     A.U. after   10 cycles
 Optimization completed.
    -- Stationary point found.
 Normal termination of Gaussian 16 at Sat Feb 10 23:02:38 2024.

 ----------------------------------------------------------------------
 #P Geom=AllCheck Guess=TCheck SCRF=Check GenChk UB3LYP/6-311++G(d,p) F
 req
 ----------------------------------------------------------------------

 Structure from the checkpoint file:  "211-rad.chk"
 -------
 Radical
 -------
 Charge = -1 Multiplicity = 2

                          Input orientation:
 ---------------------------------------------------------------------
 Center     Atomic      Atomic             Coordinates (Angstroms)
 Number     Number       Type             X           Y           Z
 ---------------------------------------------------------------------
      1          6           0        5.267612   -2.322749    0.369347
      2          6           0        6.024056   -1.497021   -0.441562
      3          6           0        5.388622   -0.602383   -1.325241
      4          6           0        3.856198   -2.291068    0.333146
      5          6           0        3.220711   -1.390328   -0.556519
      6          6           0        4.008422   -0.554680   -1.376975
      7          6           0        3.097212   -3.191212    1.217577
      8          6           0        1.639115   -3.131615    1.152723
      9          6           0        1.017177   -2.218231    0.251553
     10          6           0        1.763400   -1.324046   -0.626503
     11          6           0        0.783644   -3.975730    1.980340
     12          6           0       -0.640571   -3.865192    1.868403
     13          6           0       -0.403676   -2.146261    0.176775
     14          6           0       -1.206527   -2.930547    0.947063
     15          8           0        3.735104   -3.966940    1.986281
     16          8           0        1.182531   -0.525593   -1.413794
     17          1           0        5.743458   -3.014697    1.052853
     18          1           0        7.107204   -1.537251   -0.398184
     19          1           0        5.981774    0.045522   -1.961511
     20          1           0       -2.286887   -2.858152    0.873238
     21          1           0        3.500732    0.126055   -2.049277
     22          1           0       -0.827603   -1.436896   -0.522751
     23          6           0       -1.490567   -4.671252    2.659737
     24          6           0       -0.967983   -5.581166    3.555953
     25          6           0        0.425566   -5.707782    3.682300
     26          6           0        1.270611   -4.928214    2.917192
     27          8           0       -1.745935   -6.387341    4.348229
     28          1           0       -2.566008   -4.564037    2.552181
     29          1           0        0.827325   -6.425701    4.388619
     30          1           0        2.337815   -5.034857    3.023367
     31          1           0       -2.679347   -6.213200    4.176838
 ---------------------------------------------------------------------

 SCF Done:  E(UB3LYP) =  -918.022420471     A.U. after    1 cycles

 Alpha  occ. eigenvalues --  -19.15937 -19.07662 -19.07359 -10.23796 -10.22606
 Alpha  occ. eigenvalues --  -10.22513 -10.18743 -10.18412 -10.17998 -10.17425
 Alpha  occ. eigenvalues --  -10.17379 -10.17327 -10.17305 -10.17282 -10.17221
 Alpha  occ. eigenvalues --  -10.17169 -10.17115 -10.17092 -10.16989 -10.16858
 Alpha  occ. eigenvalues --  -10.16775  -1.06808  -1.00159  -0.99866  -0.87349
 Alpha  occ. eigenvalues --   -0.85779  -0.82467  -0.78708  -0.76115  -0.75045
 Alpha  occ. eigenvalues --   -0.74426  -0.72141  -0.67256  -0.63861  -0.63618
 Alpha  occ. eigenvalues --   -0.61185  -0.59671  -0.56416  -0.55522  -0.53379
 Alpha  occ. eigenvalues --   -0.51707  -0.50030  -0.47957  -0.46588  -0.46193
 Alpha  occ. eigenvalues --   -0.45390  -0.43544  -0.42881  -0.42653  -0.42172
 Alpha  occ. eigenvalues --   -0.41589  -0.41206  -0.40493  -0.40405  -0.39459
 Alpha  occ. eigenvalues --   -0.38030  -0.37347  -0.37323  -0.36366  -0.34710
 Alpha  occ. eigenvalues --   -0.34707  -0.34085  -0.33281  -0.31019  -0.28282
 Alpha  occ. eigenvalues --   -0.26070  -0.25661  -0.24484  -0.24167  -0.23377
 Alpha  occ. eigenvalues --   -0.21941  -0.14638
 Alpha virt. eigenvalues --   -0.05348  -0.03599  -0.01240  -0.00453   0.00052
 Alpha virt. eigenvalues --    0.00416   0.00956   0.01314   0.02051   0.02986
 Alpha virt. eigenvalues --    0.03577   0.04138   0.04284   0.04671   0.05213

  Beta  occ. eigenvalues --  -19.15927 -19.07109 -19.06813 -10.23777 -10.22426
  Beta  occ. eigenvalues --  -10.22361 -10.18738 -10.18407 -10.17884 -10.17371
  Beta  occ. eigenvalues --  -10.17345 -10.17292 -10.17249 -10.17218 -10.17165
  Beta  occ. eigenvalues --  -10.17140 -10.17111 -10.17010 -10.16984 -10.16891
  Beta  occ. eigenvalues --  -10.16759  -1.06784  -0.99199  -0.98881  -0.87215
  Beta  occ. eigenvalues --   -0.85612  -0.82277  -0.78420  -0.75969  -0.74861
  Beta  occ. eigenvalues --   -0.74286  -0.71985  -0.66580  -0.63708  -0.63459
  Beta  occ. eigenvalues --   -0.61007  -0.59599  -0.56260  -0.55358  -0.53232
  Beta  occ. eigenvalues --   -0.51578  -0.49926  -0.47713  -0.46460  -0.46067
  Beta  occ. eigenvalues --   -0.45314  -0.43497  -0.42787  -0.42105  -0.42080
  Beta  occ. eigenvalues --   -0.40873  -0.40761  -0.40391  -0.40093  -0.39326
  Beta  occ. eigenvalues --   -0.37256  -0.37119  -0.36281  -0.35722  -0.34582
  Beta  occ. eigenvalues --   -0.34013  -0.33797  -0.33156  -0.30470  -0.27317
  Beta  occ. eigenvalues --   -0.25110  -0.24745  -0.23978  -0.23588  -0.22883
  Beta  occ. eigenvalues --   -0.21308
  Beta virt. eigenvalues --   -0.08877  -0.04599  -0.02806  -0.00804  -0.00445
  Beta virt. eigenvalues --    0.00059   0.00789   0.00963   0.01323   0.02052
  Beta virt. eigenvalues --    0.02997   0.03584   0.04151   0.04687   0.04916

 Mulliken charges and spin densities:
               1          2
     1  C    0.008455   0.025262
     2  C   -0.458890   0.025405
     3  C   -0.473217   0.027805
     4  C    0.202287   0.002900
     5  C    0.166442   0.018953
     6  C   -0.053861   0.021790
     7  C   -0.650578   0.107274
     8  C    0.673841   0.093064
     9  C    0.707888   0.086767
    10  C   -0.829085   0.084794
    11  C    0.894055   0.015294
    12  C    0.591342  -0.006745
    13  C   -0.242454  -0.011576
    14  C   -0.447076   0.074258
    15  O   -0.417713   0.207725
    16  O   -0.448035   0.204879
    17  H    0.161567  -0.001743
    18  H    0.183091  -0.002181
    19  H    0.182146  -0.002347
    20  H    0.168722  -0.004368
    21  H    0.162862  -0.001633
    22  H    0.164156   0.000462
    23  C   -0.316445   0.000506
    24  C   -0.512511   0.011595
    25  C   -0.428038   0.014828
    26  C   -0.512268   0.011042
    27  O   -0.287258   0.002613
    28  H    0.138628  -0.000859
    29  H    0.208779  -0.001598
    30  H    0.157801  -0.004080
    31  H    0.305367  -0.000086
 Sum of Mulliken charges =  -1.00000   1.00000

 Dipole moment (field-independent basis, Debye):
    X=            -12.2813    Y=             12.0535    Z=             -2.6161  Tot=             17.4058
 Quadrupole moment (field-independent basis, Debye-Ang):
   XX=           -142.1381   YY=           -175.3531   ZZ=           -146.1293
   XY=             41.8675   XZ=            -17.5621   YZ=             21.7362

  Exact polarizability: 509.957  80.624 356.518 -78.259-195.982 349.911
 Approx polarizability: 544.483  49.301 400.702 -47.409-215.027 393.707

                      1                      2                      3
                      A                      A                      A
 Frequencies --     25.5283                48.0239                80.1376
 Red. masses --      7.9500                 4.9140                 7.0163
 Frc consts  --      0.0031                 0.0067                 0.0265
 IR Inten    --      6.3476                 6.6086                 4.9771

                      4                      5                      6
                      A                      A                      A
 Frequencies --    121.8909               155.7125               169.5946
 Red. masses --      4.5461                 6.2667                 7.7109
 Frc consts  --      0.0398                 0.0895                 0.1307
 IR Inten    --      0.0133                 4.6939                 3.9801

                      7                      8                      9
                      A                      A                      A
 Frequencies --    186.2158               251.1085               274.9099
 Red. masses --      4.8088                 5.0436                 6.3843
 Frc consts  --      0.0982                 0.1874                 0.2843
 IR Inten    --      0.1163                 0.0332                 4.8901

                     10                     11                     12
                      A                      A                      A
 Frequencies --    288.7460               331.0433               337.1711
 Red. masses --      6.9548                 2.4594                 8.5919
 Frc consts  --      0.3416                 0.1588                 0.5755
 IR Inten    --      1.3895                38.5461                 2.2368

                     13                     14                     15
                      A                      A                      A
 Frequencies --    348.3583               395.2573               407.3136
 Red. masses --      1.5011                 8.7246                 7.3641
 Frc consts  --      0.1073                 0.8031                 0.7198
 IR Inten    --    132.4974                20.9080                 3.6599

                     16                     17                     18
                      A                      A                      A
 Frequencies --    409.4181               439.1439               447.0264
 Red. masses --      3.7108                 3.1543                 5.1412
 Frc consts  --      0.3665                 0.3584                 0.6053
 IR Inten    --      3.7469                 0.7443                 4.1435

                     19                     20                     21
                      A                      A                      A
 Frequencies --    469.7212               485.9560               518.9800
 Red. masses --      4.9282                10.7238                 3.3575
 Frc consts  --      0.6407                 1.4921                 0.5328
 IR Inten    --     40.6682                12.2434                28.1817

                     22                     23                     24
                      A                      A                      A
 Frequencies --    523.3580               552.3199               554.2829
 Red. masses --      7.7156                 7.1474                 4.4064
 Frc consts  --      1.2451                 1.2846                 0.7976
 IR Inten    --     31.4138                14.1151                 2.0455

                     25                     26                     27
                      A                      A                      A
 Frequencies --    619.9006               636.1398               656.6561
 Red. masses --      6.6750                 3.6271                 6.8505
 Frc consts  --      1.5113                 0.8648                 1.7404
 IR Inten    --     42.2440                 0.0007                 2.4735

                     28                     29                     30
                      A                      A                      A
 Frequencies --    684.8942               690.6569               713.4897
 Red. masses --      7.0683                 4.2723                 2.4721
 Frc consts  --      1.9535                 1.2007                 0.7415
 IR Inten    --      1.0289                 1.8246                99.0334

                     31                     32                     33
                      A                      A                      A
 Frequencies --    740.9731               748.2174               789.2395
 Red. masses --      6.9437                 4.6960                 1.6602
 Frc consts  --      2.2462                 1.5489                 0.6093
 IR Inten    --     16.7772                 1.2977                24.7946

                     34                     35                     36
                      A                      A                      A
 Frequencies --    792.6407               798.6719               822.2881
 Red. masses --      3.4869                 6.1396                 1.6678
 Frc consts  --      1.2908                 2.3074                 0.6644
 IR Inten    --     14.7351                24.7251                13.2501

                     37                     38                     39
                      A                      A                      A
 Frequencies --    826.6882               836.7335               860.0711
 Red. masses --      6.3964                 1.6358                 1.5931
 Frc consts  --      2.5755                 0.6748                 0.6943
 IR Inten    --      3.3785                24.4263                91.2145

                     40                     41                     42
                      A                      A                      A
 Frequencies --    888.1661               910.6890               967.9664
 Red. masses --      1.4636                 6.7527                 3.8952
 Frc consts  --      0.6802                 3.2997                 2.1503
 IR Inten    --      0.0175                12.0053                57.6136

                     43                     44                     45
                      A                      A                      A
 Frequencies --    988.5383               992.5742               997.8398
 Red. masses --      1.3630                 1.2761                 1.3049
 Frc consts  --      0.7847                 0.7407                 0.7655
 IR Inten    --      1.9844                 5.1640                 0.0308

                     46                     47                     48
                      A                      A                      A
 Frequencies --   1002.8376              1003.4379              1043.4709
 Red. masses --      1.2907                 5.0567                 1.9701
 Frc consts  --      0.7648                 2.9998                 1.2639
 IR Inten    --      0.0610                48.3479                23.3016

                     49                     50                     51
                      A                      A                      A
 Frequencies --   1081.9224              1114.8276              1146.7506
 Red. masses --      3.4927                 1.9797                 1.3993
 Frc consts  --      2.4088                 1.4497                 1.0841
 IR Inten    --     10.6098                15.9307                29.9831

                     52                     53                     54
                      A                      A                      A
 Frequencies --   1156.9754              1167.6955              1188.3471
 Red. masses --      1.2685                 1.8286                 1.7951
 Frc consts  --      1.0004                 1.4690                 1.4936
 IR Inten    --     22.0512               145.4965               437.1318

                     55                     56                     57
                      A                      A                      A
 Frequencies --   1190.4432              1200.6339              1220.8365
 Red. masses --      1.6061                 1.9154                 2.2361
 Frc consts  --      1.3410                 1.6268                 1.9636
 IR Inten    --     60.6192                 9.4416                60.9081

                     58                     59                     60
                      A                      A                      A
 Frequencies --   1242.4202              1264.9090              1291.3881
 Red. masses --      2.4389                 2.2141                 2.4650
 Frc consts  --      2.2181                 2.0872                 2.4221
 IR Inten    --     80.4986               315.4676                26.9758

                     61                     62                     63
                      A                      A                      A
 Frequencies --   1302.9230              1360.2205              1363.7314
 Red. masses --      2.3654                 6.8417                 7.8319
 Frc consts  --      2.3658                 7.4582                 8.5817
 IR Inten    --     76.1440                59.5329                 8.2256

                     64                     65                     66
                      A                      A                      A
 Frequencies --   1377.6709              1389.2044              1421.4483
 Red. masses --      4.5309                 4.1015                 2.2765
 Frc consts  --      5.0667                 4.6636                 2.7101
 IR Inten    --    328.0640                52.9903               377.1187

                     67                     68                     69
                      A                      A                      A
 Frequencies --   1458.0149              1475.6577              1484.2857
 Red. masses --      3.7855                 2.7488                 3.0695
 Frc consts  --      4.7412                 3.5267                 3.9843
 IR Inten    --    480.0609                28.5020                57.0735

                     70                     71                     72
                      A                      A                      A
 Frequencies --   1503.0859              1513.9825              1546.6817
 Red. masses --      4.1704                 4.9274                 4.9365
 Frc consts  --      5.5513                 6.6544                 6.9578
 IR Inten    --    723.6934               262.4921                95.7566

                     73                     74                     75
                      A                      A                      A
 Frequencies --   1573.2972              1607.7040              1626.0552
 Red. masses --      5.2247                 8.1506                 5.8148
 Frc consts  --      7.6196                12.4122                 9.0586
 IR Inten    --    215.5179                29.2711                35.0474

                     76                     77                     78
                      A                      A                      A
 Frequencies --   1633.4815              1638.8355              3154.0700
 Red. masses --      6.4577                 6.1913                 1.0903
 Frc consts  --     10.1521                 9.7972                 6.3906
 IR Inten    --     10.5418               242.9087                29.4253

                     79                     80                     81
                      A                      A                      A
 Frequencies --   3159.3292              3159.4210              3173.7160
 Red. masses --      1.0872                 1.0880                 1.0910
 Frc consts  --      6.3936                 6.3988                 6.4743
 IR Inten    --     32.7558                14.4196                28.0814

                     82                     83                     84
                      A                      A                      A
 Frequencies --   3176.7129              3191.1672              3196.3807
 Red. masses --      1.0907                 1.0926                 1.0927
 Frc consts  --      6.4853                 6.5556                 6.5777
 IR Inten    --     20.5020                24.4482                54.1057

                     85                     86                     87
                      A                      A                      A
 Frequencies --   3197.0229              3242.4605              3810.8562
 Red. masses --      1.0921                 1.0913                 1.0662
 Frc consts  --      6.5766                 6.7597                 9.1225
 IR Inten    --      7.6770                32.3859               167.7828

 - Thermochemistry -
 -------------------
 Temperature   298.150 Kelvin.  Pressure   1.00000 Atm.
 Atom     1 has atomic number  6 and mass  12.00000

 Molecular mass:   274.06299 amu.
 Principal axes and moments of inertia in atomic units:
                           1         2         3
     Eigenvalues --  2318.467189418.50954**********
           X            0.67904   0.73409  -0.00233
           Y            0.52424  -0.48270   0.70155
           Z           -0.51388   0.47760   0.71262
 This molecule is an asymmetric top.
 Rotational symmetry number  1.
 Warning -- assumption of classical behavior for rotation
           may cause significant error
 Rotational temperatures (Kelvin)      0.03736     0.00920     0.00738
 Rotational constants (GHZ):           0.77842     0.19162     0.15377
 Zero-point vibrational energy     597167.2 (Joules/Mol)
                                  142.72639 (Kcal/Mol)
 Warning -- explicit consideration of  25 degrees of freedom as
           vibrations may cause significant error
 Vibrational temperatures:     36.73    69.10   115.30   175.37   224.04
          (Kelvin)            244.01   267.92   361.29   395.53   415.44
                              476.30   485.11   501.21   568.69   586.03
                              589.06   631.83   643.17   675.82   699.18
                              746.70   753.00   794.67   797.49   891.90
                              915.26   944.78   985.41   993.70  1026.55
                             1066.10  1076.52  1135.54  1140.43  1149.11
                             1183.09  1189.42  1203.87  1237.45  1277.87
                             1310.28  1392.69  1422.29  1428.09  1435.67
                             1442.86  1443.72  1501.32  1556.65  1603.99
                             1649.92  1664.63  1680.05  1709.77  1712.78
                             1727.44  1756.51  1787.57  1819.92  1858.02
                             1874.62  1957.05  1962.11  1982.16  1998.76
                             2045.15  2097.76  2123.14  2135.56  2162.61
                             2178.28  2225.33  2263.62  2313.13  2339.53
                             2350.22  2357.92  4538.00  4545.57  4545.70
                             4566.27  4570.58  4591.38  4598.88  4599.80
                             4665.18  5482.97

 Zero-point correction=                           0.227449 (Hartree/Particle)
 Thermal correction to Energy=                    0.242677
 Thermal correction to Enthalpy=                  0.243621
 Thermal correction to Gibbs Free Energy=         0.183935
 Sum of electronic and zero-point Energies=           -917.794971
 Sum of electronic and thermal Energies=              -917.779744
 Sum of electronic and thermal Enthalpies=            -917.778799
 Sum of electronic and thermal Free Energies=         -917.838486

                     E (Thermal)             CV                S
                      KCal/Mol        Cal/Mol-Kelvin    Cal/Mol-Kelvin
 Total                  152.282             62.697            125.620
 Electronic               0.000              0.000              1.377
 Translational            0.889              2.981             42.723
 Rotational               0.889              2.981             33.904
 Vibrational            150.505             56.735             47.615
 Vibration     1          0.593              1.985              6.150
 Vibration     2          0.595              1.978              4.897
 Vibration     3          0.600              1.963              3.887
 Vibration     4          0.609              1.931              3.070
 Vibration     5          0.620              1.896              2.601
 Vibration     6          0.625              1.880              2.440
 Vibration     7          0.632              1.859              2.265
 Vibration     8          0.663              1.761              1.723
 Vibration     9          0.677              1.720              1.565
 Vibration    10          0.685              1.695              1.481
 Vibration    11          0.713              1.614              1.255
 Vibration    12          0.718              1.601              1.226
 Vibration    13          0.726              1.579              1.174
 Vibration    14          0.762              1.480              0.980
 Vibration    15          0.772              1.454              0.936
 Vibration    16          0.774              1.450              0.929
 Vibration    17          0.799              1.385              0.829
 Vibration    18          0.806              1.367              0.805
 Vibration    19          0.827              1.317              0.738
 Vibration    20          0.842              1.281              0.694
 Vibration    21          0.874              1.208              0.612
 Vibration    22          0.878              1.198              0.602
 Vibration    23          0.908              1.135              0.539
 Vibration    24          0.910              1.130              0.535
 Vibration    25          0.980              0.990              0.417

                           ! Non-Optimized Parameters !
 Normal termination of Gaussian 16 at Sun Feb 11 00:48:28 2024.
