 Gaussian 16, Revision A.03,
 Gaussian 16:  ES64L-G16RevA.03 25-Dec-2016

 ----------------------------------------------------------------------
 #P UB3LYP/6-311++G(d,p) nosym opt freq SCRF=(PCM,Solvent=n,n-DiMethylF
 ormamide)
 ----------------------------------------------------------------------

 --------
 Oxidized
 --------
 Symbolic Z-matrix:
 Charge =  0 Multiplicity = 1

 SCF Done:  E(UB3LYP) =  -1897.00608412     A.U. after   16 cycles
 SCF Done:  E(UB3LYP) =  -1897.00684185     A.U. after   13 cycles
 SCF Done:  E(UB3LYP) =  -1897.00689128     A.U. after   14 cycles
 SCF Done:  E(UB3LYP) =  -1897.00681171     A.U. after   13 cycles
 SCF Done:  E(UB3LYP) =  -1897.00698738     A.U. after   13 cycles
 SCF Done:  E(UB3LYP) =  -1897.00700089     A.U. after   12 cycles
 SCF Done:  E(UB3LYP) =  -1897.00700896     A.U. after   11 cycles
 SCF Done:  E(UB3LYP) =  -1897.00701098     A.U. after   10 cycles
 SCF Done:  E(UB3LYP) =  -1897.00701294     A.U. after   11 cycles
 SCF Done:  E(UB3LYP) =  -1897.00701440     A.U. after   11 cycles
 SCF Done:  E(UB3LYP) =  -1897.00718518     A.U. after   13 cycles
 SCF Done:  E(UB3LYP) =  -1897.00718572     A.U. after   11 cycles
 SCF Done:  E(UB3LYP) =  -1897.00718609     A.U. after   11 cycles
 SCF Done:  E(UB3LYP) =  -1897.00718615     A.U. after    9 cycles
 SCF Done:  E(UB3LYP) =  -1897.00718623     A.U. after   10 cycles
 SCF Done:  E(UB3LYP) =  -1897.00718634     A.U. after   11 cycles
 SCF Done:  E(UB3LYP) =  -1897.00718642     A.U. after   11 cycles
 SCF Done:  E(UB3LYP) =  -1897.00718647     A.U. after   11 cycles
 SCF Done:  E(UB3LYP) =  -1897.00718649     A.U. after   10 cycles
 Optimization completed.
    -- Stationary point found.
 Normal termination of Gaussian 16 at Sun Feb 11 03:16:55 2024.

 ----------------------------------------------------------------------
 #P Geom=AllCheck Guess=TCheck SCRF=Check GenChk UB3LYP/6-311++G(d,p) F
 req
 ----------------------------------------------------------------------

 Structure from the checkpoint file:  "220.chk"
 --------
 Oxidized
 --------
 Charge =  0 Multiplicity = 1

                          Input orientation:
 ---------------------------------------------------------------------
 Center     Atomic      Atomic             Coordinates (Angstroms)
 Number     Number       Type             X           Y           Z
 ---------------------------------------------------------------------
      1          6           0        5.002698   -2.673903    0.056602
      2          6           0        5.718182   -1.722132   -0.652582
      3          6           0        5.087280   -0.655465   -1.296479
      4          6           0        3.611780   -2.559332    0.134541
      5          6           0        2.961367   -1.490779   -0.504359
      6          6           0        3.706336   -0.545677   -1.217295
      7          6           0        2.849844   -3.587918    0.898943
      8          6           0        1.367505   -3.440180    0.958589
      9          6           0        0.711186   -2.374882    0.320649
     10          6           0        1.477067   -1.343570   -0.440409
     11          6           0        0.625476   -4.391322    1.665050
     12          6           0       -0.681956   -2.270071    0.390908
     13          6           0       -1.421964   -3.212080    1.090805
     14          8           0        3.417498   -4.514856    1.454425
     15          8           0        0.910008   -0.413943   -0.990728
     16          1           0        5.499795   -3.502683    0.542228
     17          1           0       -2.500670   -3.136736    1.140283
     18          1           0        3.191149    0.269199   -1.708609
     19          1           0        1.132591   -5.214604    2.149657
     20          1           0       -1.173977   -1.446768   -0.109968
     21          6           0       -0.753000   -4.262431    1.723447
     22         16           0        7.512704   -1.869118   -0.755740
     23         16           0       -1.712136   -5.488663    2.633922
     24          8           0       -0.832620   -6.635165    2.876432
     25          8           0       -2.990822   -5.679557    1.944585
     26          7           0       -2.069913   -4.682104    4.056783
     27          1           0       -1.382076   -4.864530    4.783069
     28          1           0       -3.008977   -4.916706    4.368321
     29          8           0        7.858815   -3.236522   -0.359813
     30          8           0        7.940569   -1.349002   -2.056767
     31          7           0        8.037652   -0.761926    0.384600
     32          1           0        5.665288    0.070133   -1.854224
     33          1           0        8.851971   -0.259011    0.041964
     34          1           0        8.219079   -1.197127    1.285170
 ---------------------------------------------------------------------

 SCF Done:  E(UB3LYP) =  -1897.00718649     A.U. after    2 cycles

 Alpha  occ. eigenvalues --  -89.09278 -89.09269 -19.14742 -19.14590 -19.14315
 Alpha  occ. eigenvalues --  -19.14306 -19.14258 -19.14240 -14.36042 -14.36025
 Alpha  occ. eigenvalues --  -10.29934 -10.29878 -10.24526 -10.24517 -10.22965
 Alpha  occ. eigenvalues --  -10.22954 -10.22877 -10.22872 -10.22394 -10.22375
 Alpha  occ. eigenvalues --  -10.22375 -10.22368 -10.21618 -10.21614  -8.15420
 Alpha  occ. eigenvalues --   -8.15414  -6.11701  -6.11694  -6.11672  -6.11665
 Alpha  occ. eigenvalues --   -6.11514  -6.11510  -1.14695  -1.14678  -1.08150
 Alpha  occ. eigenvalues --   -1.07929  -1.03621  -1.03586  -0.93355  -0.93328
 Alpha  occ. eigenvalues --   -0.91769  -0.90850  -0.84287  -0.80927  -0.80358
 Alpha  occ. eigenvalues --   -0.79823  -0.73111  -0.70519  -0.70507  -0.65819
 Alpha  occ. eigenvalues --   -0.65466  -0.63241  -0.60786  -0.58392  -0.58382
 Alpha  occ. eigenvalues --   -0.55427  -0.54967  -0.54156  -0.54002  -0.52793
 Alpha  occ. eigenvalues --   -0.52481  -0.51995  -0.50981  -0.48348  -0.47851
 Alpha  occ. eigenvalues --   -0.47417  -0.47406  -0.47147  -0.46992  -0.46790
 Alpha  occ. eigenvalues --   -0.46504  -0.44149  -0.43350  -0.42546  -0.41710
 Alpha  occ. eigenvalues --   -0.40005  -0.39463  -0.39223  -0.38480  -0.38400
 Alpha  occ. eigenvalues --   -0.35538  -0.35478  -0.34688  -0.34613  -0.33656
 Alpha  occ. eigenvalues --   -0.33628  -0.32549  -0.32473  -0.30302  -0.30200
 Alpha  occ. eigenvalues --   -0.29953  -0.29571  -0.29277  -0.29103
 Alpha virt. eigenvalues --   -0.13707  -0.09485  -0.07033  -0.04671  -0.01603
 Alpha virt. eigenvalues --   -0.01237  -0.00911   0.00350   0.01078   0.01474
 Alpha virt. eigenvalues --    0.01953   0.02552   0.02674   0.03074   0.03244

  Beta  occ. eigenvalues --  -89.09278 -89.09269 -19.14742 -19.14590 -19.14315
  Beta  occ. eigenvalues --  -19.14306 -19.14258 -19.14240 -14.36042 -14.36025
  Beta  occ. eigenvalues --  -10.29934 -10.29878 -10.24526 -10.24517 -10.22965
  Beta  occ. eigenvalues --  -10.22954 -10.22877 -10.22872 -10.22394 -10.22375
  Beta  occ. eigenvalues --  -10.22375 -10.22368 -10.21618 -10.21614  -8.15420
  Beta  occ. eigenvalues --   -8.15414  -6.11701  -6.11694  -6.11672  -6.11665
  Beta  occ. eigenvalues --   -6.11514  -6.11510  -1.14695  -1.14678  -1.08150
  Beta  occ. eigenvalues --   -1.07929  -1.03621  -1.03586  -0.93355  -0.93328
  Beta  occ. eigenvalues --   -0.91769  -0.90850  -0.84287  -0.80927  -0.80358
  Beta  occ. eigenvalues --   -0.79823  -0.73111  -0.70519  -0.70507  -0.65819
  Beta  occ. eigenvalues --   -0.65466  -0.63241  -0.60786  -0.58392  -0.58382
  Beta  occ. eigenvalues --   -0.55427  -0.54967  -0.54156  -0.54002  -0.52793
  Beta  occ. eigenvalues --   -0.52481  -0.51995  -0.50981  -0.48348  -0.47851
  Beta  occ. eigenvalues --   -0.47417  -0.47406  -0.47147  -0.46992  -0.46790
  Beta  occ. eigenvalues --   -0.46504  -0.44149  -0.43350  -0.42546  -0.41710
  Beta  occ. eigenvalues --   -0.40005  -0.39463  -0.39223  -0.38480  -0.38400
  Beta  occ. eigenvalues --   -0.35538  -0.35478  -0.34688  -0.34613  -0.33656
  Beta  occ. eigenvalues --   -0.33628  -0.32549  -0.32473  -0.30302  -0.30200
  Beta  occ. eigenvalues --   -0.29953  -0.29571  -0.29277  -0.29103
  Beta virt. eigenvalues --   -0.13707  -0.09485  -0.07033  -0.04671  -0.01603
  Beta virt. eigenvalues --   -0.01237  -0.00911   0.00350   0.01078   0.01474
  Beta virt. eigenvalues --    0.01953   0.02552   0.02674   0.03074   0.03244

 Mulliken charges and spin densities:
               1          2
     1  C    0.020007  -0.000000
     2  C   -0.562741   0.000000
     3  C   -0.425895  -0.000000
     4  C    0.289655   0.000000
     5  C    0.621323   0.000000
     6  C   -0.064237  -0.000000
     7  C   -0.898630   0.000000
     8  C    0.318301  -0.000000
     9  C    0.629482   0.000000
    10  C   -0.280675   0.000000
    11  C    0.032705   0.000000
    12  C   -0.082127  -0.000000
    13  C   -0.417834  -0.000000
    14  O   -0.230074  -0.000000
    15  O   -0.229572  -0.000000
    16  H    0.245817  -0.000000
    17  H    0.280570  -0.000000
    18  H    0.194653  -0.000000
    19  H    0.246903  -0.000000
    20  H    0.194240   0.000000
    21  C   -0.577274   0.000000
    22  S    0.456970  -0.000000
    23  S    0.436633  -0.000000
    24  O   -0.230779  -0.000000
    25  O   -0.283168  -0.000000
    26  N   -0.387483  -0.000000
    27  H    0.319508  -0.000000
    28  H    0.342705   0.000000
    29  O   -0.235566  -0.000000
    30  O   -0.282752  -0.000000
    31  N   -0.385877   0.000000
    32  H    0.278716   0.000000
    33  H    0.344262  -0.000000
    34  H    0.322236  -0.000000
 Sum of Mulliken charges =  -0.00000  -0.00000

 Dipole moment (field-independent basis, Debye):
    X=             -0.8132    Y=              7.2636    Z=              5.4515  Tot=              9.1181
 Quadrupole moment (field-independent basis, Debye-Ang):
   XX=           -161.4180   YY=           -216.0602   ZZ=           -136.5075
   XY=             28.0036   XZ=             16.7282   YZ=             -8.4155

  Exact polarizability: 439.584  23.315 318.725 -41.664 -91.661 251.895
 Approx polarizability: 468.552 -12.064 394.452 -17.854-114.357 298.507

                      1                      2                      3
                      A                      A                      A
 Frequencies --     13.6279                27.4084                31.6684
 Red. masses --      7.5642                 9.4940                 7.4754
 Frc consts  --      0.0008                 0.0042                 0.0044
 IR Inten    --      2.6465                 1.7259                 3.9875

                      4                      5                      6
                      A                      A                      A
 Frequencies --     57.0544                70.5863                73.4703
 Red. masses --      5.7741                 6.9914                 8.9392
 Frc consts  --      0.0111                 0.0205                 0.0284
 IR Inten    --      4.6400                 9.0013                 0.6870

                      7                      8                      9
                      A                      A                      A
 Frequencies --     87.6173               102.0603               130.7469
 Red. masses --      1.4677                 1.5020                 9.2676
 Frc consts  --      0.0066                 0.0092                 0.0933
 IR Inten    --     77.1586                61.6329                 2.4900

                     10                     11                     12
                      A                      A                      A
 Frequencies --    134.2433               138.5571               170.9034
 Red. masses --      4.0403                 3.1266                 5.1576
 Frc consts  --      0.0429                 0.0354                 0.0888
 IR Inten    --      9.2711                15.4947                 7.6188

                     13                     14                     15
                      A                      A                      A
 Frequencies --    186.4697               221.0367               228.1634
 Red. masses --     12.3925                 5.1895                 9.0581
 Frc consts  --      0.2539                 0.1494                 0.2778
 IR Inten    --      2.2875                 2.5137                 5.4527

                     16                     17                     18
                      A                      A                      A
 Frequencies --    249.9482               274.9026               311.7892
 Red. masses --     11.3093                11.4238                 4.5140
 Frc consts  --      0.4163                 0.5087                 0.2585
 IR Inten    --      0.0199                 4.1502                12.1990

                     19                     20                     21
                      A                      A                      A
 Frequencies --    338.6180               351.6683               356.5790
 Red. masses --      4.3887                 4.0937                 4.1572
 Frc consts  --      0.2965                 0.2983                 0.3114
 IR Inten    --     17.0475                 6.1323                 2.1755

                     22                     23                     24
                      A                      A                      A
 Frequencies --    400.2529               409.9872               421.1807
 Red. masses --     10.1696                 3.4262                 7.5091
 Frc consts  --      0.9599                 0.3393                 0.7848
 IR Inten    --     85.4292                 0.3842                 4.2940

                     25                     26                     27
                      A                      A                      A
 Frequencies --    430.4312               434.3110               442.0563
 Red. masses --      6.4207                 6.2702                 3.5135
 Frc consts  --      0.7009                 0.6968                 0.4045
 IR Inten    --     14.5955                26.0142                12.5039

                     28                     29                     30
                      A                      A                      A
 Frequencies --    452.4339               461.9577               476.1415
 Red. masses --      8.0499                 7.2535                 7.2364
 Frc consts  --      0.9708                 0.9120                 0.9666
 IR Inten    --     14.8043                45.3321                45.5203

                     31                     32                     33
                      A                      A                      A
 Frequencies --    488.9399               524.9270               557.6708
 Red. masses --      9.9242                 7.3012                 5.2524
 Frc consts  --      1.3978                 1.1853                 0.9624
 IR Inten    --      8.6779                36.1248               254.0796

                     34                     35                     36
                      A                      A                      A
 Frequencies --    561.2420               574.9275               620.3389
 Red. masses --      5.5556                 6.2809                 2.3142
 Frc consts  --      1.0311                 1.2232                 0.5247
 IR Inten    --    117.7777                26.1663               344.9555

                     37                     38                     39
                      A                      A                      A
 Frequencies --    626.6850               654.6651               667.1465
 Red. masses --      2.3235                 7.5450                 3.8601
 Frc consts  --      0.5376                 1.9052                 1.0123
 IR Inten    --    291.0080                45.8488                87.5640

                     40                     41                     42
                      A                      A                      A
 Frequencies --    680.8633               704.7999               718.3877
 Red. masses --      6.5564                 6.9215                 4.6770
 Frc consts  --      1.7907                 2.0257                 1.4221
 IR Inten    --      5.3801                 0.1978                 1.8474

                     43                     44                     45
                      A                      A                      A
 Frequencies --    730.5092               752.1642               809.7226
 Red. masses --      6.8999                 4.8208                 4.0733
 Frc consts  --      2.1694                 1.6069                 1.5735
 IR Inten    --      7.3326                44.4633                 0.2548

                     46                     47                     48
                      A                      A                      A
 Frequencies --    828.5316               849.7370               855.2694
 Red. masses --      3.5442                 1.9134                 1.6775
 Frc consts  --      1.4335                 0.8140                 0.7230
 IR Inten    --     84.2398               272.8741               128.3782

                     49                     50                     51
                      A                      A                      A
 Frequencies --    873.7808               877.7734               940.0874
 Red. masses --      2.3283                 2.5898                 6.5318
 Frc consts  --      1.0474                 1.1757                 3.4011
 IR Inten    --    112.9125                52.2891               112.8547

                     52                     53                     54
                      A                      A                      A
 Frequencies --    943.3661               952.7101               989.8955
 Red. masses --      1.3788                 1.4615                 5.7143
 Frc consts  --      0.7230                 0.7816                 3.2990
 IR Inten    --      1.3459                12.1168               144.6541

                     55                     56                     57
                      A                      A                      A
 Frequencies --   1002.2967              1005.6945              1070.9938
 Red. masses --      1.3461                 1.3736                 4.0962
 Frc consts  --      0.7968                 0.8185                 2.7683
 IR Inten    --      0.1440                 4.0036               206.8599

                     58                     59                     60
                      A                      A                      A
 Frequencies --   1071.9990              1088.9229              1092.6211
 Red. masses --      3.9159                 2.0002                 1.5820
 Frc consts  --      2.6513                 1.3974                 1.1128
 IR Inten    --    113.5751                37.6244                92.4882

                     61                     62                     63
                      A                      A                      A
 Frequencies --   1103.9007              1110.6503              1137.5768
 Red. masses --      1.8096                 2.1757                 2.3443
 Frc consts  --      1.2992                 1.5813                 1.7874
 IR Inten    --    149.6133               353.9387                62.8322

                     64                     65                     66
                      A                      A                      A
 Frequencies --   1137.8856              1185.3697              1186.9903
 Red. masses --      1.9800                 2.2928                 2.6171
 Frc consts  --      1.5105                 1.8981                 2.1725
 IR Inten    --     72.2523                59.6196                 4.3309

                     67                     68                     69
                      A                      A                      A
 Frequencies --   1227.0708              1264.5685              1268.0792
 Red. masses --      1.7362                 3.6545                 7.5125
 Frc consts  --      1.5402                 3.4432                 7.1175
 IR Inten    --      3.7984               535.6459               368.4174

                     70                     71                     72
                      A                      A                      A
 Frequencies --   1275.2461              1284.6536              1303.6831
 Red. masses --      1.9752                 2.3517                 3.7910
 Frc consts  --      1.8925                 2.2867                 3.7962
 IR Inten    --     95.4039               309.0394               681.4017

                     73                     74                     75
                      A                      A                      A
 Frequencies --   1349.3693              1360.1596              1422.6802
 Red. masses --      7.6686                 9.6800                 3.8034
 Frc consts  --      8.2268                10.5513                 4.5356
 IR Inten    --     36.8998                 2.3630                 0.1137

                     76                     77                     78
                      A                      A                      A
 Frequencies --   1442.4931              1495.7511              1502.4840
 Red. masses --      4.8598                 2.5933                 2.5494
 Frc consts  --      5.9579                 3.4184                 3.3908
 IR Inten    --      9.3158                23.3606                 3.6716

                     79                     80                     81
                      A                      A                      A
 Frequencies --   1576.6929              1577.1384              1598.6333
 Red. masses --      1.0954                 1.0953                 7.4609
 Frc consts  --      1.6045                 1.6052                11.2341
 IR Inten    --     41.8646                56.0606                 3.2078

                     82                     83                     84
                      A                      A                      A
 Frequencies --   1612.1359              1618.0601              1626.5699
 Red. masses --      8.6350                 6.4284                 6.3282
 Frc consts  --     13.2225                 9.9162                 9.8646
 IR Inten    --     24.4417               291.0215                 0.9146

                     85                     86                     87
                      A                      A                      A
 Frequencies --   1709.7533              1716.1035              3202.9210
 Red. masses --     12.6403                12.2270                 1.0892
 Frc consts  --     21.7708                21.2157                 6.5831
 IR Inten    --     42.8289               742.3204                 4.1749

                     88                     89                     90
                      A                      A                      A
 Frequencies --   3203.0268              3214.5162              3214.9235
 Red. masses --      1.0893                 1.0949                 1.0948
 Frc consts  --      6.5842                 6.6656                 6.6671
 IR Inten    --      0.2943                 0.8617                 0.6895

                     91                     92                     93
                      A                      A                      A
 Frequencies --   3218.4477              3218.7630              3493.7922
 Red. masses --      1.0913                 1.0914                 1.0468
 Frc consts  --      6.6599                 6.6622                 7.5283
 IR Inten    --      0.6862                19.1578                98.2331

                     94                     95                     96
                      A                      A                      A
 Frequencies --   3494.9720              3594.7680              3596.9334
 Red. masses --      1.0467                 1.0990                 1.0993
 Frc consts  --      7.5329                 8.3674                 8.3800
 IR Inten    --    100.4392                95.3111                97.1039

 - Thermochemistry -
 -------------------
 Temperature   298.150 Kelvin.  Pressure   1.00000 Atm.
 Atom     1 has atomic number  6 and mass  12.00000

 Molecular mass:   365.99803 amu.
 Principal axes and moments of inertia in atomic units:
                           1         2         3
     Eigenvalues --  3237.40665********************
           X            0.88096  -0.46629   0.08056
           Y            0.34546   0.75010   0.56392
           Z           -0.32338  -0.46896   0.82189
 This molecule is an asymmetric top.
 Rotational symmetry number  1.
 Warning -- assumption of classical behavior for rotation
           may cause significant error
 Rotational temperatures (Kelvin)      0.02675     0.00402     0.00361
 Rotational constants (GHZ):           0.55747     0.08369     0.07512
 Zero-point vibrational energy     605007.2 (Joules/Mol)
                                  144.60019 (Kcal/Mol)
 Warning -- explicit consideration of  36 degrees of freedom as
           vibrations may cause significant error
 Vibrational temperatures:     19.61    39.43    45.56    82.09   101.56
          (Kelvin)            105.71   126.06   146.84   188.12   193.15
                              199.35   245.89   268.29   318.02   328.28
                              359.62   395.52   448.60   487.20   505.97
                              513.04   575.87   589.88   605.99   619.29
                              624.88   636.02   650.95   664.65   685.06
                              703.48   755.25   802.36   807.50   827.19
                              892.53   901.66   941.92   959.87   979.61
                             1014.05  1033.60  1051.04  1082.20  1165.01
                             1192.07  1222.58  1230.54  1257.18  1262.92
                             1352.58  1357.29  1370.74  1424.24  1442.08
                             1446.97  1540.92  1542.37  1566.72  1572.04
                             1588.27  1597.98  1636.72  1637.16  1705.48
                             1707.81  1765.48  1819.43  1824.48  1834.79
                             1848.33  1875.71  1941.44  1956.97  2046.92
                             2075.43  2152.05  2161.74  2268.51  2269.15
                             2300.08  2319.50  2328.03  2340.27  2459.95
                             2469.09  4608.29  4608.44  4624.97  4625.56
                             4630.63  4631.08  5026.79  5028.49  5172.07
                             5175.18

 Zero-point correction=                           0.230435 (Hartree/Particle)
 Thermal correction to Energy=                    0.252073
 Thermal correction to Enthalpy=                  0.253017
 Thermal correction to Gibbs Free Energy=         0.177160
 Sum of electronic and zero-point Energies=          -1896.776751
 Sum of electronic and thermal Energies=             -1896.755113
 Sum of electronic and thermal Enthalpies=           -1896.754169
 Sum of electronic and thermal Free Energies=        -1896.830026

                     E (Thermal)             CV                S
                      KCal/Mol        Cal/Mol-Kelvin    Cal/Mol-Kelvin
 Total                  158.178             81.279            159.655
 Electronic               0.000              0.000              0.000
 Translational            0.889              2.981             43.585
 Rotational               0.889              2.981             35.771
 Vibrational            156.401             75.317             80.298
 Vibration     1          0.593              1.986              7.396
 Vibration     2          0.593              1.984              6.009
 Vibration     3          0.594              1.983              5.722
 Vibration     4          0.596              1.975              4.557
 Vibration     5          0.598              1.968              4.137
 Vibration     6          0.599              1.967              4.058
 Vibration     7          0.601              1.958              3.713
 Vibration     8          0.604              1.948              3.415
 Vibration     9          0.612              1.923              2.935
 Vibration    10          0.613              1.919              2.884
 Vibration    11          0.614              1.915              2.824
 Vibration    12          0.626              1.878              2.426
 Vibration    13          0.632              1.858              2.263
 Vibration    14          0.648              1.809              1.951
 Vibration    15          0.651              1.798              1.893
 Vibration    16          0.663              1.763              1.731
 Vibration    17          0.677              1.720              1.565
 Vibration    18          0.700              1.651              1.353
 Vibration    19          0.719              1.598              1.219
 Vibration    20          0.728              1.572              1.159
 Vibration    21          0.732              1.562              1.137
 Vibration    22          0.766              1.470              0.962
 Vibration    23          0.774              1.449              0.927
 Vibration    24          0.784              1.424              0.888
 Vibration    25          0.792              1.404              0.857
 Vibration    26          0.795              1.395              0.845
 Vibration    27          0.802              1.378              0.820
 Vibration    28          0.811              1.356              0.788
 Vibration    29          0.820              1.334              0.760
 Vibration    30          0.833              1.303              0.721
 Vibration    31          0.845              1.275              0.686
 Vibration    32          0.880              1.195              0.599
 Vibration    33          0.913              1.123              0.529
 Vibration    34          0.917              1.115              0.521
 Vibration    35          0.931              1.085              0.495
 Vibration    36          0.980              0.989              0.416

 Optimization completed.
    -- Stationary point found.
 Normal termination of Gaussian 16 at Sun Feb 11 04:47:50 2024.
