 Q-Chem 5.4, Q-Chem, Inc., Pleasanton, CA (2021)
 Q-Chem 5.4.0 for Intel X86 EM64T Linux

User input:
--------------------------------------------------------------
$molecule
0 1
Cl                -2.4169860000      2.8513900000      1.6220970000
C                 -2.3790520000      1.2268120000      0.9749910000
C                 -3.6143960000      0.6225780000      0.7458130000
C                 -3.6834590000     -0.6588070000      0.2081360000
C                 -2.5179840000     -1.3319240000     -0.1318510000
C                 -1.2806980000     -0.7203760000      0.0704690000
C                 -0.0571910000     -1.4559520000     -0.3650570000
O                 -0.1165010000     -2.6181810000     -0.7276230000
C                  1.2277710000     -0.6980730000     -0.4113660000
C                  2.3123840000     -1.2889030000     -1.0597140000
C                  3.5092450000     -0.5948860000     -1.1731400000
C                  3.6224430000      0.6867000000     -0.6434900000
C                  2.5497090000      1.2703800000      0.0290030000
Cl                 2.7970020000      2.8972980000      0.6218030000
C                  1.3299150000      0.5844710000      0.1666570000
C                  0.1754190000      1.1156590000      0.9652300000
O                  0.3412210000      1.9100220000      1.8656270000
C                 -1.1834560000      0.5622480000      0.6491620000
H                 -4.5167560000      1.1662830000      0.9946910000
H                 -4.6506190000     -1.1205060000      0.0474470000
H                 -2.5395720000     -2.3248570000     -0.5620100000
H                  2.1900850000     -2.2826390000     -1.4707620000
H                  4.3558320000     -1.0404290000     -1.6822220000
H                  4.5434420000      1.2464930000     -0.7444920000
$end
$rem
MAX_SCF_CYCLES=200
BASIS  =  6-311++G(d,p)
GUI  =  2
JOB_TYPE  =  SP
METHOD  =  B3LYP
SOLVENT_METHOD = COSMO
$end
$solvent
dielectric 37.219
opticaldielectric 1.43
$end

--------------------------------------------------------------

             Standard Nuclear Orientation (Angstroms)
    I     Atom           X                Y                Z
 ----------------------------------------------------------------
    1      Cl      2.6545061589    -2.4154000535    -0.1476345956
    2      C       2.5094337983    -0.6735136523    -0.0826375389
    3      C       3.6846491711     0.0530843305    -0.2687027953
    4      C       3.6622874072     1.4442094336    -0.2595010837
    5      C       2.4595309362     2.1173470690    -0.0943580342
    6      C       1.2772817893     1.3943603428     0.0649471219
    7      C       0.0000708048     2.1582170858     0.1788738737
    8      O       0.0001019406     3.3710360487     0.3006038665
    9      C      -1.2771416318     1.3944551225     0.0646438477
   10      C      -2.4593342929     2.1174734508    -0.0949982100
   11      C      -3.6621238157     1.4443831592    -0.2600682871
   12      C      -3.6846189832     0.0532600793    -0.2687934914
   13      C      -2.5094780773    -0.6733840829    -0.0824617307
   14      Cl     -2.6547655474    -2.4152671285    -0.1469819040
   15      C      -1.2796711446    -0.0156501329     0.0971994556
   16      C      -0.0000127275    -0.7377280790     0.4034972141
   17      O      -0.0000308987    -1.8291543636     0.9307602429
   18      C       1.2796918054    -0.0157528588     0.0972096515
   19      H       4.6129715935    -0.4832119473    -0.4184116391
   20      H       4.5858050978     1.9953357809    -0.3927685266
   21      H       2.4083001355     3.1984547499    -0.0937777447
   22      H      -2.4080539951     3.1985835069    -0.0946531288
   23      H      -4.5855811716     1.9955516055    -0.3935690425
   24      H      -4.6129906273    -0.4829926876    -0.4183522601
 ----------------------------------------------------------------

    9   -1608.1749603359      3.49e-06  Convergence criterion met
 Total energy in the final basis set =    -1608.1749603359
    5   -1608.1904692903      3.79e-06  Convergence criterion met
 Total energy in the final basis set =    -1608.1904692903

                    Orbital Energies (a.u.)
 --------------------------------------------------------------

 Alpha MOs
 -- Occupied --
********-101.5672 -19.1402 -19.1385 -10.2971 -10.2912 -10.2655 -10.2655
-10.2263 -10.2263 -10.2181 -10.2181 -10.2077 -10.2077 -10.2042 -10.2042
-10.2019 -10.2019  -9.4821  -9.4821  -7.2467  -7.2467  -7.2372  -7.2372
 -7.2363  -7.2363  -1.0803  -1.0743  -0.9202  -0.9161  -0.8707  -0.8604
 -0.8204  -0.7820  -0.7693  -0.7628  -0.6971  -0.6750  -0.6565  -0.6138
 -0.5875  -0.5709  -0.5631  -0.5153  -0.5029  -0.5010  -0.4976  -0.4718
 -0.4671  -0.4621  -0.4586  -0.4580  -0.4501  -0.4289  -0.4185  -0.4063
 -0.3976  -0.3940  -0.3878  -0.3827  -0.3557  -0.3507  -0.3409  -0.3286
 -0.2980  -0.2954  -0.2835  -0.2737  -0.2717  -0.2707

          Ground-State Mulliken Net Atomic Charges

     Atom                 Charge (a.u.)
  ----------------------------------------
      1 Cl                    0.487193
      2 C                     0.476399
      3 C                    -0.302789
      4 C                    -0.750808
      5 C                     0.403435
      6 C                     0.449053
      7 C                    -0.876622
      8 O                    -0.275488
      9 C                     0.449196
     10 C                     0.403673
     11 C                    -0.750643
     12 C                    -0.302534
     13 C                     0.476985
     14 Cl                    0.487000
     15 C                     0.360196
     16 C                    -2.331575
     17 O                    -0.168864
     18 C                     0.360180
     19 H                     0.250591
     20 H                     0.231606
     21 H                     0.220891
     22 H                     0.220885
     23 H                     0.231631
     24 H                     0.250410
  ----------------------------------------
  Sum of atomic charges =     0.000000

                    Cartesian Multipole Moments
 -----------------------------------------------------------------
    Charge (ESU x 10^10)
                 0.0000
    Dipole Moment (Debye)
         X      -0.0012      Y       3.4766      Z      -2.2441
       Tot       4.1379
    Quadrupole Moments (Debye-Ang)
        XX     -81.5899     XY       0.0003     YY    -130.7643
        XZ       0.0029     YZ       0.4516     ZZ    -119.4211

 Total job time:  61.04s(wall), 450.61s(cpu)
        *  Thank you very much for using Q-Chem.  Have a nice day.  *
