 Gaussian 16, Revision A.03,
 Gaussian 16:  ES64L-G16RevA.03 25-Dec-2016

 --------------------------------------
 #P UB3LYP/6-311++G(d,p) nosym opt freq
 --------------------------------------

 --------
 Oxidized
 --------
 Symbolic Z-matrix:
 Charge =  0 Multiplicity = 1

 SCF Done:  E(UB3LYP) =  -1608.17349047     A.U. after   16 cycles
 SCF Done:  E(UB3LYP) =  -1608.17349156     A.U. after   10 cycles
 SCF Done:  E(UB3LYP) =  -1608.17349874     A.U. after   12 cycles
 SCF Done:  E(UB3LYP) =  -1608.13155384     A.U. after   17 cycles
 SCF Done:  E(UB3LYP) =  -1608.17405583     A.U. after   15 cycles
 SCF Done:  E(UB3LYP) =  -1608.14433212     A.U. after   17 cycles
 SCF Done:  E(UB3LYP) =  -1608.17471018     A.U. after   15 cycles
 SCF Done:  E(UB3LYP) =  -1608.17484786     A.U. after   13 cycles
 SCF Done:  E(UB3LYP) =  -1608.17478070     A.U. after   14 cycles
 SCF Done:  E(UB3LYP) =  -1608.17495818     A.U. after   13 cycles
 SCF Done:  E(UB3LYP) =  -1608.17495963     A.U. after   11 cycles
 SCF Done:  E(UB3LYP) =  -1608.17495984     A.U. after   10 cycles
 SCF Done:  E(UB3LYP) =  -1608.17495988     A.U. after   10 cycles
 Optimization completed.
    -- Stationary point found.
 Normal termination of Gaussian 16 at Fri Jan 12 21:32:47 2024.

 ----------------------------------------------------------------------
 #P Geom=AllCheck Guess=TCheck SCRF=Check GenChk UB3LYP/6-311++G(d,p) F
 req
 ----------------------------------------------------------------------

 Structure from the checkpoint file:  "122.chk"
 --------
 Oxidized
 --------
 Charge =  0 Multiplicity = 1

                          Input orientation:
 ---------------------------------------------------------------------
 Center     Atomic      Atomic             Coordinates (Angstroms)
 Number     Number       Type             X           Y           Z
 ---------------------------------------------------------------------
      1         17           0       -2.416986    2.851390    1.622097
      2          6           0       -2.379052    1.226812    0.974991
      3          6           0       -3.614396    0.622578    0.745813
      4          6           0       -3.683459   -0.658807    0.208136
      5          6           0       -2.517984   -1.331924   -0.131851
      6          6           0       -1.280698   -0.720376    0.070469
      7          6           0       -0.057191   -1.455952   -0.365057
      8          8           0       -0.116501   -2.618181   -0.727623
      9          6           0        1.227771   -0.698073   -0.411366
     10          6           0        2.312384   -1.288903   -1.059714
     11          6           0        3.509245   -0.594886   -1.173140
     12          6           0        3.622443    0.686700   -0.643490
     13          6           0        2.549709    1.270380    0.029003
     14         17           0        2.797002    2.897298    0.621803
     15          6           0        1.329915    0.584471    0.166657
     16          6           0        0.175419    1.115659    0.965230
     17          8           0        0.341221    1.910022    1.865627
     18          6           0       -1.183456    0.562248    0.649162
     19          1           0       -4.516756    1.166283    0.994691
     20          1           0       -4.650619   -1.120506    0.047447
     21          1           0       -2.539572   -2.324857   -0.562010
     22          1           0        2.190085   -2.282639   -1.470762
     23          1           0        4.355832   -1.040429   -1.682222
     24          1           0        4.543442    1.246493   -0.744492
 ---------------------------------------------------------------------

 SCF Done:  E(UB3LYP) =  -1608.17495988     A.U. after    1 cycles

 Alpha  occ. eigenvalues -- -101.56405-101.56405 -19.13711 -19.13589 -10.29321
 Alpha  occ. eigenvalues --  -10.29016 -10.26913 -10.26913 -10.22940 -10.22939
 Alpha  occ. eigenvalues --  -10.22269 -10.22268 -10.21579 -10.21579 -10.21414
 Alpha  occ. eigenvalues --  -10.21414 -10.20886 -10.20886  -9.47876  -9.47876
 Alpha  occ. eigenvalues --   -7.24364  -7.24364  -7.23373  -7.23373  -7.23273
 Alpha  occ. eigenvalues --   -7.23273  -1.07494  -1.07189  -0.92314  -0.91870
 Alpha  occ. eigenvalues --   -0.87098  -0.86234  -0.82650  -0.78874  -0.77225
 Alpha  occ. eigenvalues --   -0.76648  -0.70129  -0.68090  -0.66233  -0.61997
 Alpha  occ. eigenvalues --   -0.59096  -0.57544  -0.56727  -0.51769  -0.50858
 Alpha  occ. eigenvalues --   -0.50845  -0.50419  -0.46988  -0.46737  -0.46484
 Alpha  occ. eigenvalues --   -0.46148  -0.45817  -0.45046  -0.42686  -0.42253
 Alpha  occ. eigenvalues --   -0.41582  -0.40077  -0.39812  -0.39523  -0.38621
 Alpha  occ. eigenvalues --   -0.35578  -0.35020  -0.33638  -0.32510  -0.30109
 Alpha  occ. eigenvalues --   -0.29471  -0.28821  -0.27323  -0.27311  -0.26963
 Alpha virt. eigenvalues --   -0.12239  -0.08585  -0.05071  -0.04171  -0.01411
 Alpha virt. eigenvalues --   -0.00936   0.00069   0.00863   0.00937   0.01351
 Alpha virt. eigenvalues --    0.01767   0.01818   0.02254   0.03792   0.03867

  Beta  occ. eigenvalues -- -101.56405-101.56405 -19.13711 -19.13589 -10.29321
  Beta  occ. eigenvalues --  -10.29016 -10.26913 -10.26913 -10.22940 -10.22939
  Beta  occ. eigenvalues --  -10.22269 -10.22268 -10.21579 -10.21579 -10.21414
  Beta  occ. eigenvalues --  -10.21414 -10.20886 -10.20886  -9.47876  -9.47876
  Beta  occ. eigenvalues --   -7.24364  -7.24364  -7.23373  -7.23373  -7.23273
  Beta  occ. eigenvalues --   -7.23273  -1.07494  -1.07189  -0.92314  -0.91870
  Beta  occ. eigenvalues --   -0.87098  -0.86234  -0.82650  -0.78874  -0.77225
  Beta  occ. eigenvalues --   -0.76648  -0.70129  -0.68090  -0.66233  -0.61997
  Beta  occ. eigenvalues --   -0.59096  -0.57544  -0.56727  -0.51769  -0.50858
  Beta  occ. eigenvalues --   -0.50845  -0.50419  -0.46988  -0.46737  -0.46484
  Beta  occ. eigenvalues --   -0.46148  -0.45817  -0.45046  -0.42686  -0.42253
  Beta  occ. eigenvalues --   -0.41582  -0.40077  -0.39812  -0.39523  -0.38621
  Beta  occ. eigenvalues --   -0.35578  -0.35020  -0.33638  -0.32510  -0.30109
  Beta  occ. eigenvalues --   -0.29471  -0.28821  -0.27323  -0.27311  -0.26963
  Beta virt. eigenvalues --   -0.12239  -0.08585  -0.05071  -0.04171  -0.01411
  Beta virt. eigenvalues --   -0.00936   0.00069   0.00863   0.00937   0.01351
  Beta virt. eigenvalues --    0.01767   0.01818   0.02254   0.03792   0.03867

 Mulliken charges and spin densities:
               1          2
     1  Cl   0.536458  -0.000000
     2  C    0.465682  -0.000000
     3  C   -0.293694  -0.000000
     4  C   -0.666144   0.000000
     5  C    0.384630  -0.000000
     6  C    0.451443  -0.000000
     7  C   -0.967623   0.000000
     8  O   -0.199866  -0.000000
     9  C    0.451525  -0.000000
    10  C    0.385039  -0.000000
    11  C   -0.666221   0.000000
    12  C   -0.293620  -0.000000
    13  C    0.466029  -0.000000
    14  Cl   0.536460  -0.000000
    15  C    0.328833   0.000000
    16  C   -2.341717   0.000000
    17  O   -0.077085  -0.000000
    18  C    0.329303   0.000000
    19  H    0.204268  -0.000000
    20  H    0.179299  -0.000000
    21  H    0.201718  -0.000000
    22  H    0.201716  -0.000000
    23  H    0.179293   0.000000
    24  H    0.204276  -0.000000
 Sum of Mulliken charges =   0.00000  -0.00000

 Dipole moment (field-independent basis, Debye):
    X=             -0.4220    Y=             -1.4528    Z=             -2.2659  Tot=              2.7245
 Quadrupole moment (field-independent basis, Debye-Ang):
   XX=            -91.8634   YY=           -127.1532   ZZ=           -120.9499
   XY=             -0.6000   XZ=             -5.7539   YZ=             -4.8104

  Exact polarizability: 254.448   9.885 209.701 -26.495  49.173 123.884
 Approx polarizability: 370.847  19.431 382.737 -32.037 101.436 214.983

                      1                      2                      3
                      A                      A                      A
 Frequencies --     43.0064                44.0509                68.7653
 Red. masses --     10.2141                 8.7818                12.4348
 Frc consts  --      0.0111                 0.0100                 0.0346
 IR Inten    --      0.0039                 4.9401                 1.3622

                      4                      5                      6
                      A                      A                      A
 Frequencies --    147.9889               155.8238               187.9860
 Red. masses --      8.2628                15.4301                 4.4344
 Frc consts  --      0.1066                 0.2207                 0.0923
 IR Inten    --      0.3597                 0.9633                 0.0014

                      7                      8                      9
                      A                      A                      A
 Frequencies --    199.1107               210.4656               248.2518
 Red. masses --      5.2549                13.7872                 7.6051
 Frc consts  --      0.1227                 0.3598                 0.2761
 IR Inten    --      0.4042                 0.2190                 0.0068

                     10                     11                     12
                      A                      A                      A
 Frequencies --    307.7426               328.0283               375.4878
 Red. masses --      7.1141                14.1969                 7.0253
 Frc consts  --      0.3970                 0.9000                 0.5836
 IR Inten    --      0.1321                 0.0014                 5.9936

                     13                     14                     15
                      A                      A                      A
 Frequencies --    377.6235               398.7842               402.6249
 Red. masses --      9.7489                10.8756                 6.6708
 Frc consts  --      0.8191                 1.0190                 0.6371
 IR Inten    --      0.6376                18.7435                 0.9138

                     16                     17                     18
                      A                      A                      A
 Frequencies --    441.0098               477.2819               483.7966
 Red. masses --      6.9990                 7.9555                 6.3778
 Frc consts  --      0.8020                 1.0677                 0.8795
 IR Inten    --      6.7073                 0.6956                 4.1410

                     19                     20                     21
                      A                      A                      A
 Frequencies --    498.2652               514.0390               537.5027
 Red. masses --      4.4046                 7.7152                 5.3625
 Frc consts  --      0.6443                 1.2011                 0.9128
 IR Inten    --      0.0635                 2.2428                 0.2483

                     22                     23                     24
                      A                      A                      A
 Frequencies --    619.9757               678.6005               686.0910
 Red. masses --      5.2512                 5.2806                 6.6201
 Frc consts  --      1.1892                 1.4327                 1.8360
 IR Inten    --      4.3835                 5.1827                11.2468

                     25                     26                     27
                      A                      A                      A
 Frequencies --    729.6043               745.3952               752.3172
 Red. masses --      4.6978                 6.3638                 3.1065
 Frc consts  --      1.4734                 2.0832                 1.0359
 IR Inten    --     16.5369                30.2061                54.7177

                     28                     29                     30
                      A                      A                      A
 Frequencies --    768.0190               810.2257               811.8017
 Red. masses --      6.5743                 1.4363                 2.1214
 Frc consts  --      2.2848                 0.5555                 0.8237
 IR Inten    --     13.9568                 0.8908                35.7515

                     31                     32                     33
                      A                      A                      A
 Frequencies --    850.4356               860.4992               922.0066
 Red. masses --      4.2648                 9.1066                 6.7584
 Frc consts  --      1.8173                 3.9729                 3.3850
 IR Inten    --     17.7911                44.3301                12.8384

                     34                     35                     36
                      A                      A                      A
 Frequencies --    946.4035               951.9203               995.1836
 Red. masses --      1.3543                 1.4121                 7.0751
 Frc consts  --      0.7147                 0.7539                 4.1285
 IR Inten    --      0.0648                 0.2782                53.1359

                     37                     38                     39
                      A                      A                      A
 Frequencies --   1010.3923              1011.4112              1086.5046
 Red. masses --      1.3513                 1.3414                 2.7203
 Frc consts  --      0.8128                 0.8085                 1.8920
 IR Inten    --      1.5588                 0.9754                 0.1781

                     40                     41                     42
                      A                      A                      A
 Frequencies --   1101.6753              1148.0094              1152.4507
 Red. masses --      1.8427                 5.2487                 2.5690
 Frc consts  --      1.3177                 4.0756                 2.0103
 IR Inten    --      0.1113                91.7863                29.8442

                     43                     44                     45
                      A                      A                      A
 Frequencies --   1176.7148              1196.9367              1199.0457
 Red. masses --      1.8290                 1.5411                 1.2963
 Frc consts  --      1.4921                 1.3008                 1.0981
 IR Inten    --      0.9704                16.8998                 0.0068

                     46                     47                     48
                      A                      A                      A
 Frequencies --   1239.0001              1255.3842              1312.0726
 Red. masses --      1.9280                 4.0502                 3.2492
 Frc consts  --      1.7438                 3.7608                 3.2956
 IR Inten    --      0.2987               338.5864               209.5761

                     49                     50                     51
                      A                      A                      A
 Frequencies --   1334.0430              1337.6559              1446.5227
 Red. masses --      8.7819                 9.2330                 3.5288
 Frc consts  --      9.2083                 9.7337                 4.3503
 IR Inten    --    120.6231                 0.0499                22.2420

                     52                     53                     54
                      A                      A                      A
 Frequencies --   1456.1800              1475.1483              1475.5072
 Red. masses --      3.2526                 2.3777                 2.4821
 Frc consts  --      4.0636                 3.0485                 3.1838
 IR Inten    --      7.5280                12.8178                 1.6204

                     55                     56                     57
                      A                      A                      A
 Frequencies --   1593.1850              1604.9700              1613.6522
 Red. masses --      6.1666                 6.5831                 6.2590
 Frc consts  --      9.2220                 9.9911                 9.6022
 IR Inten    --      2.2979                 3.3147               130.7171

                     58                     59                     60
                      A                      A                      A
 Frequencies --   1616.4128              1727.4491              1748.1192
 Red. masses --      5.9456                12.4920                12.9748
 Frc consts  --      9.1527                21.9630                23.3610
 IR Inten    --      1.2401               131.2458               206.6756

                     61                     62                     63
                      A                      A                      A
 Frequencies --   3181.1518              3181.2056              3201.8344
 Red. masses --      1.0885                 1.0885                 1.0927
 Frc consts  --      6.4899                 6.4901                 6.6003
 IR Inten    --      5.6349                 3.7300                 1.1526

                     64                     65                     66
                      A                      A                      A
 Frequencies --   3201.9124              3208.4533              3208.8619
 Red. masses --      1.0928                 1.0947                 1.0948
 Frc consts  --      6.6009                 6.6395                 6.6418
 IR Inten    --      0.2644                 8.6101                 0.1709

 - Thermochemistry -
 -------------------
 Temperature   298.150 Kelvin.  Pressure   1.00000 Atm.
 Atom     1 has atomic number 17 and mass  34.96885

 Molecular mass:   275.97448 amu.
 Principal axes and moments of inertia in atomic units:
                           1         2         3
     Eigenvalues --  3475.699255842.935189148.05302
           X            0.98203   0.06612   0.17674
           Y            0.00872   0.91971  -0.39249
           Z           -0.18850   0.38698   0.90262
 This molecule is an asymmetric top.
 Rotational symmetry number  1.
 Warning -- assumption of classical behavior for rotation
           may cause significant error
 Rotational temperatures (Kelvin)      0.02492     0.01482     0.00947
 Rotational constants (GHZ):           0.51925     0.30888     0.19728
 Zero-point vibrational energy     419159.4 (Joules/Mol)
                                  100.18150 (Kcal/Mol)
 Warning -- explicit consideration of  22 degrees of freedom as
           vibrations may cause significant error
 Vibrational temperatures:     61.88    63.38    98.94   212.92   224.20
          (Kelvin)            270.47   286.48   302.81   357.18   442.77
                              471.96   540.24   543.32   573.76   579.29
                              634.51   686.70   696.08   716.89   739.59
                              773.35   892.01   976.35   987.13  1049.74
                             1072.46  1082.42  1105.01  1165.73  1168.00
                             1223.59  1238.07  1326.56  1361.66  1369.60
                             1431.85  1453.73  1455.20  1563.24  1585.07
                             1651.73  1658.12  1693.03  1722.12  1725.16
                             1782.64  1806.22  1887.78  1919.39  1924.59
                             2081.22  2095.12  2122.41  2122.93  2292.24
                             2309.19  2321.69  2325.66  2485.41  2515.15
                             4576.97  4577.05  4606.73  4606.84  4616.25
                             4616.84

 Zero-point correction=                           0.159649 (Hartree/Particle)
 Thermal correction to Energy=                    0.173431
 Thermal correction to Enthalpy=                  0.174376
 Thermal correction to Gibbs Free Energy=         0.117845
 Sum of electronic and zero-point Energies=          -1608.015311
 Sum of electronic and thermal Energies=             -1608.001529
 Sum of electronic and thermal Enthalpies=           -1608.000584
 Sum of electronic and thermal Free Energies=        -1608.057115

                     E (Thermal)             CV                S
                      KCal/Mol        Cal/Mol-Kelvin    Cal/Mol-Kelvin
 Total                  108.830             53.414            118.979
 Electronic               0.000              0.000              0.000
 Translational            0.889              2.981             42.744
 Rotational               0.889              2.981             33.585
 Vibrational            107.052             47.453             42.651
 Vibration     1          0.595              1.980              5.116
 Vibration     2          0.595              1.980              5.068
 Vibration     3          0.598              1.969              4.188
 Vibration     4          0.617              1.905              2.698
 Vibration     5          0.620              1.896              2.600
 Vibration     6          0.633              1.856              2.248
 Vibration     7          0.637              1.841              2.141
 Vibration     8          0.643              1.825              2.040
 Vibration     9          0.662              1.766              1.743
 Vibration    10          0.698              1.659              1.374
 Vibration    11          0.711              1.619              1.270
 Vibration    12          0.746              1.522              1.057
 Vibration    13          0.748              1.518              1.049
 Vibration    14          0.765              1.473              0.967
 Vibration    15          0.768              1.464              0.953
 Vibration    16          0.801              1.381              0.823
 Vibration    17          0.834              1.300              0.717
 Vibration    18          0.840              1.286              0.700
 Vibration    19          0.854              1.254              0.662
 Vibration    20          0.869              1.219              0.624
 Vibration    21          0.893              1.167              0.571
 Vibration    22          0.980              0.990              0.417

 Optimization completed.
    -- Stationary point found.
 Normal termination of Gaussian 16 at Fri Jan 12 22:20:58 2024.
