 Q-Chem 5.4, Q-Chem, Inc., Pleasanton, CA (2021)
 Q-Chem 5.4.0 for Intel X86 EM64T Linux

User input:
--------------------------------------------------------------
$molecule
0 1
C                 -1.6745730000      2.8608340000     -0.5601910000
C                 -2.8738480000      2.1576970000     -0.5879230000
C                 -2.8526680000      0.7683330000     -0.4833410000
C                 -0.4609280000      2.1895540000     -0.3997280000
C                 -0.4352150000      0.7890430000     -0.2285750000
C                 -1.6470460000      0.0914950000     -0.3111780000
C                  0.8057520000      2.9662110000     -0.5198500000
C                  2.1155100000      2.1475070000     -0.6527060000
C                  2.0368700000      0.7315790000     -0.3503940000
C                  0.8673720000      0.0862790000     -0.0610160000
O                  0.8314420000      4.1758490000     -0.5453360000
O                  3.1565840000      2.7203590000     -0.9218640000
H                 -1.6493950000      3.9367100000     -0.6853900000
H                 -3.8127410000      2.6833170000     -0.7171570000
H                 -3.7765050000      0.2041660000     -0.5443750000
H                 -1.6476600000     -0.9890540000     -0.2667800000
H                  2.9905190000      0.2249170000     -0.2865550000
N                  0.8331970000     -1.2573700000      0.2951520000
C                  2.0241310000     -2.0638480000      0.0571290000
C                  0.1501650000     -1.6385610000      1.5390550000
H                  2.3907860000     -1.9012220000     -0.9563660000
H                  1.7526880000     -3.1160450000      0.1634470000
H                  2.8349550000     -1.8473200000      0.7683490000
H                 -0.6601090000     -0.9526790000      1.7690660000
H                  0.8564160000     -1.6225690000      2.3810010000
H                 -0.2554190000     -2.6493710000      1.4475670000
$end

$rem
BASIS  =  6-311++G(d,p)
GUI  =  2
JOB_TYPE  =  SP
METHOD  =  B3LYP
SCF_CONVERGENCE  = 8
SOLVENT_METHOD = sm12
$end

$smx
solvent dimethylformamide
charges CM5
$end

--------------------------------------------------------------

             Standard Nuclear Orientation (Angstroms)
    I     Atom           X                Y                Z
 ----------------------------------------------------------------
    1      C      -1.6745730000     2.8608340000    -0.5601910000
    2      C      -2.8738480000     2.1576970000    -0.5879230000
    3      C      -2.8526680000     0.7683330000    -0.4833410000
    4      C      -0.4609280000     2.1895540000    -0.3997280000
    5      C      -0.4352150000     0.7890430000    -0.2285750000
    6      C      -1.6470460000     0.0914950000    -0.3111780000
    7      C       0.8057520000     2.9662110000    -0.5198500000
    8      C       2.1155100000     2.1475070000    -0.6527060000
    9      C       2.0368700000     0.7315790000    -0.3503940000
   10      C       0.8673720000     0.0862790000    -0.0610160000
   11      O       0.8314420000     4.1758490000    -0.5453360000
   12      O       3.1565840000     2.7203590000    -0.9218640000
   13      H      -1.6493950000     3.9367100000    -0.6853900000
   14      H      -3.8127410000     2.6833170000    -0.7171570000
   15      H      -3.7765050000     0.2041660000    -0.5443750000
   16      H      -1.6476600000    -0.9890540000    -0.2667800000
   17      H       2.9905190000     0.2249170000    -0.2865550000
   18      N       0.8331970000    -1.2573700000     0.2951520000
   19      C       2.0241310000    -2.0638480000     0.0571290000
   20      C       0.1501650000    -1.6385610000     1.5390550000
   21      H       2.3907860000    -1.9012220000    -0.9563660000
   22      H       1.7526880000    -3.1160450000     0.1634470000
   23      H       2.8349550000    -1.8473200000     0.7683490000
   24      H      -0.6601090000    -0.9526790000     1.7690660000
   25      H       0.8564160000    -1.6225690000     2.3810010000
   26      H      -0.2554190000    -2.6493710000     1.4475670000
 ----------------------------------------------------------------

   15    -669.2486434853      9.19e-09  Convergence criterion met
 Total energy in the final basis set =     -669.2768443570

                    Orbital Energies (a.u.)
 --------------------------------------------------------------

 Alpha MOs
 -- Occupied --
-19.1351 -19.1142 -14.3551 -10.2759 -10.2625 -10.2521 -10.2173 -10.2054
-10.2019 -10.1982 -10.1979 -10.1976 -10.1975 -10.1945 -10.1795  -1.0731
 -1.0401  -0.9701  -0.8888  -0.8247  -0.7821  -0.7633  -0.7220  -0.7177
 -0.6612  -0.6393  -0.6177  -0.5831  -0.5432  -0.5272  -0.5175  -0.4837
 -0.4796  -0.4732  -0.4610  -0.4556  -0.4468  -0.4437  -0.4320  -0.4201
 -0.4086  -0.3977  -0.3939  -0.3855  -0.3825  -0.3750  -0.3643  -0.3333
 -0.3039  -0.2791  -0.2681  -0.2511  -0.2330

          Ground-State Mulliken Net Atomic Charges

     Atom                 Charge (a.u.)
  ----------------------------------------
      1 C                    -0.163907
      2 C                     0.194920
      3 C                     0.569770
      4 C                    -0.100190
      5 C                     0.324860
      6 C                     0.450074
      7 C                    -1.286642
      8 C                    -1.662678
      9 C                    -0.267125
     10 C                    -0.286325
     11 O                    -0.311157
     12 O                    -0.404392
     13 H                     0.170625
     14 H                     0.293919
     15 H                     0.344570
     16 H                     0.307496
     17 H                     0.226069
     18 N                     0.326389
     19 C                     0.087597
     20 C                    -0.094980
     21 H                     0.173245
     22 H                     0.282259
     23 H                     0.201948
     24 H                     0.155822
     25 H                     0.187550
     26 H                     0.280282
  ----------------------------------------
  Sum of atomic charges =     0.000000

                    Cartesian Multipole Moments
 -----------------------------------------------------------------
    Charge (ESU x 10^10)
                -0.0000
    Dipole Moment (Debye)
         X      -5.7245      Y      -8.9955      Z       2.4592
       Tot      10.9424
    Quadrupole Moments (Debye-Ang)
        XX     -90.4944     XY     -24.3694     YY    -108.3561
        XZ       7.0981     YZ       2.3296     ZZ     -88.6041

 Total job time:  609.25s(wall), 3894.68s(cpu)
        *  Thank you very much for using Q-Chem.  Have a nice day.  *
