 Gaussian 16, Revision A.03,
 Gaussian 16:  ES64L-G16RevA.03 25-Dec-2016

 --------------------------------------
 #P UB3LYP/6-311++G(d,p) nosym opt freq
 --------------------------------------

 -------
 Reduced
 -------
 Symbolic Z-matrix:
 Charge = -2 Multiplicity = 1

 SCF Done:  E(UB3LYP) =  -939.622885896     A.U. after   43 cycles
 SCF Done:  E(UB3LYP) =  -939.657476693     A.U. after   30 cycles
 SCF Done:  E(UB3LYP) =  -939.671481242     A.U. after   32 cycles
 SCF Done:  E(UB3LYP) =  -939.674652668     A.U. after   28 cycles
 SCF Done:  E(UB3LYP) =  -939.676388358     A.U. after   31 cycles
 SCF Done:  E(UB3LYP) =  -939.677111475     A.U. after   29 cycles
 SCF Done:  E(UB3LYP) =  -939.677719934     A.U. after   29 cycles
 SCF Done:  E(UB3LYP) =  -939.678148714     A.U. after   27 cycles
 SCF Done:  E(UB3LYP) =  -939.678463239     A.U. after   28 cycles
 SCF Done:  E(UB3LYP) =  -939.678817098     A.U. after   28 cycles
 SCF Done:  E(UB3LYP) =  -939.681086095     A.U. after   24 cycles
 SCF Done:  E(UB3LYP) =  -939.681107556     A.U. after   29 cycles
 SCF Done:  E(UB3LYP) =  -939.681040516     A.U. after   33 cycles
 SCF Done:  E(UB3LYP) =  -939.681115976     A.U. after   33 cycles
 SCF Done:  E(UB3LYP) =  -939.681120069     A.U. after   27 cycles
 SCF Done:  E(UB3LYP) =  -939.681120502     A.U. after   26 cycles
 SCF Done:  E(UB3LYP) =  -939.681120893     A.U. after   25 cycles
 SCF Done:  E(UB3LYP) =  -939.681120916     A.U. after   21 cycles
 SCF Done:  E(UB3LYP) =  -939.681120934     A.U. after   22 cycles
 Optimization completed.
    -- Stationary point found.
 Normal termination of Gaussian 16 at Fri Dec 22 07:17:14 2023.

 ----------------------------------------------------------------------
 #P Geom=AllCheck Guess=TCheck SCRF=Check GenChk UB3LYP/6-311++G(d,p) F
 req
 ----------------------------------------------------------------------

 Structure from the checkpoint file:  "212-an.chk"
 -------
 Reduced
 -------
 Charge = -2 Multiplicity = 1

                          Input orientation:
 ---------------------------------------------------------------------
 Center     Atomic      Atomic             Coordinates (Angstroms)
 Number     Number       Type             X           Y           Z
 ---------------------------------------------------------------------
      1          8           0        3.919386   -2.478191   -0.105177
      2          6           0        3.029512   -1.558763   -0.023283
      3          6           0        3.370157   -0.174439    0.208971
      4          6           0        4.730462    0.197379    0.356469
      5          6           0        5.111850    1.504130    0.578258
      6          6           0        4.117248    2.517685    0.662803
      7          6           0        2.786221    2.183809    0.520941
      8          6           0        2.360364    0.849206    0.292802
      9          6           0        0.937637    0.587572    0.154497
     10          8           0        0.099970    1.562209    0.218694
     11          6           0        0.569285   -0.801728   -0.060913
     12          6           0       -0.799955   -1.261659   -0.193239
     13          6           0       -1.083365   -2.598457   -0.408711
     14          6           0       -0.062506   -3.576494   -0.504428
     15          6           0        1.246897   -3.181295   -0.374039
     16          6           0        1.608394   -1.830677   -0.151710
     17          7           0       -1.975973   -0.422036   -0.118560
     18          6           0       -2.289123    0.136344    1.198379
     19          6           0       -3.792972    0.483703    1.278470
     20          6           0       -4.329090    1.004871   -0.075579
     21          6           0       -3.183457    1.591856   -0.906685
     22          6           0       -2.147535    0.508721   -1.246574
     23          1           0        5.460268   -0.603109    0.285324
     24          1           0        6.164212    1.760053    0.687942
     25          1           0        4.406565    3.552348    0.838284
     26          1           0        2.004715    2.934212    0.579071
     27          1           0       -2.129741   -2.872708   -0.505139
     28          1           0       -0.318994   -4.620173   -0.675136
     29          1           0        2.068715   -3.887261   -0.434232
     30          1           0       -1.665991    1.014258    1.415344
     31          1           0       -2.046639   -0.628961    1.941407
     32          1           0       -3.935574    1.246398    2.056142
     33          1           0       -4.372054   -0.395232    1.587266
     34          1           0       -5.130800    1.738838    0.077553
     35          1           0       -4.774196    0.173209   -0.636315
     36          1           0       -3.561932    2.042100   -1.833647
     37          1           0       -2.686620    2.388687   -0.343331
     38          1           0       -1.202486    0.993273   -1.512054
     39          1           0       -2.502856   -0.079678   -2.108662
 ---------------------------------------------------------------------

 SCF Done:  E(UB3LYP) =  -939.681120934     A.U. after    1 cycles

 Alpha  occ. eigenvalues --  -18.79715 -18.79452 -14.07418  -9.97259  -9.96845
 Alpha  occ. eigenvalues --   -9.96783  -9.96760  -9.96651  -9.96377  -9.95793
 Alpha  occ. eigenvalues --   -9.95577  -9.94296  -9.94241  -9.93636  -9.93456
 Alpha  occ. eigenvalues --   -9.93274  -9.93269  -9.92909  -9.92726  -9.91955
 Alpha  occ. eigenvalues --   -9.91916  -9.91861  -0.71885  -0.71426  -0.69638
 Alpha  occ. eigenvalues --   -0.61241  -0.60817  -0.58199  -0.53880  -0.53607
 Alpha  occ. eigenvalues --   -0.50882  -0.50133  -0.49176  -0.43197  -0.41802
 Alpha  occ. eigenvalues --   -0.41568  -0.39268  -0.37561  -0.34907  -0.32485
 Alpha  occ. eigenvalues --   -0.30607  -0.29837  -0.28748  -0.27699  -0.25899
 Alpha  occ. eigenvalues --   -0.23787  -0.22904  -0.22090  -0.21995  -0.21118
 Alpha  occ. eigenvalues --   -0.19921  -0.19242  -0.19098  -0.18505  -0.17246
 Alpha  occ. eigenvalues --   -0.16039  -0.15858  -0.15134  -0.15032  -0.14947
 Alpha  occ. eigenvalues --   -0.13236  -0.12738  -0.12209  -0.11957  -0.11455
 Alpha  occ. eigenvalues --   -0.10321  -0.10175  -0.09611  -0.08397  -0.08200
 Alpha  occ. eigenvalues --   -0.01689  -0.00574  -0.00096   0.00060   0.01513
 Alpha  occ. eigenvalues --    0.02581   0.03239   0.11982
 Alpha virt. eigenvalues --    0.13181   0.15456   0.15632   0.15750   0.16756
 Alpha virt. eigenvalues --    0.16947   0.17329   0.18627   0.18982   0.19279
 Alpha virt. eigenvalues --    0.19684   0.20231   0.20492   0.21020   0.21294

  Beta  occ. eigenvalues --  -18.79715 -18.79452 -14.07418  -9.97259  -9.96845
  Beta  occ. eigenvalues --   -9.96783  -9.96760  -9.96651  -9.96377  -9.95793
  Beta  occ. eigenvalues --   -9.95577  -9.94296  -9.94241  -9.93636  -9.93456
  Beta  occ. eigenvalues --   -9.93274  -9.93269  -9.92909  -9.92726  -9.91955
  Beta  occ. eigenvalues --   -9.91916  -9.91861  -0.71885  -0.71426  -0.69638
  Beta  occ. eigenvalues --   -0.61241  -0.60817  -0.58199  -0.53880  -0.53607
  Beta  occ. eigenvalues --   -0.50882  -0.50133  -0.49176  -0.43197  -0.41802
  Beta  occ. eigenvalues --   -0.41568  -0.39268  -0.37561  -0.34907  -0.32485
  Beta  occ. eigenvalues --   -0.30607  -0.29837  -0.28748  -0.27699  -0.25899
  Beta  occ. eigenvalues --   -0.23787  -0.22904  -0.22090  -0.21995  -0.21118
  Beta  occ. eigenvalues --   -0.19921  -0.19242  -0.19098  -0.18505  -0.17246
  Beta  occ. eigenvalues --   -0.16039  -0.15858  -0.15134  -0.15032  -0.14947
  Beta  occ. eigenvalues --   -0.13236  -0.12738  -0.12209  -0.11957  -0.11455
  Beta  occ. eigenvalues --   -0.10321  -0.10175  -0.09611  -0.08397  -0.08200
  Beta  occ. eigenvalues --   -0.01689  -0.00574  -0.00096   0.00060   0.01513
  Beta  occ. eigenvalues --    0.02581   0.03239   0.11982
  Beta virt. eigenvalues --    0.13181   0.15456   0.15632   0.15750   0.16756
  Beta virt. eigenvalues --    0.16947   0.17329   0.18627   0.18982   0.19279
  Beta virt. eigenvalues --    0.19684   0.20231   0.20492   0.21020   0.21294

 Mulliken charges and spin densities:
               1          2
     1  O   -0.485483  -0.000000
     2  C   -0.559763  -0.000000
     3  C    0.637367   0.000000
     4  C   -0.164400  -0.000000
     5  C   -0.412384  -0.000000
     6  C   -0.434562   0.000000
     7  C    0.013735  -0.000000
     8  C    0.153631   0.000000
     9  C   -0.268329  -0.000000
    10  O   -0.417474  -0.000000
    11  C   -0.087019  -0.000000
    12  C   -1.020719  -0.000000
    13  C    0.048113   0.000000
    14  C   -0.293883   0.000000
    15  C   -0.237312  -0.000000
    16  C    0.491821  -0.000000
    17  N    0.545006   0.000000
    18  C   -0.213104   0.000000
    19  C   -0.096582  -0.000000
    20  C    0.430672   0.000000
    21  C   -0.663256  -0.000000
    22  C    0.051501  -0.000000
    23  H    0.130672   0.000000
    24  H    0.081472  -0.000000
    25  H    0.086387   0.000000
    26  H    0.113590   0.000000
    27  H    0.058616  -0.000000
    28  H    0.096538  -0.000000
    29  H    0.140578   0.000000
    30  H    0.156973   0.000000
    31  H    0.158191  -0.000000
    32  H    0.067995   0.000000
    33  H   -0.019250   0.000000
    34  H   -0.719436   0.000000
    35  H    0.200393  -0.000000
    36  H   -0.114847   0.000000
    37  H    0.255509  -0.000000
    38  H    0.176430  -0.000000
    39  H    0.112609   0.000000
 Sum of Mulliken charges =  -2.00000  -0.00000

 Dipole moment (field-independent basis, Debye):
    X=             -7.9955    Y=              2.0322    Z=             -0.5821  Tot=              8.2702
 Quadrupole moment (field-independent basis, Debye-Ang):
   XX=           -268.4466   YY=           -191.8205   ZZ=           -151.0727
   XY=             28.5610   XZ=             -1.8164   YZ=             -4.2785

  Exact polarizability:2385.312-617.224 781.605  62.670 -49.070 547.656
 Approx polarizability:8319.815********1711.618  36.418  28.438 475.479

                      1                      2                      3
                      A                      A                      A
 Frequencies --     27.2329                33.5242                50.6820
 Red. masses --      4.5686                 3.3277                 5.7229
 Frc consts  --      0.0020                 0.0022                 0.0087
 IR Inten    --      0.6527                 5.2756                 3.6267

                      4                      5                      6
                      A                      A                      A
 Frequencies --     90.2743               123.6432               139.0281
 Red. masses --      3.4891                 4.0210                 2.5764
 Frc consts  --      0.0168                 0.0362                 0.0293
 IR Inten    --      0.5488                 0.0558                 2.8627

                      7                      8                      9
                      A                      A                      A
 Frequencies --    166.1972               186.4046               193.2192
 Red. masses --      5.7913                 4.3405                 3.0318
 Frc consts  --      0.0942                 0.0889                 0.0667
 IR Inten    --      3.6376                 5.0924                10.9369

                     10                     11                     12
                      A                      A                      A
 Frequencies --    221.8675               230.2942               284.9501
 Red. masses --      5.2970                 4.8076                 1.8754
 Frc consts  --      0.1536                 0.1502                 0.0897
 IR Inten    --      4.8646                 0.5441                76.3631

                     13                     14                     15
                      A                      A                      A
 Frequencies --    300.9048               314.5530               334.1274
 Red. masses --      3.6272                 4.6188                 4.1276
 Frc consts  --      0.1935                 0.2693                 0.2715
 IR Inten    --      3.4548                 0.6231                 6.6058

                     16                     17                     18
                      A                      A                      A
 Frequencies --    363.9910               384.3632               402.3785
 Red. masses --      6.0462                10.5523                 7.3159
 Frc consts  --      0.4720                 0.9185                 0.6979
 IR Inten    --     35.9034                21.3214                 0.9352

                     19                     20                     21
                      A                      A                      A
 Frequencies --    427.6075               448.1399               458.5937
 Red. masses --      7.1342                 3.3030                 3.4305
 Frc consts  --      0.7686                 0.3908                 0.4251
 IR Inten    --     49.8614                11.2670               402.6750

                     22                     23                     24
                      A                      A                      A
 Frequencies --    484.7256               500.6152               502.9681
 Red. masses --      5.4891                 4.4757                 4.9325
 Frc consts  --      0.7599                 0.6609                 0.7352
 IR Inten    --    513.4016                59.3690                62.6500

                     25                     26                     27
                      A                      A                      A
 Frequencies --    517.6703               583.5558               606.0734
 Red. masses --      3.7476                 4.5011                 5.6666
 Frc consts  --      0.5917                 0.9031                 1.2264
 IR Inten    --      4.2564                11.9470                 6.9016

                     28                     29                     30
                      A                      A                      A
 Frequencies --    631.4751               648.9871               664.2983
 Red. masses --      3.6928                 4.0182                 3.8216
 Frc consts  --      0.8676                 0.9971                 0.9936
 IR Inten    --     12.4510                15.5701                18.5265

                     31                     32                     33
                      A                      A                      A
 Frequencies --    689.1266               690.1142               725.8212
 Red. masses --      2.1119                 5.5444                 1.6068
 Frc consts  --      0.5909                 1.5558                 0.4987
 IR Inten    --     60.1097                 9.3862                 4.2176

                     34                     35                     36
                      A                      A                      A
 Frequencies --    753.8957               758.0026               766.1990
 Red. masses --      2.1492                 2.4397                 2.7799
 Frc consts  --      0.7197                 0.8259                 0.9615
 IR Inten    --      8.2217                 7.1352                21.9183

                     37                     38                     39
                      A                      A                      A
 Frequencies --    787.3271               801.5271               818.7219
 Red. masses --      1.6435                 1.8238                 4.4623
 Frc consts  --      0.6002                 0.6903                 1.7623
 IR Inten    --     53.4620                 8.1480                 2.6471

                     40                     41                     42
                      A                      A                      A
 Frequencies --    832.6698               844.9805               859.5948
 Red. masses --      3.5311                 3.3837                 1.4992
 Frc consts  --      1.4425                 1.4234                 0.6527
 IR Inten    --      4.4310                34.1237                26.3539

                     43                     44                     45
                      A                      A                      A
 Frequencies --    880.0995               905.8355               920.9851
 Red. masses --      1.5410                 4.2409                 2.3634
 Frc consts  --      0.7033                 2.0502                 1.1811
 IR Inten    --     66.1459                16.6257                14.8797

                     46                     47                     48
                      A                      A                      A
 Frequencies --    936.3163               957.4769               964.8900
 Red. masses --      5.8132                 1.2727                 1.9526
 Frc consts  --      3.0027                 0.6874                 1.0711
 IR Inten    --      0.6774                 0.7804                54.5258

                     49                     50                     51
                      A                      A                      A
 Frequencies --    969.7382               971.6939               994.9307
 Red. masses --      1.3025                 1.3264                 2.2283
 Frc consts  --      0.7217                 0.7379                 1.2996
 IR Inten    --      0.6675                 4.2370               329.7680

                     52                     53                     54
                      A                      A                      A
 Frequencies --   1016.1679              1037.7989              1059.2276
 Red. masses --      2.0069                 2.2136                 2.0750
 Frc consts  --      1.2210                 1.4047                 1.3717
 IR Inten    --    258.5539               102.6987               207.4174

                     55                     56                     57
                      A                      A                      A
 Frequencies --   1071.4227              1082.2704              1097.5563
 Red. masses --      2.2891                 1.7508                 2.0381
 Frc consts  --      1.5482                 1.2083                 1.4465
 IR Inten    --    123.5116                23.5965                14.8403

                     58                     59                     60
                      A                      A                      A
 Frequencies --   1117.0340              1121.3046              1150.0404
 Red. masses --      1.5277                 2.6672                 1.3894
 Frc consts  --      1.1231                 1.9758                 1.0827
 IR Inten    --    131.2802                33.5008                55.6359

                     61                     62                     63
                      A                      A                      A
 Frequencies --   1152.7254              1169.2890              1183.8336
 Red. masses --      1.9060                 2.6486                 1.2362
 Frc consts  --      1.4922                 2.1336                 1.0207
 IR Inten    --     16.8335               583.2043                 1.8054

                     64                     65                     66
                      A                      A                      A
 Frequencies --   1192.7917              1212.6136              1217.9337
 Red. masses --      1.9944                 2.5358                 2.0366
 Frc consts  --      1.6718                 2.1969                 1.7799
 IR Inten    --     23.4452               122.7649                76.7146

                     67                     68                     69
                      A                      A                      A
 Frequencies --   1235.5774              1241.7722              1278.2740
 Red. masses --      2.3551                 1.7295                 1.3711
 Frc consts  --      2.1183                 1.5713                 1.3200
 IR Inten    --     49.0792               142.7975               197.8843

                     70                     71                     72
                      A                      A                      A
 Frequencies --   1287.3182              1296.0786              1314.0412
 Red. masses --      1.2149                 2.5513                 2.0964
 Frc consts  --      1.1862                 2.5251                 2.1328
 IR Inten    --     16.6383               666.0618               168.5328

                     73                     74                     75
                      A                      A                      A
 Frequencies --   1334.1310              1340.0551              1345.2733
 Red. masses --      2.8705                 1.6842                 1.3272
 Frc consts  --      3.0103                 1.7820                 1.4151
 IR Inten    --     31.8296               210.2326                 0.6718

                     76                     77                     78
                      A                      A                      A
 Frequencies --   1348.3183              1362.4740              1368.7474
 Red. masses --      3.8019                 2.1435                 1.6718
 Frc consts  --      4.0723                 2.3444                 1.8454
 IR Inten    --    828.4165               104.6270               137.9463

                     79                     80                     81
                      A                      A                      A
 Frequencies --   1376.2592              1402.4548              1417.4682
 Red. masses --      1.4589                 1.8794                 2.0010
 Frc consts  --      1.6280                 2.1779                 2.3687
 IR Inten    --     70.9054                18.4093                22.4570

                     82                     83                     84
                      A                      A                      A
 Frequencies --   1446.4687              1465.4070              1472.9704
 Red. masses --      4.1416                 2.3566                 1.1211
 Frc consts  --      5.1055                 2.9817                 1.4332
 IR Inten    --   3766.9276               812.1389               192.4674

                     85                     86                     87
                      A                      A                      A
 Frequencies --   1476.5863              1485.3981              1488.1967
 Red. masses --      3.1545                 1.6470                 1.3163
 Frc consts  --      4.0523                 2.1410                 1.7176
 IR Inten    --      4.9589               675.7345               218.2896

                     88                     89                     90
                      A                      A                      A
 Frequencies --   1489.5302              1501.2230              1529.8118
 Red. masses --      1.6904                 1.1936                 1.2710
 Frc consts  --      2.2097                 1.5849                 1.7526
 IR Inten    --    150.9129                56.4942                14.0552

                     91                     92                     93
                      A                      A                      A
 Frequencies --   1533.7188              1560.8934              1585.5700
 Red. masses --      3.2358                 6.5654                 5.4986
 Frc consts  --      4.4845                 9.4245                 8.1447
 IR Inten    --     95.0165              4361.1830               266.5335

                     94                     95                     96
                      A                      A                      A
 Frequencies --   1591.8520              2923.1291              2974.1769
 Red. masses --      5.2656                 1.0732                 1.0618
 Frc consts  --      7.8615                 5.4028                 5.5338
 IR Inten    --      9.3193                66.4296                28.8582

                     97                     98                     99
                      A                      A                      A
 Frequencies --   2980.1999              2986.7323              2996.7490
 Red. masses --      1.0704                 1.0630                 1.0730
 Frc consts  --      5.6014                 5.5871                 5.6773
 IR Inten    --     19.5128               132.1115                16.7688

                    100                    101                    102
                      A                      A                      A
 Frequencies --   3001.4491              3020.1178              3030.7096
 Red. masses --      1.0889                 1.1010                 1.0873
 Frc consts  --      5.7795                 5.9168                 5.8840
 IR Inten    --     73.3635               123.6194                29.4270

                    103                    104                    105
                      A                      A                      A
 Frequencies --   3046.7969              3052.0583              3094.9284
 Red. masses --      1.0942                 1.0978                 1.0828
 Frc consts  --      5.9844                 6.0249                 6.1109
 IR Inten    --     18.6255                76.2628                30.6221

                    106                    107                    108
                      A                      A                      A
 Frequencies --   3106.8474              3118.2782              3146.5855
 Red. masses --      1.0850                 1.0908                 1.0908
 Frc consts  --      6.1704                 6.2492                 6.3634
 IR Inten    --     81.0547               284.1006                43.4454

                    109                    110                    111
                      A                      A                      A
 Frequencies --   3160.4541              3164.9217              3167.0990
 Red. masses --      1.0908                 1.0914                 1.0908
 Frc consts  --      6.4193                 6.4409                 6.4464
 IR Inten    --    112.2758               100.2645               113.5412

 - Thermochemistry -
 -------------------
 Temperature   298.150 Kelvin.  Pressure   1.00000 Atm.
 Atom     1 has atomic number  8 and mass  15.99491

 Molecular mass:   291.12593 amu.
 Principal axes and moments of inertia in atomic units:
                           1         2         3
     Eigenvalues --  3574.262798707.11073**********
           X            0.99895   0.01253  -0.04414
           Y           -0.01855   0.99017  -0.13867
           Z            0.04197   0.13934   0.98935
 This molecule is an asymmetric top.
 Rotational symmetry number  1.
 Warning -- assumption of classical behavior for rotation
           may cause significant error
 Rotational temperatures (Kelvin)      0.02423     0.00995     0.00747
 Rotational constants (GHZ):           0.50493     0.20727     0.15555
 Zero-point vibrational energy     816938.2 (Joules/Mol)
                                  195.25292 (Kcal/Mol)
 Warning -- explicit consideration of  27 degrees of freedom as
           vibrations may cause significant error
 Vibrational temperatures:     39.18    48.23    72.92   129.88   177.89
          (Kelvin)            200.03   239.12   268.19   278.00   319.22
                              331.34   409.98   432.93   452.57   480.73
                              523.70   553.01   578.93   615.23   644.77
                              659.81   697.41   720.27   723.66   744.81
                              839.61   872.00   908.55   933.75   955.78
                              991.50   992.92  1044.29  1084.69  1090.60
                             1102.39  1132.79  1153.22  1177.96  1198.03
                             1215.74  1236.77  1266.27  1303.30  1325.09
                             1347.15  1377.60  1388.26  1395.24  1398.05
                             1431.48  1462.04  1493.16  1523.99  1541.54
                             1557.15  1579.14  1607.16  1613.31  1654.65
                             1658.51  1682.35  1703.27  1716.16  1744.68
                             1752.33  1777.72  1786.63  1839.15  1852.16
                             1864.77  1890.61  1919.52  1928.04  1935.55
                             1939.93  1960.30  1969.32  1980.13  2017.82
                             2039.42  2081.15  2108.39  2119.28  2124.48
                             2137.16  2141.18  2143.10  2159.93  2201.06
                             2206.68  2245.78  2281.28  2290.32  4205.73
                             4279.18  4287.84  4297.24  4311.65  4318.42
                             4345.28  4360.52  4383.66  4391.23  4452.91
                             4470.06  4486.51  4527.23  4547.19  4553.62
                             4556.75

 Zero-point correction=                           0.311155 (Hartree/Particle)
 Thermal correction to Energy=                    0.328558
 Thermal correction to Enthalpy=                  0.329502
 Thermal correction to Gibbs Free Energy=         0.265480
 Sum of electronic and zero-point Energies=           -939.369966
 Sum of electronic and thermal Energies=              -939.352563
 Sum of electronic and thermal Enthalpies=            -939.351619
 Sum of electronic and thermal Free Energies=         -939.415641

                     E (Thermal)             CV                S
                      KCal/Mol        Cal/Mol-Kelvin    Cal/Mol-Kelvin
 Total                  206.173             71.270            134.746
 Electronic               0.000              0.000              0.000
 Translational            0.889              2.981             42.903
 Rotational               0.889              2.981             34.245
 Vibrational            204.396             65.308             57.598
 Vibration     1          0.593              1.984              6.021
 Vibration     2          0.594              1.983              5.609
 Vibration     3          0.595              1.977              4.791
 Vibration     4          0.602              1.956              3.654
 Vibration     5          0.610              1.929              3.043
 Vibration     6          0.615              1.914              2.817
 Vibration     7          0.624              1.884              2.478
 Vibration     8          0.632              1.858              2.263
 Vibration     9          0.635              1.849              2.197
 Vibration    10          0.648              1.808              1.944
 Vibration    11          0.652              1.795              1.877
 Vibration    12          0.683              1.702              1.504
 Vibration    13          0.693              1.672              1.412
 Vibration    14          0.702              1.646              1.338
 Vibration    15          0.716              1.607              1.240
 Vibration    16          0.738              1.546              1.105
 Vibration    17          0.753              1.504              1.022
 Vibration    18          0.768              1.465              0.954
 Vibration    19          0.789              1.410              0.867
 Vibration    20          0.807              1.365              0.801
 Vibration    21          0.817              1.342              0.770
 Vibration    22          0.841              1.284              0.697
 Vibration    23          0.856              1.249              0.657
 Vibration    24          0.858              1.243              0.651
 Vibration    25          0.873              1.211              0.615
 Vibration    26          0.940              1.067              0.479
 Vibration    27          0.965              1.019              0.439

 Optimization completed.
    -- Stationary point found.
 Normal termination of Gaussian 16 at Fri Dec 22 09:56:15 2023.
