 Q-Chem 5.4, Q-Chem, Inc., Pleasanton, CA (2021)
 Q-Chem 5.4.0 for Intel X86 EM64T Linux

User input:
--------------------------------------------------------------
$molecule
-2 1
C                  5.5291330000     -4.8444320000      0.8384700000
C                  6.6711390000     -4.5315510000      0.1147390000
C                  6.6491100000     -3.4906630000     -0.8124110000
C                  4.3626750000     -4.1068500000      0.6317780000
C                  4.3172820000     -3.0852580000     -0.3400830000
C                  5.4853230000     -2.7627620000     -1.0627830000
C                  3.1640700000     -4.4615480000      1.4701050000
C                  2.1565100000     -3.3736540000      1.6754360000
C                  2.0461080000     -2.4430380000      0.6209220000
C                  2.9705410000     -2.4722270000     -0.5664830000
C                  1.2945030000     -3.2677080000      2.7873470000
C                  0.3329300000     -2.2566690000      2.7942900000
C                  0.1987630000     -1.3726080000      1.7247110000
C                  1.0526780000     -1.4630720000      0.6345370000
O                  3.0362660000     -5.5843490000      1.9127830000
O                  2.6024150000     -2.0436700000     -1.6406410000
S                  1.3561470000     -4.3017190000      4.3357830000
O                  0.6092260000     -3.4567160000      5.3124850000
O                  2.7957630000     -4.4327780000      4.6535550000
O                  0.6492200000     -5.5594200000      4.0020080000
S                  5.6786310000     -1.3723880000     -2.2877160000
O                  7.1588360000     -1.1908020000     -2.3320070000
O                  5.1217630000     -1.8843930000     -3.5607930000
O                  4.9643680000     -0.2255060000     -1.6834740000
H                  5.5148150000     -5.6352450000      1.5784910000
H                  7.5919300000     -5.0821150000      0.2842570000
H                  7.5430410000     -3.1993070000     -1.3494820000
H                 -0.2905750000     -2.1694420000      3.6752610000
H                 -0.5624750000     -0.5985880000      1.7582460000
H                  0.9881670000     -0.7825920000     -0.2057060000
$end
$rem
MAX_SCF_CYCLES=200
BASIS  =  6-311++G(d,p)
GUI  =  2
JOB_TYPE  =  SP
METHOD  =  B3LYP
SOLVENT_METHOD = COSMO
$end
$solvent
dielectric 37.219
opticaldielectric 1.43
$end

--------------------------------------------------------------

             Standard Nuclear Orientation (Angstroms)
    I     Atom           X                Y                Z
 ----------------------------------------------------------------
    1      C      -0.7909746762    -2.6929769758     0.1619193617
    2      C      -2.1005047159    -3.0335432482    -0.1463085955
    3      C      -3.0722929291    -2.0411585688    -0.2660606090
    4      C      -0.4568626403    -1.3508105794     0.3472071578
    5      C      -1.4436591149    -0.3450227446     0.2775789225
    6      C      -2.7703780292    -0.6961787677    -0.0497207987
    7      C       0.9845125225    -1.0325290820     0.6411311354
    8      C       1.4439218113     0.3451228573     0.2779926384
    9      C       0.4571385640     1.3509430448     0.3474123080
   10      C      -0.9845021398     1.0327851387     0.6403399970
   11      C       2.7706224545     0.6962138945    -0.0494629798
   12      C       3.0726213885     2.0411436102    -0.2658686241
   13      C       2.1009379762     3.0336192647    -0.1459215768
   14      C       0.7913919409     2.6931115174     0.1622627321
   15      O       1.6984260490    -1.8577323030     1.1724943637
   16      O      -1.6989780792     1.8583271061     1.1704323051
   17      S       4.1896482389    -0.4796696191    -0.3220369377
   18      O       5.1469038067     0.3534351379    -1.1065534058
   19      O       3.6155750114    -1.6017598667    -1.0979255500
   20      O       4.6916216219    -0.8166331348     1.0297920645
   21      S      -4.1898318080     0.4794451444    -0.3218018238
   22      O      -5.1472634909    -0.3537669035    -1.1060366521
   23      O      -4.6912909585     0.8162705963     1.0302571515
   24      O      -3.6162609353     1.6017492527    -1.0977324213
   25      H      -0.0072136908    -3.4358296865     0.2462393148
   26      H      -2.3679263338    -4.0723095450    -0.3170815299
   27      H      -4.0874419539    -2.2826136901    -0.5552285402
   28      H       4.0877374504     2.2825418908    -0.5552527779
   29      H       2.3684300353     4.0723762680    -0.3166457280
   30      H       0.0076529235     3.4359911108     0.2465601868
 ----------------------------------------------------------------

    9   -1935.6200359457      8.22e-06  Convergence criterion met
 Total energy in the final basis set =    -1935.6200359457
    5   -1935.8800594061      7.66e-06  Convergence criterion met
 Total energy in the final basis set =    -1935.8800594061

                    Orbital Energies (a.u.)
 --------------------------------------------------------------

 Alpha MOs
 -- Occupied --
-89.0541 -89.0541 -19.1309 -19.1309 -19.0977 -19.0977 -19.0973 -19.0973
-19.0956 -19.0956 -10.2838 -10.2838 -10.2183 -10.2183 -10.2159 -10.2159
-10.2083 -10.2083 -10.1944 -10.1944 -10.1939 -10.1938 -10.1934 -10.1933
 -8.1125  -8.1125  -6.0752  -6.0752  -6.0751  -6.0751  -6.0745  -6.0745
 -1.1170  -1.1170  -1.0685  -1.0665  -0.9836  -0.9835  -0.9783  -0.9783
 -0.8949  -0.8814  -0.8120  -0.7838  -0.7801  -0.7677  -0.6915  -0.6730
 -0.6430  -0.6424  -0.6215  -0.5780  -0.5618  -0.5590  -0.5440  -0.5107
 -0.4976  -0.4943  -0.4855  -0.4780  -0.4759  -0.4618  -0.4604  -0.4596
 -0.4566  -0.4565  -0.4544  -0.4440  -0.4322  -0.4160  -0.3941  -0.3908
 -0.3896  -0.3873  -0.3790  -0.3710  -0.3433  -0.3430  -0.3404  -0.3404
 -0.3182  -0.3163  -0.3075  -0.3039  -0.3017  -0.2964  -0.2875  -0.2787
 -0.2725  -0.2710  -0.2670  -0.2651  -0.2626  -0.2622

          Ground-State Mulliken Net Atomic Charges

     Atom                 Charge (a.u.)
  ----------------------------------------
      1 C                    -0.341071
      2 C                    -0.430181
      3 C                     0.131870
      4 C                     0.633652
      5 C                     0.884957
      6 C                    -0.747347
      7 C                    -0.948248
      8 C                     0.884357
      9 C                     0.634181
     10 C                    -0.948152
     11 C                    -0.748397
     12 C                     0.132135
     13 C                    -0.430609
     14 C                    -0.341326
     15 O                    -0.238163
     16 O                    -0.237916
     17 S                     0.556540
     18 O                    -0.417880
     19 O                    -0.413180
     20 O                    -0.384752
     21 S                     0.556589
     22 O                    -0.417744
     23 O                    -0.384991
     24 O                    -0.413281
     25 H                     0.215974
     26 H                     0.241550
     27 H                     0.256960
     28 H                     0.257010
     29 H                     0.241490
     30 H                     0.215971
  ----------------------------------------
  Sum of atomic charges =    -2.000000

                    Cartesian Multipole Moments
 -----------------------------------------------------------------
    Charge (ESU x 10^10)
                -9.6064
    Dipole Moment (Debye)
         X       0.0020      Y       0.0008      Z       0.7987
       Tot       0.7987
    Quadrupole Moments (Debye-Ang)
        XX    -371.0365     XY      51.3274     YY    -155.8750
        XZ       0.0035     YZ       0.0063     ZZ    -179.2157

 Total job time:  102.36s(wall), 761.42s(cpu)
        *  Thank you very much for using Q-Chem.  Have a nice day.  *
