 Gaussian 16, Revision A.03,
 Gaussian 16:  ES64L-G16RevA.03 25-Dec-2016

 --------------------------------------
 #P UB3LYP/6-311++G(d,p) nosym opt freq
 --------------------------------------

 --------
 Oxidized
 --------
 Symbolic Z-matrix:
 Charge = -2 Multiplicity = 1

 SCF Done:  E(UB3LYP) =  -1935.61702076     A.U. after   17 cycles
 SCF Done:  E(UB3LYP) =  -1935.61701982     A.U. after   10 cycles
 SCF Done:  E(UB3LYP) =  -1935.61702101     A.U. after   10 cycles
 SCF Done:  E(UB3LYP) =  -1935.61702084     A.U. after    9 cycles
 SCF Done:  E(UB3LYP) =  -1935.61702037     A.U. after   11 cycles
 SCF Done:  E(UB3LYP) =  -1935.61705314     A.U. after   16 cycles
 SCF Done:  E(UB3LYP) =  -1935.61738718     A.U. after   16 cycles
 SCF Done:  E(UB3LYP) =  -1935.61735008     A.U. after   17 cycles
 SCF Done:  E(UB3LYP) =  -1935.61766317     A.U. after   15 cycles
 SCF Done:  E(UB3LYP) =  -1935.61411194     A.U. after   15 cycles
 SCF Done:  E(UB3LYP) =  -1935.61887176     A.U. after   16 cycles
 SCF Done:  E(UB3LYP) =  -1935.61917499     A.U. after   17 cycles
 SCF Done:  E(UB3LYP) =  -1935.61970362     A.U. after   14 cycles
 SCF Done:  E(UB3LYP) =  -1935.61993706     A.U. after   16 cycles
 SCF Done:  E(UB3LYP) =  -1935.62008712     A.U. after   16 cycles
 SCF Done:  E(UB3LYP) =  -1935.62013577     A.U. after   14 cycles
 SCF Done:  E(UB3LYP) =  -1935.62013907     A.U. after   12 cycles
 SCF Done:  E(UB3LYP) =  -1935.62014018     A.U. after   11 cycles
 SCF Done:  E(UB3LYP) =  -1935.62014036     A.U. after   11 cycles
 Optimization completed.
    -- Stationary point found.
 Normal termination of Gaussian 16 at Tue Jan  9 01:08:59 2024.

 ----------------------------------------------------------------------
 #P Geom=AllCheck Guess=TCheck SCRF=Check GenChk UB3LYP/6-311++G(d,p) F
 req
 ----------------------------------------------------------------------

 Structure from the checkpoint file:  "224.chk"
 --------
 Oxidized
 --------
 Charge = -2 Multiplicity = 1

                          Input orientation:
 ---------------------------------------------------------------------
 Center     Atomic      Atomic             Coordinates (Angstroms)
 Number     Number       Type             X           Y           Z
 ---------------------------------------------------------------------
      1          6           0        5.529133   -4.844432    0.838470
      2          6           0        6.671139   -4.531551    0.114739
      3          6           0        6.649110   -3.490663   -0.812411
      4          6           0        4.362675   -4.106850    0.631778
      5          6           0        4.317282   -3.085258   -0.340083
      6          6           0        5.485323   -2.762762   -1.062783
      7          6           0        3.164070   -4.461548    1.470105
      8          6           0        2.156510   -3.373654    1.675436
      9          6           0        2.046108   -2.443038    0.620922
     10          6           0        2.970541   -2.472227   -0.566483
     11          6           0        1.294503   -3.267708    2.787347
     12          6           0        0.332930   -2.256669    2.794290
     13          6           0        0.198763   -1.372608    1.724711
     14          6           0        1.052678   -1.463072    0.634537
     15          8           0        3.036266   -5.584349    1.912783
     16          8           0        2.602415   -2.043670   -1.640641
     17         16           0        1.356147   -4.301719    4.335783
     18          8           0        0.609226   -3.456716    5.312485
     19          8           0        2.795763   -4.432778    4.653555
     20          8           0        0.649220   -5.559420    4.002008
     21         16           0        5.678631   -1.372388   -2.287716
     22          8           0        7.158836   -1.190802   -2.332007
     23          8           0        5.121763   -1.884393   -3.560793
     24          8           0        4.964368   -0.225506   -1.683474
     25          1           0        5.514815   -5.635245    1.578491
     26          1           0        7.591930   -5.082115    0.284257
     27          1           0        7.543041   -3.199307   -1.349482
     28          1           0       -0.290575   -2.169442    3.675261
     29          1           0       -0.562475   -0.598588    1.758246
     30          1           0        0.988167   -0.782592   -0.205706
 ---------------------------------------------------------------------

 SCF Done:  E(UB3LYP) =  -1935.62014036     A.U. after    1 cycles

 Alpha  occ. eigenvalues --  -88.82716 -88.82715 -18.92984 -18.92981 -18.86801
 Alpha  occ. eigenvalues --  -18.86800 -18.86737 -18.86735 -18.86693 -18.86692
 Alpha  occ. eigenvalues --  -10.08303 -10.08301 -10.02023 -10.02022 -10.01807
 Alpha  occ. eigenvalues --  -10.01807 -10.01606 -10.01605 -10.01283 -10.01283
 Alpha  occ. eigenvalues --  -10.00837 -10.00836 -10.00323 -10.00323  -7.88525
 Alpha  occ. eigenvalues --   -7.88524  -5.84784  -5.84783  -5.84772  -5.84771
 Alpha  occ. eigenvalues --   -5.84754  -5.84753  -0.88721  -0.88716  -0.86610
 Alpha  occ. eigenvalues --   -0.86389  -0.75165  -0.75163  -0.74822  -0.74821
 Alpha  occ. eigenvalues --   -0.70226  -0.69039  -0.62152  -0.58978  -0.58663
 Alpha  occ. eigenvalues --   -0.57859  -0.49583  -0.48160  -0.44931  -0.44228
 Alpha  occ. eigenvalues --   -0.41641  -0.37928  -0.36919  -0.35114  -0.34027
 Alpha  occ. eigenvalues --   -0.31007  -0.30276  -0.29602  -0.29167  -0.27233
 Alpha  occ. eigenvalues --   -0.27120  -0.26007  -0.25800  -0.25448  -0.23902
 Alpha  occ. eigenvalues --   -0.22944  -0.22713  -0.22589  -0.22398  -0.21364
 Alpha  occ. eigenvalues --   -0.20766  -0.19964  -0.19695  -0.19598  -0.18710
 Alpha  occ. eigenvalues --   -0.17625  -0.11080  -0.11040  -0.10880  -0.10843
 Alpha  occ. eigenvalues --   -0.10352  -0.10176  -0.09432  -0.09321  -0.08108
 Alpha  occ. eigenvalues --   -0.07986  -0.07452  -0.07451  -0.06472  -0.06151
 Alpha  occ. eigenvalues --   -0.05832  -0.05649  -0.02911  -0.02895
 Alpha virt. eigenvalues --    0.08997   0.11962   0.14344   0.14391   0.15782
 Alpha virt. eigenvalues --    0.15945   0.17727   0.17854   0.19065   0.19976
 Alpha virt. eigenvalues --    0.20921   0.21287   0.21549   0.21722   0.22214

  Beta  occ. eigenvalues --  -88.82716 -88.82715 -18.92984 -18.92981 -18.86801
  Beta  occ. eigenvalues --  -18.86800 -18.86737 -18.86735 -18.86693 -18.86692
  Beta  occ. eigenvalues --  -10.08303 -10.08301 -10.02023 -10.02022 -10.01807
  Beta  occ. eigenvalues --  -10.01807 -10.01606 -10.01605 -10.01283 -10.01283
  Beta  occ. eigenvalues --  -10.00837 -10.00836 -10.00323 -10.00323  -7.88525
  Beta  occ. eigenvalues --   -7.88524  -5.84784  -5.84783  -5.84772  -5.84771
  Beta  occ. eigenvalues --   -5.84754  -5.84753  -0.88721  -0.88716  -0.86610
  Beta  occ. eigenvalues --   -0.86389  -0.75165  -0.75163  -0.74822  -0.74821
  Beta  occ. eigenvalues --   -0.70226  -0.69039  -0.62152  -0.58978  -0.58663
  Beta  occ. eigenvalues --   -0.57859  -0.49583  -0.48160  -0.44931  -0.44228
  Beta  occ. eigenvalues --   -0.41641  -0.37928  -0.36919  -0.35114  -0.34027
  Beta  occ. eigenvalues --   -0.31007  -0.30276  -0.29602  -0.29167  -0.27233
  Beta  occ. eigenvalues --   -0.27120  -0.26007  -0.25800  -0.25448  -0.23902
  Beta  occ. eigenvalues --   -0.22944  -0.22713  -0.22589  -0.22398  -0.21364
  Beta  occ. eigenvalues --   -0.20766  -0.19964  -0.19695  -0.19598  -0.18710
  Beta  occ. eigenvalues --   -0.17625  -0.11080  -0.11040  -0.10880  -0.10843
  Beta  occ. eigenvalues --   -0.10352  -0.10176  -0.09432  -0.09321  -0.08108
  Beta  occ. eigenvalues --   -0.07986  -0.07452  -0.07451  -0.06472  -0.06151
  Beta  occ. eigenvalues --   -0.05832  -0.05649  -0.02911  -0.02895
  Beta virt. eigenvalues --    0.08997   0.11962   0.14344   0.14391   0.15782
  Beta virt. eigenvalues --    0.15945   0.17727   0.17854   0.19065   0.19976
  Beta virt. eigenvalues --    0.20921   0.21287   0.21549   0.21722   0.22214

 Mulliken charges and spin densities:
               1          2
     1  C   -0.348276   0.000000
     2  C   -0.364237   0.000000
     3  C    0.116287  -0.000000
     4  C    0.594721  -0.000000
     5  C    0.882052  -0.000000
     6  C   -0.728193  -0.000000
     7  C   -1.024844   0.000000
     8  C    0.881284  -0.000000
     9  C    0.594954  -0.000000
    10  C   -1.024498   0.000000
    11  C   -0.728750   0.000000
    12  C    0.116050  -0.000000
    13  C   -0.364327  -0.000000
    14  C   -0.347979   0.000000
    15  O   -0.144180  -0.000000
    16  O   -0.143875  -0.000000
    17  S    0.421259   0.000000
    18  O   -0.333435  -0.000000
    19  O   -0.325451  -0.000000
    20  O   -0.281008  -0.000000
    21  S    0.421299   0.000000
    22  O   -0.333297   0.000000
    23  O   -0.281190  -0.000000
    24  O   -0.325551  -0.000000
    25  H    0.170917  -0.000000
    26  H    0.140103  -0.000000
    27  H    0.224587   0.000000
    28  H    0.224610  -0.000000
    29  H    0.140096   0.000000
    30  H    0.170870   0.000000
 Sum of Mulliken charges =  -2.00000  -0.00000

 Dipole moment (field-independent basis, Debye):
    X=            -32.8661    Y=             28.5463    Z=             -8.6623  Tot=             44.3859
 Quadrupole moment (field-independent basis, Debye-Ang):
   XX=           -322.1842   YY=           -285.6163   ZZ=           -303.2965
   XY=             57.0294   XZ=             39.9728   YZ=             82.6483

  Exact polarizability: 265.610 -30.163 219.474 -57.927 -53.127 253.694
 Approx polarizability: 408.270 -60.538 378.224 -51.053 -84.151 391.291

                      1                      2                      3
                      A                      A                      A
 Frequencies --     25.2414                39.6220                41.3828
 Red. masses --     14.3978                 8.4796                10.7651
 Frc consts  --      0.0054                 0.0078                 0.0109
 IR Inten    --      3.2706                 8.9599                 2.9814

                      4                      5                      6
                      A                      A                      A
 Frequencies --     64.2028                70.7602               118.3893
 Red. masses --     13.6030                10.2249                10.5920
 Frc consts  --      0.0330                 0.0302                 0.0875
 IR Inten    --      2.2841                 0.4471                 3.8601

                      7                      8                      9
                      A                      A                      A
 Frequencies --    123.9610               140.6792               147.7272
 Red. masses --     11.5683                 8.0139                 8.4278
 Frc consts  --      0.1047                 0.0934                 0.1084
 IR Inten    --      0.0330                 0.5561                 0.6066

                     10                     11                     12
                      A                      A                      A
 Frequencies --    154.3415               195.6018               220.5574
 Red. masses --      8.6019                 6.9671                 8.5916
 Frc consts  --      0.1207                 0.1571                 0.2462
 IR Inten    --      0.2804                 1.0256                 1.9833

                     13                     14                     15
                      A                      A                      A
 Frequencies --    236.8325               247.0642               279.7677
 Red. masses --     13.7523                10.4465                 9.9175
 Frc consts  --      0.4545                 0.3757                 0.4573
 IR Inten    --      0.1115                 0.0002                 4.7434

                     16                     17                     18
                      A                      A                      A
 Frequencies --    288.4132               300.7848               327.1233
 Red. masses --      6.7660                 8.8638                 6.5909
 Frc consts  --      0.3316                 0.4725                 0.4155
 IR Inten    --      0.3326                 1.9177                 0.0694

                     19                     20                     21
                      A                      A                      A
 Frequencies --    346.3565               396.0616               396.6104
 Red. masses --      7.1842                 8.9737                 8.2747
 Frc consts  --      0.5078                 0.8294                 0.7669
 IR Inten    --      2.1381                 0.0094                18.7650

                     22                     23                     24
                      A                      A                      A
 Frequencies --    411.9185               443.6542               462.9141
 Red. masses --      7.1033                 7.9568                 8.6623
 Frc consts  --      0.7101                 0.9227                 1.0937
 IR Inten    --      7.1740                 0.0334                 3.9576

                     25                     26                     27
                      A                      A                      A
 Frequencies --    489.7123               491.8673               513.3532
 Red. masses --     10.9978                 5.7263                15.3535
 Frc consts  --      1.5540                 0.8162                 2.3839
 IR Inten    --      5.9168                 9.9145                19.0834

                     28                     29                     30
                      A                      A                      A
 Frequencies --    516.7326               526.1302               562.4295
 Red. masses --      8.6061                11.8292                 5.4967
 Frc consts  --      1.3539                 1.9293                 1.0244
 IR Inten    --      5.7207                 0.9941                 8.6402

                     31                     32                     33
                      A                      A                      A
 Frequencies --    565.3906               595.4473               609.5139
 Red. masses --      7.9546                15.6225                17.9528
 Frc consts  --      1.4982                 3.2635                 3.9296
 IR Inten    --     25.3404               373.3161                10.2339

                     34                     35                     36
                      A                      A                      A
 Frequencies --    627.9421               684.5120               694.9399
 Red. masses --      5.9731                 6.1756                 6.1533
 Frc consts  --      1.3877                 1.7049                 1.7509
 IR Inten    --      5.8892                 6.4757                 6.7418

                     37                     38                     39
                      A                      A                      A
 Frequencies --    718.8977               730.5437               770.4730
 Red. masses --      7.7093                 2.8993                 8.2897
 Frc consts  --      2.3475                 0.9117                 2.8994
 IR Inten    --     37.5225                41.1049                 2.5742

                     40                     41                     42
                      A                      A                      A
 Frequencies --    779.9220               787.0767               820.3237
 Red. masses --      8.1445                 1.4467                 5.7325
 Frc consts  --      2.9189                 0.5280                 2.2728
 IR Inten    --      3.6674                 3.8631                 3.4749

                     43                     44                     45
                      A                      A                      A
 Frequencies --    822.2018               850.4249               923.3501
 Red. masses --      1.7187                 5.5600                 6.8801
 Frc consts  --      0.6846                 2.3692                 3.4560
 IR Inten    --     30.1080                 2.6512                 0.9638

                     46                     47                     48
                      A                      A                      A
 Frequencies --    950.9766               951.4063               967.7804
 Red. masses --      1.4406                 1.3774                 7.3908
 Frc consts  --      0.7676                 0.7346                 4.0784
 IR Inten    --      6.8454                 0.3460                60.7033

                     49                     50                     51
                      A                      A                      A
 Frequencies --    975.1769               977.3035               996.2872
 Red. masses --     11.7750                13.2551                 1.3264
 Frc consts  --      6.5975                 7.4592                 0.7757
 IR Inten    --    500.4507                17.0102                 2.0192

                     52                     53                     54
                      A                      A                      A
 Frequencies --    996.3477              1080.0547              1092.2954
 Red. masses --      1.3333                 2.5459                 2.0373
 Frc consts  --      0.7798                 1.7498                 1.4321
 IR Inten    --      5.8089                 1.1468                39.6814

                     55                     56                     57
                      A                      A                      A
 Frequencies --   1138.5729              1139.2935              1147.1802
 Red. masses --      2.7897                 5.3052                14.9423
 Frc consts  --      2.1307                 4.0571                11.5859
 IR Inten    --      8.4489                78.2464               151.6796

                     58                     59                     60
                      A                      A                      A
 Frequencies --   1155.5194              1173.9651              1186.9886
 Red. masses --      7.4867                 1.4419                18.2265
 Frc consts  --      5.8898                 1.1708                15.1303
 IR Inten    --    232.3557                22.2537               206.5450

                     61                     62                     63
                      A                      A                      A
 Frequencies --   1187.3118              1191.4028              1192.9119
 Red. masses --     15.6576                 1.6404                 1.8098
 Frc consts  --     13.0049                 1.3719                 1.5174
 IR Inten    --    398.8772                 1.6331                 0.1656

                     64                     65                     66
                      A                      A                      A
 Frequencies --   1226.3527              1267.9794              1285.0749
 Red. masses --      1.8473                 4.4331                 3.0914
 Frc consts  --      1.6369                 4.1993                 3.0079
 IR Inten    --     23.9108               435.4884                 0.4431

                     67                     68                     69
                      A                      A                      A
 Frequencies --   1326.4855              1336.6106              1433.5042
 Red. masses --      8.2563                 8.1306                 3.4186
 Frc consts  --      8.5594                 8.5582                 4.1390
 IR Inten    --     55.8328                 1.1417                 9.3027

                     70                     71                     72
                      A                      A                      A
 Frequencies --   1444.0261              1463.7247              1470.0116
 Red. masses --      3.5817                 2.2891                 2.3762
 Frc consts  --      4.4003                 2.8896                 3.0254
 IR Inten    --      0.0963                 1.5746                 0.3179

                     73                     74                     75
                      A                      A                      A
 Frequencies --   1588.4426              1600.6941              1609.1246
 Red. masses --      6.2729                 6.6856                 5.9367
 Frc consts  --      9.3253                10.0927                 9.0568
 IR Inten    --      1.9808                 0.1481                61.1054

                     76                     77                     78
                      A                      A                      A
 Frequencies --   1613.1477              1743.6727              1747.5237
 Red. masses --      6.0427                12.9418                12.8301
 Frc consts  --      9.2646                23.1832                23.0848
 IR Inten    --      1.4609                82.0683               259.4955

                     79                     80                     81
                      A                      A                      A
 Frequencies --   3144.1741              3144.2787              3192.5651
 Red. masses --      1.0881                 1.0880                 1.0912
 Frc consts  --      6.3376                 6.3378                 6.5528
 IR Inten    --     78.9710                 1.2815                 8.1169

                     82                     83                     84
                      A                      A                      A
 Frequencies --   3192.6578              3195.5006              3195.5679
 Red. masses --      1.0911                 1.0924                 1.0924
 Frc consts  --      6.5529                 6.5722                 6.5724
 IR Inten    --      0.3636                17.1921                 7.7165

 - Thermochemistry -
 -------------------
 Temperature   298.150 Kelvin.  Pressure   1.00000 Atm.
 Atom     1 has atomic number  6 and mass  12.00000

 Molecular mass:   365.95041 amu.
 Principal axes and moments of inertia in atomic units:
                           1         2         3
     Eigenvalues --  3782.47536********************
           X           -0.58274  -0.66485   0.46732
           Y           -0.27763   0.70332   0.65441
           Z            0.76377  -0.25161   0.59443
 This molecule is an asymmetric top.
 Rotational symmetry number  1.
 Warning -- assumption of classical behavior for rotation
           may cause significant error
 Rotational temperatures (Kelvin)      0.02290     0.00603     0.00514
 Rotational constants (GHZ):           0.47713     0.12569     0.10710
 Zero-point vibrational energy     480199.3 (Joules/Mol)
                                  114.77038 (Kcal/Mol)
 Warning -- explicit consideration of  33 degrees of freedom as
           vibrations may cause significant error
 Vibrational temperatures:     36.32    57.01    59.54    92.37   101.81
          (Kelvin)            170.34   178.35   202.41   212.55   222.06
                              281.43   317.33   340.75   355.47   402.52
                              414.96   432.76   470.66   498.33   569.84
                              570.63   592.66   638.32   666.03   704.59
                              707.69   738.60   743.46   756.98   809.21
                              813.47   856.72   876.95   903.47   984.86
                              999.86  1034.33  1051.09  1108.54  1122.13
                             1132.43  1180.26  1182.97  1223.57  1328.49
                             1368.24  1368.86  1392.42  1403.06  1406.12
                             1433.44  1433.52  1553.96  1571.57  1638.15
                             1639.19  1650.54  1662.53  1689.07  1707.81
                             1708.28  1714.16  1716.33  1764.45  1824.34
                             1848.94  1908.52  1923.08  2062.49  2077.63
                             2105.97  2115.02  2285.41  2303.04  2315.17
                             2320.96  2508.76  2514.30  4523.77  4523.92
                             4593.39  4593.52  4597.61  4597.71

 Zero-point correction=                           0.182898 (Hartree/Particle)
 Thermal correction to Energy=                    0.202332
 Thermal correction to Enthalpy=                  0.203276
 Thermal correction to Gibbs Free Energy=         0.133539
 Sum of electronic and zero-point Energies=          -1935.437242
 Sum of electronic and thermal Energies=             -1935.417808
 Sum of electronic and thermal Enthalpies=           -1935.416864
 Sum of electronic and thermal Free Energies=        -1935.486602

                     E (Thermal)             CV                S
                      KCal/Mol        Cal/Mol-Kelvin    Cal/Mol-Kelvin
 Total                  126.965             73.908            146.775
 Electronic               0.000              0.000              0.000
 Translational            0.889              2.981             43.585
 Rotational               0.889              2.981             35.169
 Vibrational            125.188             67.946             68.021
 Vibration     1          0.593              1.985              6.172
 Vibration     2          0.594              1.981              5.278
 Vibration     3          0.594              1.981              5.192
 Vibration     4          0.597              1.971              4.324
 Vibration     5          0.598              1.968              4.132
 Vibration     6          0.609              1.934              3.126
 Vibration     7          0.610              1.929              3.038
 Vibration     8          0.615              1.913              2.795
 Vibration     9          0.617              1.905              2.701
 Vibration    10          0.620              1.898              2.618
 Vibration    11          0.636              1.846              2.174
 Vibration    12          0.647              1.810              1.955
 Vibration    13          0.656              1.784              1.827
 Vibration    14          0.661              1.768              1.751
 Vibration    15          0.680              1.711              1.535
 Vibration    16          0.685              1.695              1.483
 Vibration    17          0.693              1.672              1.413
 Vibration    18          0.711              1.621              1.274
 Vibration    19          0.724              1.583              1.183
 Vibration    20          0.763              1.479              0.977
 Vibration    21          0.763              1.477              0.975
 Vibration    22          0.776              1.444              0.920
 Vibration    23          0.803              1.375              0.815
 Vibration    24          0.821              1.332              0.758
 Vibration    25          0.846              1.273              0.684
 Vibration    26          0.848              1.268              0.679
 Vibration    27          0.868              1.220              0.626
 Vibration    28          0.872              1.213              0.618
 Vibration    29          0.881              1.192              0.596
 Vibration    30          0.918              1.113              0.519
 Vibration    31          0.921              1.106              0.513
 Vibration    32          0.953              1.041              0.458
 Vibration    33          0.968              1.012              0.434

                           ! Non-Optimized Parameters !
 Normal termination of Gaussian 16 at Tue Jan  9 03:57:56 2024.
