 Q-Chem 5.4, Q-Chem, Inc., Pleasanton, CA (2021)
 Q-Chem 5.4.0 for Intel X86 EM64T Linux

User input:
--------------------------------------------------------------
$molecule
-1 2
O                 -4.7063940000     -0.6730890000      0.9893960000
C                 -3.4632210000     -0.2295320000      0.5691930000
C                 -3.4294200000      0.9787040000     -0.1572840000
C                 -2.2151860000      1.4624880000     -0.5980930000
C                 -1.0055450000      0.7818330000     -0.3419420000
C                  0.2539340000      1.3425560000     -0.8346270000
O                  0.2967300000      2.4168300000     -1.4819330000
C                  1.4626190000      0.5728810000     -0.5249530000
C                  2.7148430000      1.0510140000     -0.9671110000
C                  3.8812330000      0.3614810000     -0.7003640000
C                  3.8304690000     -0.8477200000      0.0289580000
C                  2.6181070000     -1.3358260000      0.4721010000
C                  1.4104600000     -0.6481630000      0.2116900000
C                  0.1517220000     -1.2048120000      0.7020520000
O                  0.1006110000     -2.2835790000      1.3522020000
C                 -1.0524250000     -0.4368310000      0.3926110000
C                 -2.3034530000     -0.9211880000      0.8380340000
H                 -4.5791090000     -1.4989020000      1.4676230000
H                 -4.3577700000      1.5029930000     -0.3549150000
H                 -2.1551760000      2.3881240000     -1.1590560000
H                  2.7221830000      1.9809930000     -1.5242530000
H                  4.8351480000      0.7458990000     -1.0492650000
H                  4.7465140000     -1.3919890000      0.2401270000
H                  2.5513270000     -2.2606830000      1.0335760000
H                 -2.3082050000     -1.8534790000      1.3962310000
$end
$rem
MAX_SCF_CYCLES=200
BASIS  =  6-311++G(d,p)
GUI  =  2
JOB_TYPE  =  SP
METHOD  =  B3LYP
SOLVENT_METHOD = PCM
$end
$pcm
theory = CPCM
$end
$solvent
dielectric 37.219
opticaldielectric 1.43
$end

--------------------------------------------------------------

             Standard Nuclear Orientation (Angstroms)
    I     Atom           X                Y                Z
 ----------------------------------------------------------------
    1      O      -4.7063940000    -0.6730890000     0.9893960000
    2      C      -3.4632210000    -0.2295320000     0.5691930000
    3      C      -3.4294200000     0.9787040000    -0.1572840000
    4      C      -2.2151860000     1.4624880000    -0.5980930000
    5      C      -1.0055450000     0.7818330000    -0.3419420000
    6      C       0.2539340000     1.3425560000    -0.8346270000
    7      O       0.2967300000     2.4168300000    -1.4819330000
    8      C       1.4626190000     0.5728810000    -0.5249530000
    9      C       2.7148430000     1.0510140000    -0.9671110000
   10      C       3.8812330000     0.3614810000    -0.7003640000
   11      C       3.8304690000    -0.8477200000     0.0289580000
   12      C       2.6181070000    -1.3358260000     0.4721010000
   13      C       1.4104600000    -0.6481630000     0.2116900000
   14      C       0.1517220000    -1.2048120000     0.7020520000
   15      O       0.1006110000    -2.2835790000     1.3522020000
   16      C      -1.0524250000    -0.4368310000     0.3926110000
   17      C      -2.3034530000    -0.9211880000     0.8380340000
   18      H      -4.5791090000    -1.4989020000     1.4676230000
   19      H      -4.3577700000     1.5029930000    -0.3549150000
   20      H      -2.1551760000     2.3881240000    -1.1590560000
   21      H       2.7221830000     1.9809930000    -1.5242530000
   22      H       4.8351480000     0.7458990000    -1.0492650000
   23      H       4.7465140000    -1.3919890000     0.2401270000
   24      H       2.5513270000    -2.2606830000     1.0335760000
   25      H      -2.3082050000    -1.8534790000     1.3962310000
 ----------------------------------------------------------------

    8    -764.3527355257      8.06e-06  Convergence criterion met
 Total energy in the final basis set =     -764.3527355257

                    Orbital Energies (a.u.)
 --------------------------------------------------------------

 Alpha MOs
 -- Occupied --
-19.1550 -19.0781 -19.0765 -10.2372 -10.2278 -10.2233 -10.1770 -10.1754
-10.1731 -10.1729 -10.1723 -10.1718 -10.1710 -10.1706 -10.1695 -10.1690
-10.1682  -1.0611  -1.0057  -1.0011  -0.8620  -0.8507  -0.7842  -0.7540
 -0.7498  -0.7375  -0.6675  -0.6481  -0.6158  -0.5986  -0.5579  -0.5523
 -0.5336  -0.5005  -0.4776  -0.4661  -0.4564  -0.4306  -0.4282  -0.4278
 -0.4225  -0.4165  -0.4089  -0.4061  -0.3964  -0.3822  -0.3773  -0.3569
 -0.3543  -0.3465  -0.3346  -0.3255  -0.2666  -0.2583  -0.2560  -0.2491
 -0.2396  -0.2342  -0.1421

 Beta MOs
 -- Occupied --
-19.1548 -19.0734 -19.0710 -10.2369 -10.2260 -10.2210 -10.1762 -10.1755
-10.1726 -10.1724 -10.1714 -10.1714 -10.1704 -10.1701 -10.1695 -10.1688
-10.1678  -1.0607  -0.9972  -0.9912  -0.8593  -0.8496  -0.7803  -0.7514
 -0.7480  -0.7359  -0.6598  -0.6466  -0.6134  -0.5976  -0.5554  -0.5514
 -0.5315  -0.4989  -0.4750  -0.4645  -0.4553  -0.4297  -0.4273  -0.4219
 -0.4191  -0.4120  -0.4056  -0.3987  -0.3950  -0.3763  -0.3595  -0.3533
 -0.3516  -0.3455  -0.3332  -0.3153  -0.2555  -0.2476  -0.2466  -0.2445
 -0.2349  -0.2282

          Ground-State Mulliken Net Atomic Charges

     Atom                 Charge (a.u.)    Spin (a.u.)
  --------------------------------------------------------
      1 O                    -0.307542       0.004306
      2 C                    -0.653439       0.021303
      3 C                    -0.194443       0.030033
      4 C                     0.118774       0.016796
      5 C                     0.182653       0.014176
      6 C                    -0.462085       0.098447
      7 O                    -0.481141       0.178384
      8 C                     0.147089       0.043678
      9 C                     0.085331       0.015952
     10 C                    -0.486718       0.053424
     11 C                    -0.448852       0.025685
     12 C                     0.057586       0.043055
     13 C                     0.211394       0.025719
     14 C                    -0.502027       0.135488
     15 O                    -0.494332       0.210338
     16 C                     0.408713       0.042849
     17 C                     0.199910       0.057852
     18 H                     0.319234      -0.000194
     19 H                     0.224250      -0.002659
     20 H                     0.179171      -0.000999
     21 H                     0.171584      -0.000682
     22 H                     0.195684      -0.004073
     23 H                     0.197400      -0.002457
     24 H                     0.169499      -0.002357
     25 H                     0.162308      -0.004066
  --------------------------------------------------------
  Sum of atomic charges =    -1.000000

                    Cartesian Multipole Moments
 -----------------------------------------------------------------
    Charge (ESU x 10^10)
                -4.8032
    Dipole Moment (Debye)
         X      -0.1819      Y      -1.3555      Z       0.8349
       Tot       1.6023
    Quadrupole Moments (Debye-Ang)
        XX    -103.1729     XY       3.0544     YY    -123.0373
        XZ      -2.0731     YZ      10.2956     ZZ    -111.0515

 Total job time:  222.95s(wall), 334.46s(cpu)
        *  Thank you very much for using Q-Chem.  Have a nice day.  *
