 Gaussian 16, Revision A.03,
 Gaussian 16:  ES64L-G16RevA.03 25-Dec-2016

 ----------------------------------------------------------------------
 #P UB3LYP/6-311++G(d,p) nosym opt freq SCRF=(PCM,Solvent=n,n-DiMethylF
 ormamide)
 ----------------------------------------------------------------------

 --------
 Oxidized
 --------
 Symbolic Z-matrix:
 Charge =  0 Multiplicity = 1

 SCF Done:  E(UB3LYP) =  -914.723758900     A.U. after   15 cycles
 SCF Done:  E(UB3LYP) =  -914.723859639     A.U. after   11 cycles
 SCF Done:  E(UB3LYP) =  -914.723869186     A.U. after   10 cycles
 SCF Done:  E(UB3LYP) =  -914.723870359     A.U. after   10 cycles
 SCF Done:  E(UB3LYP) =  -914.723870786     A.U. after    9 cycles
 Optimization completed.
    -- Stationary point found.
 Normal termination of Gaussian 16 at Sat Feb 10 22:16:40 2024.

 ----------------------------------------------------------------------
 #P Geom=AllCheck Guess=TCheck SCRF=Check GenChk UB3LYP/6-311++G(d,p) F
 req
 ----------------------------------------------------------------------

 Structure from the checkpoint file:  "199.chk"
 --------
 Oxidized
 --------
 Charge =  0 Multiplicity = 1

                          Input orientation:
 ---------------------------------------------------------------------
 Center     Atomic      Atomic             Coordinates (Angstroms)
 Number     Number       Type             X           Y           Z
 ---------------------------------------------------------------------
      1          8           0       -4.330651    0.952217   -1.537274
      2          6           0       -3.178463    0.554132   -0.945074
      3          6           0       -1.914008    0.971342   -1.373122
      4          6           0       -0.765708    0.531606   -0.729330
      5          6           0        0.558422    0.995776   -1.212261
      6          8           0        0.660969    1.759727   -2.165899
      7          6           0        1.766283    0.498215   -0.491722
      8          6           0        3.032612    0.909976   -0.914529
      9          6           0        4.174112    0.459057   -0.258386
     10          6           0        4.059890   -0.409614    0.829292
     11          6           0        2.803949   -0.826012    1.259213
     12          6           0        1.652513   -0.377857    0.605413
     13          6           0        0.321956   -0.832194    1.076401
     14          8           0        0.221444   -1.605342    2.046283
     15          6           0       -0.861356   -0.348776    0.374268
     16          6           0       -2.138445   -0.763526    0.798459
     17          8           0       -2.338849   -1.598667    1.836208
     18          6           0       -3.295619   -0.315572    0.143698
     19          8           0       -4.522131   -0.716533    0.554626
     20          1           0       -4.139093    1.544322   -2.275600
     21          1           0       -1.823266    1.645898   -2.216298
     22          1           0        3.107855    1.583506   -1.758659
     23          1           0        5.152478    0.783204   -0.592957
     24          1           0        4.949014   -0.760321    1.339673
     25          1           0        2.700737   -1.498841    2.100840
     26          1           0       -1.442245   -1.826334    2.193501
     27          1           0       -4.412399   -1.309388    1.313234
 ---------------------------------------------------------------------

 SCF Done:  E(UB3LYP) =  -914.723870786     A.U. after    1 cycles

 Alpha  occ. eigenvalues --  -19.18099 -19.17869 -19.17350 -19.14162 -19.13052
 Alpha  occ. eigenvalues --  -10.29159 -10.28451 -10.27174 -10.27001 -10.26231
 Alpha  occ. eigenvalues --  -10.21278 -10.21271 -10.21155 -10.21001 -10.20170
 Alpha  occ. eigenvalues --  -10.20110 -10.20084 -10.20024 -10.19986  -1.11126
 Alpha  occ. eigenvalues --   -1.09523  -1.07959  -1.06330  -1.06144  -0.89774
 Alpha  occ. eigenvalues --   -0.88294  -0.81565  -0.78312  -0.77659  -0.77372
 Alpha  occ. eigenvalues --   -0.69936  -0.69111  -0.66058  -0.63993  -0.60564
 Alpha  occ. eigenvalues --   -0.59511  -0.58481  -0.55974  -0.53828  -0.53013
 Alpha  occ. eigenvalues --   -0.51472  -0.49954  -0.47980  -0.47911  -0.46436
 Alpha  occ. eigenvalues --   -0.46084  -0.45652  -0.45405  -0.44971  -0.43793
 Alpha  occ. eigenvalues --   -0.43005  -0.41217  -0.40420  -0.40115  -0.39599
 Alpha  occ. eigenvalues --   -0.39158  -0.38404  -0.37983  -0.37134  -0.34210
 Alpha  occ. eigenvalues --   -0.29819  -0.28846  -0.28152  -0.28117  -0.25663
 Alpha  occ. eigenvalues --   -0.24299
 Alpha virt. eigenvalues --   -0.12229  -0.07207  -0.03314  -0.02134  -0.01450
 Alpha virt. eigenvalues --   -0.00253   0.00227   0.01589   0.01670   0.03174
 Alpha virt. eigenvalues --    0.03512   0.03765   0.04194   0.04287   0.04449

  Beta  occ. eigenvalues --  -19.18099 -19.17869 -19.17350 -19.14162 -19.13052
  Beta  occ. eigenvalues --  -10.29159 -10.28451 -10.27174 -10.27001 -10.26231
  Beta  occ. eigenvalues --  -10.21278 -10.21271 -10.21155 -10.21001 -10.20170
  Beta  occ. eigenvalues --  -10.20110 -10.20084 -10.20024 -10.19986  -1.11126
  Beta  occ. eigenvalues --   -1.09523  -1.07959  -1.06330  -1.06144  -0.89774
  Beta  occ. eigenvalues --   -0.88294  -0.81565  -0.78312  -0.77659  -0.77372
  Beta  occ. eigenvalues --   -0.69936  -0.69111  -0.66058  -0.63993  -0.60564
  Beta  occ. eigenvalues --   -0.59511  -0.58481  -0.55974  -0.53828  -0.53013
  Beta  occ. eigenvalues --   -0.51472  -0.49954  -0.47980  -0.47911  -0.46436
  Beta  occ. eigenvalues --   -0.46084  -0.45652  -0.45405  -0.44971  -0.43793
  Beta  occ. eigenvalues --   -0.43005  -0.41217  -0.40420  -0.40115  -0.39599
  Beta  occ. eigenvalues --   -0.39158  -0.38404  -0.37983  -0.37134  -0.34210
  Beta  occ. eigenvalues --   -0.29819  -0.28846  -0.28152  -0.28117  -0.25663
  Beta  occ. eigenvalues --   -0.24299
  Beta virt. eigenvalues --   -0.12229  -0.07207  -0.03314  -0.02134  -0.01450
  Beta virt. eigenvalues --   -0.00253   0.00227   0.01589   0.01670   0.03174
  Beta virt. eigenvalues --    0.03512   0.03765   0.04194   0.04287   0.04449

 Mulliken charges and spin densities:
               1          2
     1  O   -0.265827  -0.000000
     2  C   -0.409159   0.000000
     3  C    0.176167  -0.000000
     4  C    0.844159  -0.000000
     5  C   -0.639190   0.000000
     6  O   -0.283198  -0.000000
     7  C   -0.075626   0.000000
     8  C    0.160089  -0.000000
     9  C   -0.449121   0.000000
    10  C   -0.450000  -0.000000
    11  C    0.173230  -0.000000
    12  C    0.185773   0.000000
    13  C   -0.414899  -0.000000
    14  O   -0.322380  -0.000000
    15  C    0.680443   0.000000
    16  C    0.059441  -0.000000
    17  O   -0.373148  -0.000000
    18  C   -0.284645  -0.000000
    19  O   -0.286785  -0.000000
    20  H    0.318822   0.000000
    21  H    0.173619   0.000000
    22  H    0.184353   0.000000
    23  H    0.209174   0.000000
    24  H    0.208140  -0.000000
    25  H    0.191344   0.000000
    26  H    0.366808   0.000000
    27  H    0.322417   0.000000
 Sum of Mulliken charges =  -0.00000   0.00000

 Dipole moment (field-independent basis, Debye):
    X=              3.0160    Y=              0.2755    Z=             -0.1340  Tot=              3.0316
 Quadrupole moment (field-independent basis, Debye-Ang):
   XX=            -97.7572   YY=           -110.1304   ZZ=           -109.0097
   XY=             -4.3459   XZ=              6.4677   YZ=             -0.6224

  Exact polarizability: 406.395   8.108 190.635  12.209 -94.262 235.320
 Approx polarizability: 445.806  11.712 241.749   9.071-131.446 303.473

                      1                      2                      3
                      A                      A                      A
 Frequencies --     39.1692                79.1409               115.2822
 Red. masses --      8.1685                 6.4932                 5.7383
 Frc consts  --      0.0074                 0.0240                 0.0449
 IR Inten    --      4.7005                 0.5429                 1.4933

                      4                      5                      6
                      A                      A                      A
 Frequencies --    129.6305               158.0496               183.7267
 Red. masses --      8.8518                 8.7614                 6.0544
 Frc consts  --      0.0876                 0.1289                 0.1204
 IR Inten    --      0.7865                 1.2219                 0.3048

                      7                      8                      9
                      A                      A                      A
 Frequencies --    206.3114               283.2379               284.5298
 Red. masses --      6.6364                 6.4364                 5.8341
 Frc consts  --      0.1664                 0.3042                 0.2783
 IR Inten    --      0.1986                 0.5338                 2.1278

                     10                     11                     12
                      A                      A                      A
 Frequencies --    297.4799               325.1225               343.4837
 Red. masses --      6.0053                 7.0768                 2.5275
 Frc consts  --      0.3131                 0.4407                 0.1757
 IR Inten    --     16.3502                13.4268                94.2732

                     13                     14                     15
                      A                      A                      A
 Frequencies --    357.1872               375.5586               387.5901
 Red. masses --      6.8881                 8.8361                 1.2232
 Frc consts  --      0.5178                 0.7343                 0.1083
 IR Inten    --      2.3092                 5.8579                10.6524

                     16                     17                     18
                      A                      A                      A
 Frequencies --    408.2925               413.1447               429.0081
 Red. masses --      1.4151                11.0129                 3.1232
 Frc consts  --      0.1390                 1.1075                 0.3387
 IR Inten    --    242.3016                56.5520                21.7265

                     19                     20                     21
                      A                      A                      A
 Frequencies --    455.8967               474.6566               523.9183
 Red. masses --      4.8641                12.5550                 7.0079
 Frc consts  --      0.5956                 1.6666                 1.1334
 IR Inten    --      1.2916                 0.2984                 9.7335

                     22                     23                     24
                      A                      A                      A
 Frequencies --    543.9184               556.9351               607.2487
 Red. masses --      9.7478                 6.1310                 6.2366
 Frc consts  --      1.6991                 1.1204                 1.3550
 IR Inten    --      3.2061                 0.3264                 2.2432

                     25                     26                     27
                      A                      A                      A
 Frequencies --    626.8494               661.9305               691.2629
 Red. masses --      8.2338                 6.8460                 5.7506
 Frc consts  --      1.9062                 1.7673                 1.6190
 IR Inten    --     31.4360                56.9846                 0.2107

                     28                     29                     30
                      A                      A                      A
 Frequencies --    694.7066               705.2157               729.4064
 Red. masses --      8.2246                 5.0719                 2.1234
 Frc consts  --      2.3387                 1.4861                 0.6656
 IR Inten    --      0.6098                13.4227                76.9582

                     31                     32                     33
                      A                      A                      A
 Frequencies --    745.6997               755.0824               781.7761
 Red. masses --      7.3970                 1.0937                 5.7288
 Frc consts  --      2.4234                 0.3674                 2.0629
 IR Inten    --     15.0242               186.5070                 0.1708

                     34                     35                     36
                      A                      A                      A
 Frequencies --    804.5114               810.0762               886.2096
 Red. masses --      7.1430                 1.9107                 1.4265
 Frc consts  --      2.7239                 0.7388                 0.6601
 IR Inten    --     89.4058                 5.5814                23.8961

                     37                     38                     39
                      A                      A                      A
 Frequencies --    890.5178               914.1633              1001.5825
 Red. masses --      6.6823                 1.3863                 1.3873
 Frc consts  --      3.1222                 0.6826                 0.8200
 IR Inten    --     10.2194                 0.2971                 2.1274

                     40                     41                     42
                      A                      A                      A
 Frequencies --   1005.0382              1023.4340              1046.9156
 Red. masses --      4.5678                 1.3301                 3.4831
 Frc consts  --      2.7184                 0.8208                 2.2493
 IR Inten    --    168.0553                 0.0145                95.6342

                     43                     44                     45
                      A                      A                      A
 Frequencies --   1070.7621              1102.6055              1130.7181
 Red. masses --      2.4398                 3.9206                 2.3835
 Frc consts  --      1.6481                 2.8083                 1.7954
 IR Inten    --     55.6721                42.4902               111.0604

                     46                     47                     48
                      A                      A                      A
 Frequencies --   1179.0833              1197.1950              1208.8431
 Red. masses --      1.1311                 1.3139                 1.9337
 Frc consts  --      0.9265                 1.1095                 1.6649
 IR Inten    --     32.8252               204.2141               353.4422

                     49                     50                     51
                      A                      A                      A
 Frequencies --   1226.8129              1245.0145              1291.3873
 Red. masses --      2.2394                 2.2345                 2.3700
 Frc consts  --      1.9858                 2.0407                 2.3287
 IR Inten    --     68.0869               172.0573               336.1089

                     52                     53                     54
                      A                      A                      A
 Frequencies --   1319.0207              1334.0809              1346.5678
 Red. masses --      4.1659                 2.3582                 2.9743
 Frc consts  --      4.2704                 2.4728                 3.1776
 IR Inten    --   1877.2053               242.2694               263.0523

                     55                     56                     57
                      A                      A                      A
 Frequencies --   1360.5546              1383.2270              1440.6080
 Red. masses --      8.3208                 2.4643                 4.4829
 Frc consts  --      9.0750                 2.7780                 5.4816
 IR Inten    --    399.3939               379.4116                82.5550

                     58                     59                     60
                      A                      A                      A
 Frequencies --   1466.6159              1483.2486              1503.4009
 Red. masses --      4.2208                 2.6934                 2.6864
 Frc consts  --      5.3491                 3.4912                 3.5775
 IR Inten    --    316.9843                27.9339                10.6742

                     61                     62                     63
                      A                      A                      A
 Frequencies --   1524.7714              1601.0893              1607.4406
 Red. masses --      5.5640                 7.0202                 4.2655
 Frc consts  --      7.6216                10.6031                 6.4936
 IR Inten    --    110.0225                 6.9821               557.2299

                     64                     65                     66
                      A                      A                      A
 Frequencies --   1618.2119              1641.2359              1654.4906
 Red. masses --      6.1120                 5.6892                 7.9103
 Frc consts  --      9.4298                 9.0291                12.7576
 IR Inten    --    177.2710                64.1449               462.9146

                     67                     68                     69
                      A                      A                      A
 Frequencies --   1693.2171              3179.5889              3188.3902
 Red. masses --     10.9247                 1.0876                 1.0911
 Frc consts  --     18.4538                 6.4781                 6.5353
 IR Inten    --    251.2915                 3.4144                 7.9438

                     70                     71                     72
                      A                      A                      A
 Frequencies --   3191.9366              3204.2199              3207.4370
 Red. masses --      1.0916                 1.0927                 1.0953
 Frc consts  --      6.5525                 6.6100                 6.6391
 IR Inten    --     12.2977                 3.6167                18.5034

                     73                     74                     75
                      A                      A                      A
 Frequencies --   3262.7308              3747.2597              3803.0702
 Red. masses --      1.0686                 1.0656                 1.0666
 Frc consts  --      6.7022                 8.8164                 9.0893
 IR Inten    --    599.1731               249.8899               218.7007

 - Thermochemistry -
 -------------------
 Temperature   298.150 Kelvin.  Pressure   1.00000 Atm.
 Atom     1 has atomic number  8 and mass  15.99491

 Molecular mass:   256.03717 amu.
 Principal axes and moments of inertia in atomic units:
                           1         2         3
     Eigenvalues --  2259.975196648.757688908.73133
           X            0.99874  -0.01456  -0.04795
           Y            0.02852  -0.62155   0.78285
           Z            0.04120   0.78324   0.62036
 This molecule is an asymmetric top.
 Rotational symmetry number  1.
 Warning -- assumption of classical behavior for rotation
           may cause significant error
 Rotational temperatures (Kelvin)      0.03833     0.01303     0.00972
 Rotational constants (GHZ):           0.79857     0.27144     0.20258
 Zero-point vibrational energy     503434.8 (Joules/Mol)
                                  120.32382 (Kcal/Mol)
 Warning -- explicit consideration of  24 degrees of freedom as
           vibrations may cause significant error
 Vibrational temperatures:     56.36   113.87   165.87   186.51   227.40
          (Kelvin)            264.34   296.84   407.52   409.37   428.01
                              467.78   494.20   513.91   540.35   557.66
                              587.44   594.42   617.25   655.93   682.92
                              753.80   782.58   801.31   873.70   901.90
                              952.37   994.57   999.53  1014.65  1049.45
                             1072.90  1086.40  1124.80  1157.51  1165.52
                             1275.06  1281.26  1315.28  1441.05  1446.03
                             1472.49  1506.28  1540.59  1586.40  1626.85
                             1696.44  1722.50  1739.26  1765.11  1791.30
                             1858.02  1897.78  1919.44  1937.41  1957.53
                             1990.16  2072.71  2110.13  2134.06  2163.06
                             2193.81  2303.61  2312.75  2328.25  2361.37
                             2380.44  2436.16  4574.72  4587.38  4592.48
                             4610.16  4614.79  4694.34  5391.47  5471.77

 Zero-point correction=                           0.191748 (Hartree/Particle)
 Thermal correction to Energy=                    0.206262
 Thermal correction to Enthalpy=                  0.207206
 Thermal correction to Gibbs Free Energy=         0.150655
 Sum of electronic and zero-point Energies=           -914.532123
 Sum of electronic and thermal Energies=              -914.517609
 Sum of electronic and thermal Enthalpies=            -914.516665
 Sum of electronic and thermal Free Energies=         -914.573216

                     E (Thermal)             CV                S
                      KCal/Mol        Cal/Mol-Kelvin    Cal/Mol-Kelvin
 Total                  129.431             58.497            119.023
 Electronic               0.000              0.000              0.000
 Translational            0.889              2.981             42.520
 Rotational               0.889              2.981             33.259
 Vibrational            127.654             52.536             43.243
 Vibration     1          0.594              1.981              5.301
 Vibration     2          0.600              1.963              3.912
 Vibration     3          0.608              1.937              3.178
 Vibration     4          0.612              1.924              2.952
 Vibration     5          0.621              1.894              2.573
 Vibration     6          0.631              1.862              2.290
 Vibration     7          0.641              1.831              2.076
 Vibration     8          0.682              1.705              1.514
 Vibration     9          0.683              1.702              1.506
 Vibration    10          0.691              1.678              1.431
 Vibration    11          0.709              1.625              1.284
 Vibration    12          0.722              1.589              1.196
 Vibration    13          0.732              1.560              1.134
 Vibration    14          0.746              1.522              1.057
 Vibration    15          0.756              1.497              1.009
 Vibration    16          0.773              1.452              0.933
 Vibration    17          0.777              1.442              0.916
 Vibration    18          0.790              1.407              0.862
 Vibration    19          0.814              1.348              0.778
 Vibration    20          0.831              1.306              0.725
 Vibration    21          0.879              1.197              0.601
 Vibration    22          0.899              1.153              0.557
 Vibration    23          0.912              1.125              0.530
 Vibration    24          0.966              1.016              0.437

 Optimization completed.
    -- Stationary point found.
 Normal termination of Gaussian 16 at Sat Feb 10 22:52:25 2024.
