 Q-Chem 5.4, Q-Chem, Inc., Pleasanton, CA (2021)
 Q-Chem 5.4.0 for Intel X86 EM64T Linux

User input:
--------------------------------------------------------------
$molecule
-1 2
C                 -3.2395100000      2.9975900000     -0.1255360000
O                 -1.9209030000      2.5098810000     -0.0864600000
C                 -1.7200600000      1.1550080000     -0.0597640000
C                 -2.7819250000      0.2735250000     -0.0699550000
C                 -2.5630690000     -1.1169850000     -0.0419260000
C                 -1.2819430000     -1.6287360000     -0.0029760000
O                 -1.0569760000     -2.9798200000      0.0242590000
C                 -2.1619560000     -3.8498700000      0.0109400000
C                 -0.1411800000     -0.7556230000      0.0099330000
C                  1.2188030000     -1.3125430000      0.0530960000
O                  1.4774640000     -2.5376730000      0.0821190000
C                  2.3278100000     -0.3467510000      0.0622140000
C                  3.6529730000     -0.8327000000      0.1029540000
C                  4.7295070000      0.0322470000      0.1129520000
C                  4.5102250000      1.4257740000      0.0821580000
C                  3.2202730000      1.9172630000      0.0421350000
C                  2.1085480000      1.0467490000      0.0314070000
C                  0.7567200000      1.6242240000     -0.0115050000
O                  0.6267470000      2.8696400000     -0.0382140000
C                 -0.3664060000      0.6754890000     -0.0203280000
H                 -3.1503090000      4.0848000000     -0.1415260000
H                 -3.8195530000      2.6980600000      0.7588120000
H                 -3.7775700000      2.6683160000     -1.0256830000
H                 -3.8014250000      0.6317600000     -0.0995780000
H                 -3.4231200000     -1.7718320000     -0.0516100000
H                 -2.8120110000     -3.7090520000      0.8860430000
H                 -1.7432700000     -4.8569850000      0.0365700000
H                 -2.7688780000     -3.7365180000     -0.8984500000
H                  3.7864220000     -1.9077720000      0.1258310000
H                  5.7428250000     -0.3580200000      0.1443770000
H                  5.3545960000      2.1092160000      0.0899510000
H                  3.0171480000      2.9813400000      0.0177600000
$end
$rem
MAX_SCF_CYCLES=200
BASIS  =  6-311++G(d,p)
GUI  =  2
JOB_TYPE  =  SP
METHOD  =  B3LYP
SOLVENT_METHOD = COSMO
$end
$solvent
dielectric 37.219
opticaldielectric 1.43
$end

--------------------------------------------------------------

             Standard Nuclear Orientation (Angstroms)
    I     Atom           X                Y                Z
 ----------------------------------------------------------------
    1      C       2.9895082486    -3.4665790644     0.0024583830
    2      O       1.7624880565    -2.7791690396     0.0018848786
    3      C       1.7747228183    -1.4092856800     0.0007339124
    4      C       2.9609597633    -0.7039380190     0.0007725816
    5      C       2.9609312568     0.7039685493    -0.0000805855
    6      C       1.7746751355     1.4092956958    -0.0002987261
    7      O       1.7624842308     2.7791971509    -0.0014196220
    8      C       2.9895834594     3.4664883476    -0.0032885639
    9      C       0.5117691301     0.7245321163     0.0003623096
   10      C      -0.7454121379     1.4868116759     0.0017127953
   11      O      -0.8105432131     2.7375895411     0.0037226116
   12      C      -1.9913207159     0.7055018574     0.0009166243
   13      C      -3.2251242908     1.3922266670     0.0018805950
   14      C      -4.4232669114     0.7054863636     0.0010189803
   15      C      -4.4232302847    -0.7055228302    -0.0008301922
   16      C      -3.2250780676    -1.3922321758    -0.0018197946
   17      C      -1.9912993623    -0.7054778286    -0.0009464774
   18      C      -0.7453800793    -1.4867857111    -0.0018899381
   19      O      -0.8105460421    -2.7375514596    -0.0042991124
   20      C       0.5118077008    -0.7245102390    -0.0001730647
   21      H       2.7323247542    -4.5268123262     0.0028628739
   22      H       3.5906015862    -3.2427576232     0.8951118711
   23      H       3.5909311412    -3.2434630287    -0.8901245493
   24      H       3.9125724174    -1.2167956382     0.0014841379
   25      H       3.9125357677     1.2168572284    -0.0004724025
   26      H       3.5913892196     3.2443355776     0.8892832520
   27      H       2.7325139018     4.5267470708    -0.0047613922
   28      H       3.5902280438     3.2415591027    -0.8959397163
   29      H      -3.1898567734     2.4752160721     0.0032765093
   30      H      -5.3638202778     1.2490561550     0.0017102741
   31      H      -5.3637665092    -1.2491286487    -0.0014692422
   32      H      -3.1897915053    -2.4752218324    -0.0032446965
 ----------------------------------------------------------------

   10    -918.0979955847      7.04e-06  Convergence criterion met
 Total energy in the final basis set =     -918.0979955847
    5    -918.1932016921      5.75e-06  Convergence criterion met
 Total energy in the final basis set =     -918.1932016921

                    Orbital Energies (a.u.)
 --------------------------------------------------------------

 Alpha MOs
 -- Occupied --
-19.1463 -19.1462 -19.0712 -19.0712 -10.2314 -10.2314 -10.2264 -10.2264
-10.2114 -10.2114 -10.1812 -10.1809 -10.1708 -10.1703 -10.1699 -10.1694
-10.1677 -10.1672 -10.1671 -10.1671  -1.0662  -1.0654  -1.0031  -1.0009
 -0.8588  -0.8475  -0.7838  -0.7615  -0.7475  -0.7435  -0.7082  -0.6775
 -0.6675  -0.6301  -0.6186  -0.5779  -0.5586  -0.5389  -0.5333  -0.5087
 -0.4951  -0.4807  -0.4675  -0.4622  -0.4600  -0.4585  -0.4340  -0.4301
 -0.4210  -0.4198  -0.4139  -0.4111  -0.3998  -0.3864  -0.3826  -0.3825
 -0.3751  -0.3498  -0.3445  -0.3393  -0.3361  -0.3352  -0.3288  -0.2938
 -0.2679  -0.2545  -0.2491  -0.2367  -0.2277  -0.2151  -0.1383

 Beta MOs
 -- Occupied --
-19.1462 -19.1462 -19.0658 -19.0658 -10.2314 -10.2313 -10.2249 -10.2248
-10.2114 -10.2114 -10.1804 -10.1800 -10.1704 -10.1699 -10.1693 -10.1688
-10.1671 -10.1671 -10.1668 -10.1663  -1.0659  -1.0651  -0.9938  -0.9914
 -0.8563  -0.8461  -0.7797  -0.7600  -0.7458  -0.7418  -0.7078  -0.6758
 -0.6605  -0.6284  -0.6162  -0.5771  -0.5572  -0.5366  -0.5321  -0.5081
 -0.4942  -0.4779  -0.4663  -0.4617  -0.4586  -0.4569  -0.4336  -0.4287
 -0.4207  -0.4096  -0.4086  -0.4086  -0.3991  -0.3848  -0.3807  -0.3719
 -0.3635  -0.3486  -0.3356  -0.3342  -0.3340  -0.3336  -0.3281  -0.2902
 -0.2486  -0.2477  -0.2437  -0.2319  -0.2229  -0.2069

          Ground-State Mulliken Net Atomic Charges

     Atom                 Charge (a.u.)    Spin (a.u.)
  --------------------------------------------------------
      1 C                    -0.331516      -0.000889
      2 O                    -0.159489       0.001939
      3 C                    -0.199670       0.015260
      4 C                    -0.386778       0.080311
      5 C                    -0.388886       0.080294
      6 C                    -0.198250       0.015298
      7 O                    -0.159216       0.001943
      8 C                    -0.331431      -0.000887
      9 C                     0.372938       0.034544
     10 C                    -0.105160       0.086668
     11 O                    -0.497781       0.201646
     12 C                     0.040070       0.025982
     13 C                     0.123630       0.030128
     14 C                    -0.474971       0.031801
     15 C                    -0.474924       0.031782
     16 C                     0.123148       0.030143
     17 C                     0.040296       0.025988
     18 C                    -0.105625       0.086703
     19 O                    -0.497782       0.201658
     20 C                     0.374334       0.034597
     21 H                     0.202317      -0.000255
     22 H                     0.159506       0.000580
     23 H                     0.159554       0.000586
     24 H                     0.223072      -0.004770
     25 H                     0.224139      -0.004765
     26 H                     0.159380       0.000582
     27 H                     0.202396      -0.000255
     28 H                     0.159241       0.000584
     29 H                     0.172370      -0.001199
     30 H                     0.201322      -0.002399
     31 H                     0.201357      -0.002398
     32 H                     0.172411      -0.001199
  --------------------------------------------------------
  Sum of atomic charges =    -1.000000

                    Cartesian Multipole Moments
 -----------------------------------------------------------------
    Charge (ESU x 10^10)
                -4.8032
    Dipole Moment (Debye)
         X       7.3511      Y       0.0021      Z      -0.0007
       Tot       7.3511
    Quadrupole Moments (Debye-Ang)
        XX     -99.8459     XY      -0.0005     YY    -148.2769
        XZ      -0.0015     YZ      -0.0751     ZZ    -123.1010

 Total job time:  128.84s(wall), 971.38s(cpu)
        *  Thank you very much for using Q-Chem.  Have a nice day.  *
