 Gaussian 16, Revision A.03,
 Gaussian 16:  ES64L-G16RevA.03 25-Dec-2016

 ----------------------------------------------------------------
 #P UB3LYP/6-311++G(d,p) SCRF=(PCM,Solvent=n,n-DiMethylFormamide)
 ----------------------------------------------------------------

 ------------------
 Quinone PCM in DMF
 ------------------
 Symbolic Z-matrix:
 Charge =  0 Multiplicity = 1

                         Standard orientation:
 ---------------------------------------------------------------------
 Center     Atomic      Atomic             Coordinates (Angstroms)
 Number     Number       Type             X           Y           Z
 ---------------------------------------------------------------------
      1          8           0       -2.565792    2.747884   -0.000017
      2          6           0       -2.478464    1.412374   -0.000007
      3          6           0       -3.690427    0.685851    0.000012
      4          6           0       -3.690311   -0.686217    0.000015
      5          6           0       -2.478219   -1.412486   -0.000018
      6          8           0       -2.565258   -2.748032   -0.000021
      7          6           0       -1.257021   -0.714950   -0.000015
      8          6           0        0.000061   -1.449391    0.000019
      9          8           0        0.000238   -2.713535   -0.000015
     10          6           0        1.257056   -0.714890    0.000026
     11          6           0        2.478293   -1.412406    0.000006
     12          8           0        2.565377   -2.747967    0.000024
     13          6           0        3.690350   -0.686025   -0.000037
     14          6           0        3.690372    0.686064   -0.000039
     15          6           0        2.478344    1.412495    0.000017
     16          8           0        2.565532    2.748015    0.000030
     17          6           0        1.257033    0.715052    0.000033
     18          6           0       -0.000041    1.449517    0.000012
     19          8           0       -0.000022    2.713699   -0.000014
     20          6           0       -1.257104    0.715008   -0.000008
     21          1           0       -1.643888    3.100742   -0.000081
     22          1           0       -4.617334    1.246509    0.000055
     23          1           0       -4.617103   -1.247065    0.000049
     24          1           0       -1.643311   -3.100574   -0.000007
     25          1           0        1.643476   -3.100827    0.000119
     26          1           0        4.617182   -1.246796   -0.000095
     27          1           0        4.617227    1.246806   -0.000088
     28          1           0        1.643615    3.100724    0.000052
 ---------------------------------------------------------------------

 SCF Done:  E(UB3LYP) =  -989.995174926     A.U. after   13 cycles

 The electronic state is 1-A.
 Alpha  occ. eigenvalues --  -19.16912 -19.16911 -19.16910 -19.16909 -19.14766
 Alpha  occ. eigenvalues --  -19.14765 -10.29516 -10.29515 -10.27253 -10.27253
 Alpha  occ. eigenvalues --  -10.27251 -10.27251 -10.21654 -10.21652 -10.21611
 Alpha  occ. eigenvalues --  -10.21610 -10.20807 -10.20807 -10.20743 -10.20743
 Alpha  occ. eigenvalues --   -1.10276  -1.10097  -1.09125  -1.09006  -1.06085
 Alpha  occ. eigenvalues --   -1.05983  -0.90058  -0.88125  -0.82820  -0.78838
 Alpha  occ. eigenvalues --   -0.78170  -0.76578  -0.71276  -0.68824  -0.67991
 Alpha  occ. eigenvalues --   -0.64425  -0.63157  -0.59273  -0.56887  -0.56319
 Alpha  occ. eigenvalues --   -0.55906  -0.55292  -0.54972  -0.50725  -0.49519
 Alpha  occ. eigenvalues --   -0.48207  -0.47588  -0.47366  -0.46966  -0.45118
 Alpha  occ. eigenvalues --   -0.44721  -0.44616  -0.44263  -0.44023  -0.43699
 Alpha  occ. eigenvalues --   -0.42400  -0.41356  -0.40197  -0.40034  -0.39898
 Alpha  occ. eigenvalues --   -0.38520  -0.38369  -0.34375  -0.33528  -0.31034
 Alpha  occ. eigenvalues --   -0.30207  -0.29167  -0.28817  -0.25040  -0.23041
 Alpha virt. eigenvalues --   -0.13088  -0.07092  -0.04887  -0.00830  -0.00586
 Alpha virt. eigenvalues --    0.00398   0.00445   0.01269   0.02197   0.02533
 Alpha virt. eigenvalues --    0.03410   0.03459   0.03538   0.04129   0.04502

  Beta  occ. eigenvalues --  -19.16912 -19.16911 -19.16910 -19.16909 -19.14766
  Beta  occ. eigenvalues --  -19.14765 -10.29516 -10.29515 -10.27253 -10.27253
  Beta  occ. eigenvalues --  -10.27251 -10.27251 -10.21654 -10.21652 -10.21611
  Beta  occ. eigenvalues --  -10.21610 -10.20807 -10.20807 -10.20743 -10.20743
  Beta  occ. eigenvalues --   -1.10276  -1.10097  -1.09125  -1.09006  -1.06085
  Beta  occ. eigenvalues --   -1.05983  -0.90058  -0.88125  -0.82820  -0.78838
  Beta  occ. eigenvalues --   -0.78170  -0.76578  -0.71276  -0.68824  -0.67991
  Beta  occ. eigenvalues --   -0.64425  -0.63157  -0.59273  -0.56887  -0.56319
  Beta  occ. eigenvalues --   -0.55906  -0.55292  -0.54972  -0.50725  -0.49519
  Beta  occ. eigenvalues --   -0.48207  -0.47588  -0.47366  -0.46966  -0.45118
  Beta  occ. eigenvalues --   -0.44721  -0.44616  -0.44263  -0.44023  -0.43699
  Beta  occ. eigenvalues --   -0.42400  -0.41356  -0.40197  -0.40034  -0.39898
  Beta  occ. eigenvalues --   -0.38520  -0.38369  -0.34375  -0.33528  -0.31034
  Beta  occ. eigenvalues --   -0.30207  -0.29167  -0.28817  -0.25040  -0.23041
  Beta virt. eigenvalues --   -0.13088  -0.07092  -0.04887  -0.00830  -0.00586
  Beta virt. eigenvalues --    0.00398   0.00445   0.01269   0.02197   0.02533
  Beta virt. eigenvalues --    0.03410   0.03459   0.03538   0.04129   0.04502

 Mulliken charges and spin densities:
               1          2
     1  O   -0.323303  -0.000000
     2  C   -0.301284  -0.000000
     3  C   -0.076437   0.000000
     4  C   -0.076559  -0.000000
     5  C   -0.300931   0.000000
     6  O   -0.323420  -0.000000
     7  C    0.489741  -0.000000
     8  C   -0.365666   0.000000
     9  O   -0.418605  -0.000000
    10  C    0.489477  -0.000000
    11  C   -0.300723   0.000000
    12  O   -0.323504   0.000000
    13  C   -0.076523   0.000000
    14  C   -0.076504  -0.000000
    15  C   -0.301119   0.000000
    16  O   -0.323347   0.000000
    17  C    0.489614   0.000000
    18  C   -0.365631   0.000000
    19  O   -0.418569  -0.000000
    20  C    0.489740  -0.000000
    21  H    0.371082   0.000000
    22  H    0.232252  -0.000000
    23  H    0.232247  -0.000000
    24  H    0.371164   0.000000
    25  H    0.371195  -0.000000
    26  H    0.232246   0.000000
    27  H    0.232251  -0.000000
    28  H    0.371116  -0.000000
 Sum of Mulliken charges =  -0.00000   0.00000

 Dipole moment (field-independent basis, Debye):
    X=             -0.0008    Y=              0.0004    Z=              0.0002  Tot=              0.0009
 Quadrupole moment (field-independent basis, Debye-Ang):
   XX=           -100.9662   YY=           -131.1076   ZZ=           -115.3611
   XY=              0.0005   XZ=             -0.0006   YZ=             -0.0009

 Normal termination of Gaussian 16 at Tue Jan 16 05:12:39 2024.
