 Q-Chem 5.4, Q-Chem, Inc., Pleasanton, CA (2021)
 Q-Chem 5.4.0 for Intel X86 EM64T Linux

User input:
--------------------------------------------------------------
$molecule
0 1
O                 -2.7338800000     -2.5401090000      0.5391060000
C                 -2.5589750000     -1.2207930000      0.3975860000
C                 -3.7169080000     -0.4109910000      0.4075950000
C                 -3.6263620000      0.9509920000      0.2683990000
C                 -2.3725490000      1.5833040000      0.1110210000
O                 -2.3711230000      2.9154060000     -0.0184430000
C                 -1.2035190000      0.8015970000      0.0974120000
C                  0.0955900000      1.4387250000     -0.0639690000
O                  0.1790860000      2.6935750000     -0.1921840000
C                  1.2977990000      0.6177080000     -0.0763050000
C                  2.5588150000      1.2208070000     -0.2314100000
O                  2.7334800000      2.5401910000     -0.3729260000
C                  3.7168530000      0.4111410000     -0.2414160000
C                  3.6264430000     -0.9508730000     -0.1022280000
C                  2.3726810000     -1.5833520000      0.0551380000
O                  2.3714040000     -2.9154400000      0.1845800000
C                  1.2035310000     -0.8017320000      0.0687460000
C                 -0.0955730000     -1.4388850000      0.2301160000
O                 -0.1788720000     -2.6937810000      0.3583810000
C                 -1.2978480000     -0.6178530000      0.2424690000
H                 -1.8399040000     -2.9577780000      0.5112750000
H                 -4.6760690000     -0.8997610000      0.5284610000
H                 -4.5114910000      1.5754840000      0.2754980000
H                 -1.4306180000      3.1979450000     -0.1179110000
H                  1.8395040000      2.9578580000     -0.3451270000
H                  4.6759470000      0.9000300000     -0.3622740000
H                  4.5116430000     -1.5752620000     -0.1093280000
H                  1.4309150000     -3.1981510000      0.2840270000
$end
$rem
MAX_SCF_CYCLES=200
BASIS  =  6-311++G(d,p)
GUI  =  2
JOB_TYPE  =  SP
METHOD  =  B3LYP
SOLVENT_METHOD = PCM
$end
$pcm
theory = CPCM
$end
$solvent
dielectric 37.219
opticaldielectric 1.43
$end

--------------------------------------------------------------

             Standard Nuclear Orientation (Angstroms)
    I     Atom           X                Y                Z
 ----------------------------------------------------------------
    1      O      -2.7338800000    -2.5401090000     0.5391060000
    2      C      -2.5589750000    -1.2207930000     0.3975860000
    3      C      -3.7169080000    -0.4109910000     0.4075950000
    4      C      -3.6263620000     0.9509920000     0.2683990000
    5      C      -2.3725490000     1.5833040000     0.1110210000
    6      O      -2.3711230000     2.9154060000    -0.0184430000
    7      C      -1.2035190000     0.8015970000     0.0974120000
    8      C       0.0955900000     1.4387250000    -0.0639690000
    9      O       0.1790860000     2.6935750000    -0.1921840000
   10      C       1.2977990000     0.6177080000    -0.0763050000
   11      C       2.5588150000     1.2208070000    -0.2314100000
   12      O       2.7334800000     2.5401910000    -0.3729260000
   13      C       3.7168530000     0.4111410000    -0.2414160000
   14      C       3.6264430000    -0.9508730000    -0.1022280000
   15      C       2.3726810000    -1.5833520000     0.0551380000
   16      O       2.3714040000    -2.9154400000     0.1845800000
   17      C       1.2035310000    -0.8017320000     0.0687460000
   18      C      -0.0955730000    -1.4388850000     0.2301160000
   19      O      -0.1788720000    -2.6937810000     0.3583810000
   20      C      -1.2978480000    -0.6178530000     0.2424690000
   21      H      -1.8399040000    -2.9577780000     0.5112750000
   22      H      -4.6760690000    -0.8997610000     0.5284610000
   23      H      -4.5114910000     1.5754840000     0.2754980000
   24      H      -1.4306180000     3.1979450000    -0.1179110000
   25      H       1.8395040000     2.9578580000    -0.3451270000
   26      H       4.6759470000     0.9000300000    -0.3622740000
   27      H       4.5116430000    -1.5752620000    -0.1093280000
   28      H       1.4309150000    -3.1981510000     0.2840270000
 ----------------------------------------------------------------

    9    -990.0000624289      3.56e-06  Convergence criterion met
 Total energy in the final basis set =     -990.0000624289

                    Orbital Energies (a.u.)
 --------------------------------------------------------------

 Alpha MOs
 -- Occupied --
-19.1671 -19.1671 -19.1671 -19.1671 -19.1452 -19.1452 -10.2928 -10.2928
-10.2699 -10.2699 -10.2699 -10.2699 -10.2141 -10.2140 -10.2136 -10.2136
-10.2046 -10.2046 -10.2039 -10.2039  -1.1005  -1.0987  -1.0891  -1.0879
 -1.0585  -1.0575  -0.8980  -0.8785  -0.8253  -0.7855  -0.7791  -0.7632
 -0.7100  -0.6855  -0.6770  -0.6415  -0.6290  -0.5901  -0.5659  -0.5602
 -0.5562  -0.5506  -0.5473  -0.5042  -0.4923  -0.4797  -0.4735  -0.4709
 -0.4671  -0.4490  -0.4450  -0.4425  -0.4392  -0.4385  -0.4343  -0.4221
 -0.4114  -0.3999  -0.3986  -0.3955  -0.3825  -0.3819  -0.3416  -0.3332
 -0.3079  -0.2994  -0.2892  -0.2854  -0.2482  -0.2282

          Ground-State Mulliken Net Atomic Charges

     Atom                 Charge (a.u.)
  ----------------------------------------
      1 O                    -0.337059
      2 C                    -0.290791
      3 C                    -0.102718
      4 C                    -0.102023
      5 C                    -0.289886
      6 O                    -0.337102
      7 C                     0.491664
      8 C                    -0.359233
      9 O                    -0.426888
     10 C                     0.491845
     11 C                    -0.289951
     12 O                    -0.337271
     13 C                    -0.102857
     14 C                    -0.102293
     15 C                    -0.290001
     16 O                    -0.337026
     17 C                     0.491646
     18 C                    -0.359180
     19 O                    -0.426842
     20 C                     0.491885
     21 H                     0.382273
     22 H                     0.248570
     23 H                     0.248673
     24 H                     0.382492
     25 H                     0.382387
     26 H                     0.248575
     27 H                     0.248668
     28 H                     0.382442
  ----------------------------------------
  Sum of atomic charges =     0.000000

                    Cartesian Multipole Moments
 -----------------------------------------------------------------
    Charge (ESU x 10^10)
                 0.0000
    Dipole Moment (Debye)
         X      -0.0009      Y      -0.0003      Z      -0.0001
       Tot       0.0010
    Quadrupole Moments (Debye-Ang)
        XX    -100.4472     XY      -2.1539     YY    -131.0837
        XZ      -0.9291     YZ       1.6827     ZZ    -115.5434

 Total job time:  67.73s(wall), 455.07s(cpu)
        *  Thank you very much for using Q-Chem.  Have a nice day.  *
