 Q-Chem 5.4, Q-Chem, Inc., Pleasanton, CA (2021)
 Q-Chem 5.4.0 for Intel X86 EM64T Linux

User input:
--------------------------------------------------------------
$molecule
0 1
C                 -0.1679170000      3.8544210000     -0.0524950000
C                 -1.4077170000      3.2394400000     -0.1969000000
C                 -1.4803580000      1.8828700000     -0.5186250000
C                  0.9997820000      3.1087690000     -0.2311640000
C                  0.9299720000      1.7438080000     -0.5546550000
C                 -0.3166320000      1.1368920000     -0.6965800000
C                  2.3209710000      3.7453470000     -0.0814650000
C                  3.5358790000      2.9058590000     -0.2891490000
C                  3.4941460000      1.5849190000     -0.5919410000
C                  2.1785520000      0.9298490000     -0.7486680000
O                  2.4853680000      4.9263610000      0.2035880000
O                  2.0976860000     -0.2581240000     -1.0286130000
H                 -0.0858780000      4.9051940000      0.1971460000
H                 -2.3161830000      3.8143560000     -0.0595720000
H                 -2.4472760000      1.4055740000     -0.6308100000
H                 -0.3550330000      0.0838070000     -0.9460460000
O                  4.6912230000      3.5745290000     -0.1415120000
C                  4.7358450000      0.7663280000     -0.8075090000
C                  5.1660490000      0.7118270000     -2.2893460000
C                  6.4246210000     -0.1349950000     -2.5046220000
C                  6.8695620000     -0.2000610000     -3.9698430000
C                  8.1277030000     -1.0472820000     -4.1924000000
C                  8.5651400000     -1.1074920000     -5.6588340000
H                  4.4453760000      4.4912050000      0.0868390000
H                  4.5449290000     -0.2510940000     -0.4572100000
H                  5.5495940000      1.1857440000     -0.2104210000
H                  5.3432530000      1.7315760000     -2.6495230000
H                  4.3428530000      0.3025950000     -2.8844360000
H                  6.2422650000     -1.1522430000     -2.1355200000
H                  7.2428010000      0.2699630000     -1.8951040000
H                  7.0503890000      0.8177230000     -4.3396110000
H                  6.0506620000     -0.6037510000     -4.5792890000
H                  7.9470750000     -2.0641770000     -3.8232600000
H                  8.9461720000     -0.6441560000     -3.5835390000
H                  7.7803500000     -1.5390030000     -6.2882500000
H                  9.4635770000     -1.7184340000     -5.7835310000
H                  8.7867960000     -0.1081960000     -6.0469320000
$end
$rem
MAX_SCF_CYCLES=200
BASIS  =  6-311++G(d,p)
GUI  =  2
JOB_TYPE  =  SP
METHOD  =  B3LYP
SCF_ALGORITHM = RCA_DIIS
THRESH = 14
SOLVENT_METHOD = PCM
$end
$pcm
theory = CPCM
$end
$solvent
dielectric 37.219
opticaldielectric 1.43
$end

--------------------------------------------------------------

             Standard Nuclear Orientation (Angstroms)
    I     Atom           X                Y                Z
 ----------------------------------------------------------------
    1      C      -0.1679170000     3.8544210000    -0.0524950000
    2      C      -1.4077170000     3.2394400000    -0.1969000000
    3      C      -1.4803580000     1.8828700000    -0.5186250000
    4      C       0.9997820000     3.1087690000    -0.2311640000
    5      C       0.9299720000     1.7438080000    -0.5546550000
    6      C      -0.3166320000     1.1368920000    -0.6965800000
    7      C       2.3209710000     3.7453470000    -0.0814650000
    8      C       3.5358790000     2.9058590000    -0.2891490000
    9      C       3.4941460000     1.5849190000    -0.5919410000
   10      C       2.1785520000     0.9298490000    -0.7486680000
   11      O       2.4853680000     4.9263610000     0.2035880000
   12      O       2.0976860000    -0.2581240000    -1.0286130000
   13      H      -0.0858780000     4.9051940000     0.1971460000
   14      H      -2.3161830000     3.8143560000    -0.0595720000
   15      H      -2.4472760000     1.4055740000    -0.6308100000
   16      H      -0.3550330000     0.0838070000    -0.9460460000
   17      O       4.6912230000     3.5745290000    -0.1415120000
   18      C       4.7358450000     0.7663280000    -0.8075090000
   19      C       5.1660490000     0.7118270000    -2.2893460000
   20      C       6.4246210000    -0.1349950000    -2.5046220000
   21      C       6.8695620000    -0.2000610000    -3.9698430000
   22      C       8.1277030000    -1.0472820000    -4.1924000000
   23      C       8.5651400000    -1.1074920000    -5.6588340000
   24      H       4.4453760000     4.4912050000     0.0868390000
   25      H       4.5449290000    -0.2510940000    -0.4572100000
   26      H       5.5495940000     1.1857440000    -0.2104210000
   27      H       5.3432530000     1.7315760000    -2.6495230000
   28      H       4.3428530000     0.3025950000    -2.8844360000
   29      H       6.2422650000    -1.1522430000    -2.1355200000
   30      H       7.2428010000     0.2699630000    -1.8951040000
   31      H       7.0503890000     0.8177230000    -4.3396110000
   32      H       6.0506620000    -0.6037510000    -4.5792890000
   33      H       7.9470750000    -2.0641770000    -3.8232600000
   34      H       8.9461720000    -0.6441560000    -3.5835390000
   35      H       7.7803500000    -1.5390030000    -6.2882500000
   36      H       9.4635770000    -1.7184340000    -5.7835310000
   37      H       8.7867960000    -0.1081960000    -6.0469320000
 ----------------------------------------------------------------

   89    -846.4842432464      3.16E-06 Convergence criterion met
 Total energy in the final basis set = -846.48424325

                    Orbital Energies (a.u.)
 --------------------------------------------------------------

 Alpha MOs
 -- Occupied --
-19.1779 -19.1495 -19.1299 -10.2935 -10.2813 -10.2667 -10.2105 -10.2092
-10.2033 -10.2004 -10.1984 -10.1968 -10.1966 -10.1748 -10.1656 -10.1591
-10.1589 -10.1572 -10.1523  -1.1081  -1.0671  -1.0637  -0.8923  -0.8436
 -0.8064  -0.7872  -0.7796  -0.7592  -0.7192  -0.6908  -0.6607  -0.6485
 -0.6185  -0.6043  -0.5847  -0.5742  -0.5727  -0.5423  -0.5183  -0.4974
 -0.4798  -0.4751  -0.4711  -0.4679  -0.4540  -0.4521  -0.4375  -0.4359
 -0.4303  -0.4222  -0.4105  -0.4061  -0.3973  -0.3914  -0.3823  -0.3783
 -0.3767  -0.3694  -0.3543  -0.3461  -0.3287  -0.3259  -0.3190  -0.3188
 -0.3030  -0.2896  -0.2800  -0.2796  -0.2562

          Ground-State Mulliken Net Atomic Charges

     Atom                 Charge (a.u.)
  ----------------------------------------
      1 C                     0.200952
      2 C                    -0.396106
      3 C                    -0.413667
      4 C                     0.458961
      5 C                    -0.090982
      6 C                     0.181044
      7 C                    -0.777294
      8 C                    -0.432282
      9 C                     1.853647
     10 C                    -0.773450
     11 O                    -0.322428
     12 O                    -0.292878
     13 H                     0.203017
     14 H                     0.226977
     15 H                     0.223135
     16 H                     0.201308
     17 O                    -0.234896
     18 C                    -0.372305
     19 C                    -0.537479
     20 C                    -0.109052
     21 C                    -0.227107
     22 C                    -0.215187
     23 C                    -0.699080
     24 H                     0.321447
     25 H                     0.220768
     26 H                     0.235633
     27 H                     0.175494
     28 H                     0.177339
     29 H                     0.123674
     30 H                     0.122412
     31 H                     0.127788
     32 H                     0.127692
     33 H                     0.137119
     34 H                     0.137342
     35 H                     0.145616
     36 H                     0.147496
     37 H                     0.145332
  ----------------------------------------
  Sum of atomic charges =     0.000000

                    Cartesian Multipole Moments
 -----------------------------------------------------------------
    Charge (ESU x 10^10)
                -0.0000
    Dipole Moment (Debye)
         X      -2.6435      Y       1.5451      Z       0.2225
       Tot       3.0700
    Quadrupole Moments (Debye-Ang)
        XX    -108.1610     XY      -4.5195     YY    -117.0181
        XZ       0.9346     YZ      -1.8755     ZZ    -117.1954

 Total job time:  1493.98s(wall), 9072.93s(cpu)
        *  Thank you very much for using Q-Chem.  Have a nice day.  *
