 Gaussian 16, Revision A.03,
 Gaussian 16:  ES64L-G16RevA.03 25-Dec-2016

 --------------------------------------
 #P UB3LYP/6-311++G(d,p) nosym opt freq
 --------------------------------------

 --------
 Oxidized
 --------
 Symbolic Z-matrix:
 Charge =  0 Multiplicity = 1

 SCF Done:  E(UB3LYP) =  -846.465323407     A.U. after   16 cycles
 SCF Done:  E(UB3LYP) =  -846.465323040     A.U. after    8 cycles
 SCF Done:  E(UB3LYP) =  -846.465323578     A.U. after    8 cycles
 SCF Done:  E(UB3LYP) =  -846.465323753     A.U. after    9 cycles
 SCF Done:  E(UB3LYP) =  -846.465326230     A.U. after   12 cycles
 SCF Done:  E(UB3LYP) =  -846.415046914     A.U. after   17 cycles
 SCF Done:  E(UB3LYP) =  -846.464163269     A.U. after   15 cycles
 SCF Done:  E(UB3LYP) =  -846.465327792     A.U. after   10 cycles
 SCF Done:  E(UB3LYP) =  -846.465012132     A.U. after   17 cycles
 SCF Done:  E(UB3LYP) =  -846.465713836     A.U. after   14 cycles
 SCF Done:  E(UB3LYP) =  -846.470168303     A.U. after   16 cycles
 SCF Done:  E(UB3LYP) =  -846.471141879     A.U. after   13 cycles
 SCF Done:  E(UB3LYP) =  -846.471252489     A.U. after   13 cycles
 SCF Done:  E(UB3LYP) =  -846.471273126     A.U. after   13 cycles
 SCF Done:  E(UB3LYP) =  -846.471286617     A.U. after   12 cycles
 SCF Done:  E(UB3LYP) =  -846.471289873     A.U. after   12 cycles
 SCF Done:  E(UB3LYP) =  -846.471291263     A.U. after   11 cycles
 SCF Done:  E(UB3LYP) =  -846.471291473     A.U. after   10 cycles
 SCF Done:  E(UB3LYP) =  -846.471291480     A.U. after    9 cycles
 Optimization completed.
    -- Stationary point found.
 Normal termination of Gaussian 16 at Mon Jan  8 04:41:05 2024.

 ----------------------------------------------------------------------
 #P Geom=AllCheck Guess=TCheck SCRF=Check GenChk UB3LYP/6-311++G(d,p) F
 req
 ----------------------------------------------------------------------

 Structure from the checkpoint file:  "284.chk"
 --------
 Oxidized
 --------
 Charge =  0 Multiplicity = 1

                          Input orientation:
 ---------------------------------------------------------------------
 Center     Atomic      Atomic             Coordinates (Angstroms)
 Number     Number       Type             X           Y           Z
 ---------------------------------------------------------------------
      1          6           0       -0.167917    3.854421   -0.052495
      2          6           0       -1.407717    3.239440   -0.196900
      3          6           0       -1.480358    1.882870   -0.518625
      4          6           0        0.999782    3.108769   -0.231164
      5          6           0        0.929972    1.743808   -0.554655
      6          6           0       -0.316632    1.136892   -0.696580
      7          6           0        2.320971    3.745347   -0.081465
      8          6           0        3.535879    2.905859   -0.289149
      9          6           0        3.494146    1.584919   -0.591941
     10          6           0        2.178552    0.929849   -0.748668
     11          8           0        2.485368    4.926361    0.203588
     12          8           0        2.097686   -0.258124   -1.028613
     13          1           0       -0.085878    4.905194    0.197146
     14          1           0       -2.316183    3.814356   -0.059572
     15          1           0       -2.447276    1.405574   -0.630810
     16          1           0       -0.355033    0.083807   -0.946046
     17          8           0        4.691223    3.574529   -0.141512
     18          6           0        4.735845    0.766328   -0.807509
     19          6           0        5.166049    0.711827   -2.289346
     20          6           0        6.424621   -0.134995   -2.504622
     21          6           0        6.869562   -0.200061   -3.969843
     22          6           0        8.127703   -1.047282   -4.192400
     23          6           0        8.565140   -1.107492   -5.658834
     24          1           0        4.445376    4.491205    0.086839
     25          1           0        4.544929   -0.251094   -0.457210
     26          1           0        5.549594    1.185744   -0.210421
     27          1           0        5.343253    1.731576   -2.649523
     28          1           0        4.342853    0.302595   -2.884436
     29          1           0        6.242265   -1.152243   -2.135520
     30          1           0        7.242801    0.269963   -1.895104
     31          1           0        7.050389    0.817723   -4.339611
     32          1           0        6.050662   -0.603751   -4.579289
     33          1           0        7.947075   -2.064177   -3.823260
     34          1           0        8.946172   -0.644156   -3.583539
     35          1           0        7.780350   -1.539003   -6.288250
     36          1           0        9.463577   -1.718434   -5.783531
     37          1           0        8.786796   -0.108196   -6.046932
 ---------------------------------------------------------------------

 SCF Done:  E(UB3LYP) =  -846.471291480     A.U. after    1 cycles

 Alpha  occ. eigenvalues --  -19.17890 -19.15001 -19.12601 -10.29391 -10.27809
 Alpha  occ. eigenvalues --  -10.26749 -10.21571 -10.21389 -10.20794 -10.20778
 Alpha  occ. eigenvalues --  -10.20651 -10.20491 -10.20308 -10.17630 -10.16799
 Alpha  occ. eigenvalues --  -10.16325 -10.16324 -10.16177 -10.15619  -1.10940
 Alpha  occ. eigenvalues --   -1.06759  -1.05881  -0.89788  -0.84630  -0.81041
 Alpha  occ. eigenvalues --   -0.79203  -0.78559  -0.76303  -0.72229  -0.69374
 Alpha  occ. eigenvalues --   -0.66511  -0.65277  -0.62256  -0.60873  -0.58771
 Alpha  occ. eigenvalues --   -0.57811  -0.57681  -0.54406  -0.52191  -0.50136
 Alpha  occ. eigenvalues --   -0.48575  -0.47953  -0.47319  -0.46711  -0.45896
 Alpha  occ. eigenvalues --   -0.45315  -0.44018  -0.43684  -0.43183  -0.42262
 Alpha  occ. eigenvalues --   -0.41239  -0.40911  -0.40085  -0.39612  -0.38511
 Alpha  occ. eigenvalues --   -0.38297  -0.37937  -0.37540  -0.35714  -0.34911
 Alpha  occ. eigenvalues --   -0.33189  -0.32969  -0.32333  -0.32216  -0.30271
 Alpha  occ. eigenvalues --   -0.29395  -0.28521  -0.27561  -0.25830
 Alpha virt. eigenvalues --   -0.12646  -0.06061  -0.03081  -0.01289  -0.00538
 Alpha virt. eigenvalues --   -0.00064   0.00886   0.00978   0.01475   0.01876
 Alpha virt. eigenvalues --    0.02241   0.02494   0.02857   0.03522   0.04262

  Beta  occ. eigenvalues --  -19.17890 -19.15001 -19.12601 -10.29391 -10.27809
  Beta  occ. eigenvalues --  -10.26749 -10.21571 -10.21389 -10.20794 -10.20778
  Beta  occ. eigenvalues --  -10.20651 -10.20491 -10.20308 -10.17630 -10.16799
  Beta  occ. eigenvalues --  -10.16325 -10.16324 -10.16177 -10.15619  -1.10940
  Beta  occ. eigenvalues --   -1.06759  -1.05881  -0.89788  -0.84630  -0.81041
  Beta  occ. eigenvalues --   -0.79203  -0.78559  -0.76303  -0.72229  -0.69374
  Beta  occ. eigenvalues --   -0.66511  -0.65277  -0.62256  -0.60873  -0.58771
  Beta  occ. eigenvalues --   -0.57811  -0.57681  -0.54406  -0.52191  -0.50136
  Beta  occ. eigenvalues --   -0.48575  -0.47953  -0.47319  -0.46711  -0.45896
  Beta  occ. eigenvalues --   -0.45315  -0.44018  -0.43684  -0.43183  -0.42262
  Beta  occ. eigenvalues --   -0.41239  -0.40911  -0.40085  -0.39612  -0.38511
  Beta  occ. eigenvalues --   -0.38297  -0.37937  -0.37540  -0.35714  -0.34911
  Beta  occ. eigenvalues --   -0.33189  -0.32969  -0.32333  -0.32216  -0.30271
  Beta  occ. eigenvalues --   -0.29395  -0.28521  -0.27561  -0.25830
  Beta virt. eigenvalues --   -0.12646  -0.06061  -0.03081  -0.01289  -0.00538
  Beta virt. eigenvalues --   -0.00064   0.00886   0.00978   0.01475   0.01876
  Beta virt. eigenvalues --    0.02241   0.02494   0.02857   0.03522   0.04262

 Mulliken charges and spin densities:
               1          2
     1  C    0.190144  -0.000000
     2  C   -0.332824   0.000000
     3  C   -0.333681   0.000000
     4  C    0.452711  -0.000000
     5  C   -0.024908   0.000000
     6  C    0.151333  -0.000000
     7  C   -0.865619  -0.000000
     8  C   -0.483185   0.000000
     9  C    1.914788  -0.000000
    10  C   -0.892953   0.000000
    11  O   -0.277419  -0.000000
    12  O   -0.209065  -0.000000
    13  H    0.186054   0.000000
    14  H    0.179949   0.000000
    15  H    0.177656  -0.000000
    16  H    0.190830   0.000000
    17  O   -0.196156  -0.000000
    18  C   -0.339763  -0.000000
    19  C   -0.540157   0.000000
    20  C   -0.096269  -0.000000
    21  C   -0.212825   0.000000
    22  C   -0.194762   0.000000
    23  C   -0.654814   0.000000
    24  H    0.287894   0.000000
    25  H    0.224109  -0.000000
    26  H    0.229704  -0.000000
    27  H    0.165926   0.000000
    28  H    0.174989   0.000000
    29  H    0.114903  -0.000000
    30  H    0.109004  -0.000000
    31  H    0.116489  -0.000000
    32  H    0.118144  -0.000000
    33  H    0.129732   0.000000
    34  H    0.128607  -0.000000
    35  H    0.136480   0.000000
    36  H    0.139438  -0.000000
    37  H    0.135517   0.000000
 Sum of Mulliken charges =  -0.00000  -0.00000

 Dipole moment (field-independent basis, Debye):
    X=             -1.9451    Y=              0.8787    Z=              0.0833  Tot=              2.1360
 Quadrupole moment (field-independent basis, Debye-Ang):
   XX=           -109.5594   YY=           -117.9141   ZZ=           -116.8461
   XY=             -4.0961   XZ=              0.4054   YZ=             -1.2851

  Exact polarizability: 254.544 -17.975 219.360 -21.484  32.962 145.397
 Approx polarizability: 344.165  11.989 415.565   1.424  54.217 208.737

                      1                      2                      3
                      A                      A                      A
 Frequencies --     18.8580                30.1153                43.6798
 Red. masses --      4.8479                 5.4104                 1.5683
 Frc consts  --      0.0010                 0.0029                 0.0018
 IR Inten    --      0.1612                 0.9647                 0.0254

                      4                      5                      6
                      A                      A                      A
 Frequencies --     65.8041                70.8785                96.9590
 Red. masses --      3.7098                 4.9918                 5.1465
 Frc consts  --      0.0095                 0.0148                 0.0285
 IR Inten    --      1.1890                 2.4913                 0.0618

                      7                      8                      9
                      A                      A                      A
 Frequencies --    124.6218               125.2509               139.3786
 Red. masses --      5.1919                 1.6697                 5.0260
 Frc consts  --      0.0475                 0.0154                 0.0575
 IR Inten    --      0.0234                 0.0032                 0.3124

                     10                     11                     12
                      A                      A                      A
 Frequencies --    142.4819               179.6191               230.3383
 Red. masses --      2.2681                 6.2671                 3.7500
 Frc consts  --      0.0271                 0.1191                 0.1172
 IR Inten    --      0.0679                 0.3634                 0.0993

                     13                     14                     15
                      A                      A                      A
 Frequencies --    243.9004               252.1305               302.6954
 Red. masses --      1.1345                 4.0638                 2.9539
 Frc consts  --      0.0398                 0.1522                 0.1595
 IR Inten    --      0.0070                 0.1812                 2.2807

                     16                     17                     18
                      A                      A                      A
 Frequencies --    312.6880               348.6471               387.2442
 Red. masses --      4.4934                 5.5389                 8.9442
 Frc consts  --      0.2589                 0.3967                 0.7902
 IR Inten    --      0.1565                 7.9104                13.4904

                     19                     20                     21
                      A                      A                      A
 Frequencies --    398.9715               412.9364               420.4675
 Red. masses --      3.9457                 4.5720                 8.6696
 Frc consts  --      0.3700                 0.4593                 0.9031
 IR Inten    --      2.9499                17.0914                 4.3488

                     22                     23                     24
                      A                      A                      A
 Frequencies --    442.9178               452.1952               481.2077
 Red. masses --      4.0790                 3.8518                 6.1950
 Frc consts  --      0.4715                 0.4640                 0.8452
 IR Inten    --      2.8378                 0.6085                 4.1759

                     25                     26                     27
                      A                      A                      A
 Frequencies --    526.7710               588.1259               647.1419
 Red. masses --      6.7593                 6.0846                 1.1499
 Frc consts  --      1.1051                 1.2400                 0.2837
 IR Inten    --      3.2596                 7.0235                69.0978

                     28                     29                     30
                      A                      A                      A
 Frequencies --    654.3880               677.7811               707.4656
 Red. masses --      5.7608                 6.0020                 3.3653
 Frc consts  --      1.4535                 1.6245                 0.9924
 IR Inten    --      7.5731                 2.6032                 2.8750

                     31                     32                     33
                      A                      A                      A
 Frequencies --    713.0252               732.8585               735.9347
 Red. masses --      4.5733                 1.0873                 2.4518
 Frc consts  --      1.3699                 0.3441                 0.7824
 IR Inten    --      3.6204                 5.0774                76.9057

                     34                     35                     36
                      A                      A                      A
 Frequencies --    745.5308               761.5851               789.8883
 Red. masses --      1.2394                 6.6382                 1.3573
 Frc consts  --      0.4059                 2.2685                 0.4990
 IR Inten    --      0.3308                 2.7924                 0.6203

                     37                     38                     39
                      A                      A                      A
 Frequencies --    805.7214               852.9891               895.2641
 Red. masses --      1.8896                 2.0561                 2.0040
 Frc consts  --      0.7227                 0.8814                 0.9464
 IR Inten    --     12.1274                10.3404                 1.3268

                     40                     41                     42
                      A                      A                      A
 Frequencies --    910.4379               912.5780               951.6798
 Red. masses --      1.6488                 1.3229                 5.6173
 Frc consts  --      0.8052                 0.6491                 2.9975
 IR Inten    --      5.1447                 0.0126                33.3691

                     43                     44                     45
                      A                      A                      A
 Frequencies --    995.8601               997.5813              1005.3988
 Red. masses --      1.7702                 1.3799                 2.8413
 Frc consts  --      1.0343                 0.8091                 1.6922
 IR Inten    --      7.5495                 1.4029                13.3579

                     46                     47                     48
                      A                      A                      A
 Frequencies --   1016.2337              1019.5588              1039.4176
 Red. masses --      1.3267                 3.2738                 2.8003
 Frc consts  --      0.8073                 2.0051                 1.7825
 IR Inten    --      0.1321                 3.6372                34.3025

                     49                     50                     51
                      A                      A                      A
 Frequencies --   1050.5076              1056.6156              1064.9712
 Red. masses --      2.7422                 1.9713                 2.3232
 Frc consts  --      1.7830                 1.2967                 1.5524
 IR Inten    --      0.3027                 3.4259                 0.1558

                     52                     53                     54
                      A                      A                      A
 Frequencies --   1110.3997              1129.4969              1135.5427
 Red. masses --      2.1962                 2.3780                 1.7398
 Frc consts  --      1.5954                 1.7874                 1.3218
 IR Inten    --      1.5978                12.0070                28.3167

                     55                     56                     57
                      A                      A                      A
 Frequencies --   1182.3005              1195.5269              1220.8616
 Red. masses --      1.1816                 2.2711                 1.7917
 Frc consts  --      0.9732                 1.9125                 1.5734
 IR Inten    --     21.2679                29.6409                 5.2796

                     58                     59                     60
                      A                      A                      A
 Frequencies --   1234.6772              1253.8584              1280.0475
 Red. masses --      2.1943                 1.2720                 1.4046
 Frc consts  --      1.9708                 1.1783                 1.3560
 IR Inten    --     80.5599                 1.3073                96.2588

                     61                     62                     63
                      A                      A                      A
 Frequencies --   1288.5816              1307.9498              1313.7319
 Red. masses --      1.9380                 1.8489                 1.6518
 Frc consts  --      1.8960                 1.8636                 1.6797
 IR Inten    --     43.9714                83.8029               133.9722

                     64                     65                     66
                      A                      A                      A
 Frequencies --   1319.1712              1331.1619              1333.0801
 Red. masses --      1.5421                 1.1254                 1.3296
 Frc consts  --      1.5811                 1.1749                 1.3921
 IR Inten    --      3.8355                17.6492                27.2609

                     67                     68                     69
                      A                      A                      A
 Frequencies --   1344.2376              1362.4081              1366.8695
 Red. masses --      1.4639                 1.3970                 6.3504
 Frc consts  --      1.5586                 1.5277                 6.9904
 IR Inten    --     24.4922                 1.3857                66.2243

                     70                     71                     72
                      A                      A                      A
 Frequencies --   1387.2960              1398.4818              1401.4440
 Red. masses --      1.4575                 1.6107                 2.0836
 Frc consts  --      1.6527                 1.8560                 2.4111
 IR Inten    --      7.5572                19.4486               322.6268

                     73                     74                     75
                      A                      A                      A
 Frequencies --   1412.8154              1479.4124              1485.4119
 Red. masses --      1.2461                 1.1923                 1.6345
 Frc consts  --      1.4655                 1.5375                 2.1249
 IR Inten    --      2.3718                 5.2786                 5.5485

                     76                     77                     78
                      A                      A                      A
 Frequencies --   1486.6436              1487.6302              1495.0252
 Red. masses --      1.1327                 1.1956                 1.0727
 Frc consts  --      1.4750                 1.5589                 1.4127
 IR Inten    --      1.9047                 4.9660                 1.8434

                     79                     80                     81
                      A                      A                      A
 Frequencies --   1499.6298              1504.5727              1506.6690
 Red. masses --      1.0397                 1.0890                 2.6265
 Frc consts  --      1.3776                 1.4525                 3.5129
 IR Inten    --      7.9941                 0.9672                 3.6454

                     82                     83                     84
                      A                      A                      A
 Frequencies --   1513.1754              1613.5067              1627.8640
 Red. masses --      1.0952                 6.6620                 5.9402
 Frc consts  --      1.4775                10.2187                 9.2744
 IR Inten    --     10.8204                 2.0236                79.0858

                     85                     86                     87
                      A                      A                      A
 Frequencies --   1690.6493              1702.1800              1704.6370
 Red. masses --      7.9882                11.2111                11.2469
 Frc consts  --     13.4526                19.1386                19.2551
 IR Inten    --     46.8735                58.7237               404.8091

                     88                     89                     90
                      A                      A                      A
 Frequencies --   2992.2853              2996.7555              3006.9603
 Red. masses --      1.0574                 1.0584                 1.0608
 Frc consts  --      5.5785                 5.6002                 5.6513
 IR Inten    --      0.6748                 8.2740                55.0440

                     91                     92                     93
                      A                      A                      A
 Frequencies --   3010.5635              3016.5747              3018.5253
 Red. masses --      1.0977                 1.0379                 1.0605
 Frc consts  --      5.8619                 5.5644                 5.6933
 IR Inten    --      0.5819                27.9765                52.3703

                     94                     95                     96
                      A                      A                      A
 Frequencies --   3024.6569              3042.1161              3047.3114
 Red. masses --      1.0989                 1.1035                 1.0596
 Frc consts  --      5.9231                 6.0171                 5.7972
 IR Inten    --      3.0029                24.4796                32.1066

                     97                     98                     99
                      A                      A                      A
 Frequencies --   3059.1519              3077.3375              3081.6454
 Red. masses --      1.1039                 1.1025                 1.1009
 Frc consts  --      6.0870                 6.1514                 6.1598
 IR Inten    --     38.4035                69.2755                47.7598

                    100                    101                    102
                      A                      A                      A
 Frequencies --   3094.2664              3171.7058              3185.7724
 Red. masses --      1.1056                 1.0870                 1.0915
 Frc consts  --      6.2369                 6.4430                 6.5268
 IR Inten    --     14.8467                 3.1499                 8.2588

                    103                    104                    105
                      A                      A                      A
 Frequencies --   3199.5413              3202.9236              3617.8211
 Red. masses --      1.0933                 1.0948                 1.0642
 Frc consts  --      6.5941                 6.6171                 8.2069
 IR Inten    --      1.5979                 8.4672               152.0437

 - Thermochemistry -
 -------------------
 Temperature   298.150 Kelvin.  Pressure   1.00000 Atm.
 Atom     1 has atomic number  6 and mass  12.00000

 Molecular mass:   258.12559 amu.
 Principal axes and moments of inertia in atomic units:
                           1         2         3
     Eigenvalues --  2325.70474********************
           X            0.81441   0.54057   0.21101
           Y           -0.39319   0.78147  -0.48446
           Z           -0.42678   0.31158   0.84898
 This molecule is an asymmetric top.
 Rotational symmetry number  1.
 Warning -- assumption of classical behavior for rotation
           may cause significant error
 Rotational temperatures (Kelvin)      0.03724     0.00725     0.00644
 Rotational constants (GHZ):           0.77600     0.15104     0.13412
 Zero-point vibrational energy     804681.0 (Joules/Mol)
                                  192.32338 (Kcal/Mol)
 Warning -- explicit consideration of  26 degrees of freedom as
           vibrations may cause significant error
 Vibrational temperatures:     27.13    43.33    62.85    94.68   101.98
          (Kelvin)            139.50   179.30   180.21   200.53   205.00
                              258.43   331.41   350.92   362.76   435.51
                              449.89   501.63   557.16   574.03   594.12
                              604.96   637.26   650.61   692.35   757.91
                              846.18   931.09   941.52   975.18  1017.89
                             1025.88  1054.42  1058.85  1072.65  1095.75
                             1136.47  1159.25  1227.26  1288.09  1309.92
                             1313.00  1369.26  1432.82  1435.30  1446.54
                             1462.13  1466.92  1495.49  1511.45  1520.23
                             1532.26  1597.62  1625.09  1633.79  1701.07
                             1720.10  1756.55  1776.43  1804.02  1841.70
                             1853.98  1881.85  1890.17  1897.99  1915.25
                             1918.00  1934.06  1960.20  1966.62  1996.01
                             2012.10  2016.37  2032.73  2128.54  2137.18
                             2138.95  2140.37  2151.01  2157.63  2164.74
                             2167.76  2177.12  2321.48  2342.13  2432.47
                             2449.06  2452.59  4305.23  4311.66  4326.35
                             4331.53  4340.18  4342.98  4351.81  4376.93
                             4384.40  4401.44  4427.60  4433.80  4451.96
                             4563.38  4583.62  4603.43  4608.29  5205.24

 Zero-point correction=                           0.306487 (Hartree/Particle)
 Thermal correction to Energy=                    0.324660
 Thermal correction to Enthalpy=                  0.325604
 Thermal correction to Gibbs Free Energy=         0.258044
 Sum of electronic and zero-point Energies=           -846.164805
 Sum of electronic and thermal Energies=              -846.146631
 Sum of electronic and thermal Enthalpies=            -846.145687
 Sum of electronic and thermal Free Energies=         -846.213248

                     E (Thermal)             CV                S
                      KCal/Mol        Cal/Mol-Kelvin    Cal/Mol-Kelvin
 Total                  203.727             68.381            142.193
 Electronic               0.000              0.000              0.000
 Translational            0.889              2.981             42.545
 Rotational               0.889              2.981             34.280
 Vibrational            201.950             62.419             65.369
 Vibration     1          0.593              1.986              6.751
 Vibration     2          0.594              1.984              5.822
 Vibration     3          0.595              1.980              5.085
 Vibration     4          0.597              1.971              4.275
 Vibration     5          0.598              1.968              4.129
 Vibration     6          0.603              1.951              3.515
 Vibration     7          0.610              1.928              3.027
 Vibration     8          0.610              1.928              3.018
 Vibration     9          0.615              1.914              2.812
 Vibration    10          0.616              1.911              2.770
 Vibration    11          0.629              1.867              2.332
 Vibration    12          0.652              1.795              1.876
 Vibration    13          0.659              1.773              1.774
 Vibration    14          0.664              1.759              1.716
 Vibration    15          0.694              1.669              1.402
 Vibration    16          0.701              1.649              1.348
 Vibration    17          0.726              1.578              1.172
 Vibration    18          0.756              1.497              1.011
 Vibration    19          0.765              1.472              0.966
 Vibration    20          0.777              1.442              0.916
 Vibration    21          0.783              1.426              0.890
 Vibration    22          0.803              1.377              0.817
 Vibration    23          0.811              1.356              0.789
 Vibration    24          0.838              1.292              0.707
 Vibration    25          0.882              1.191              0.594
 Vibration    26          0.945              1.057              0.471

 Optimization completed.
    -- Stationary point found.
 Normal termination of Gaussian 16 at Mon Jan  8 06:12:14 2024.
