 Gaussian 16, Revision A.03,
 Gaussian 16:  ES64L-G16RevA.03 25-Dec-2016

 ----------------------------------------------------------------------
 #P UB3LYP/6-311++G(d,p) nosym opt freq SCRF=(PCM,Solvent=n,n-DiMethylF
 ormamide)
 ----------------------------------------------------------------------

 -------
 Reduced
 -------
 Symbolic Z-matrix:
 Charge = -2 Multiplicity = 1

 SCF Done:  E(UB3LYP) =  -696.400606175     A.U. after   15 cycles
 SCF Done:  E(UB3LYP) =  -696.401600747     A.U. after   13 cycles
 SCF Done:  E(UB3LYP) =  -696.402088012     A.U. after   13 cycles
 SCF Done:  E(UB3LYP) =  -696.401901574     A.U. after   13 cycles
 SCF Done:  E(UB3LYP) =  -696.402192391     A.U. after   13 cycles
 SCF Done:  E(UB3LYP) =  -696.402195744     A.U. after   11 cycles
 SCF Done:  E(UB3LYP) =  -696.402195891     A.U. after   10 cycles
 SCF Done:  E(UB3LYP) =  -696.402196195     A.U. after    9 cycles
 SCF Done:  E(UB3LYP) =  -696.402196278     A.U. after    9 cycles
 Optimization completed.
    -- Stationary point found.
 Normal termination of Gaussian 16 at Sat Feb 10 11:34:58 2024.

 ----------------------------------------------------------------------
 #P Geom=AllCheck Guess=TCheck SCRF=Check GenChk UB3LYP/6-311++G(d,p) F
 req
 ----------------------------------------------------------------------

 Structure from the checkpoint file:  "045-an.chk"
 -------
 Reduced
 -------
 Charge = -2 Multiplicity = 1

                          Input orientation:
 ---------------------------------------------------------------------
 Center     Atomic      Atomic             Coordinates (Angstroms)
 Number     Number       Type             X           Y           Z
 ---------------------------------------------------------------------
      1          6           0       -1.281497    1.840953   -0.866635
      2          6           0       -2.533873    1.169007   -0.790372
      3          6           0       -2.854898    0.091602    0.052646
      4          6           0       -1.840869   -0.409313    0.938807
      5          6           0       -0.588495    0.262636    0.862548
      6          6           0       -0.267468    1.340038    0.019526
      7          8           0       -1.106760    2.848659   -1.706216
      8          8           0       -2.015613   -1.417005    1.778402
      9          6           0        1.143733    1.965924    0.033826
     10          6           0        1.051742    3.465605    0.403330
     11          6           0        2.098143    1.302786    1.046541
     12          6           0        1.785600    1.826375   -1.367304
     13          6           0       -4.266091   -0.534304    0.038330
     14          6           0       -5.220499    0.128824   -0.974391
     15          6           0       -4.907979   -0.394779    1.439452
     16          6           0       -4.174066   -2.033981   -0.331188
     17          1           0       -3.292164    1.555966   -1.464724
     18          1           0        0.169795   -0.124320    1.536903
     19          1           0        0.386595    3.978088   -0.291769
     20          1           0        2.042199    3.936691    0.368539
     21          1           0        0.659496    3.586244    1.419194
     22          1           0        1.732779    1.391786    2.074040
     23          1           0        3.076225    1.793846    0.998977
     24          1           0        2.249940    0.240459    0.834182
     25          1           0        2.764136    2.321993   -1.400203
     26          1           0        1.937299    0.769919   -1.614881
     27          1           0        1.132350    2.271948   -2.118353
     28          1           0       -4.855135    0.039816   -2.001888
     29          1           0       -5.372295    1.191154   -0.762040
     30          1           0       -6.198582   -0.362234   -0.926824
     31          1           0       -5.059696    0.661673    1.687037
     32          1           0       -4.254734   -0.840351    2.190506
     33          1           0       -5.886510   -0.890410    1.472330
     34          1           0       -3.781833   -2.154600   -1.347059
     35          1           0       -5.164510   -2.505094   -0.296387
     36          1           0       -3.508895   -2.546455    0.363895
 ---------------------------------------------------------------------

 SCF Done:  E(UB3LYP) =  -696.402196278     A.U. after    1 cycles

 Alpha  occ. eigenvalues --  -18.99762 -18.99762 -10.15897 -10.15897 -10.15235
 Alpha  occ. eigenvalues --  -10.15234 -10.13754 -10.13754 -10.12999 -10.12999
 Alpha  occ. eigenvalues --  -10.12984 -10.12984 -10.11855 -10.11854 -10.10576
 Alpha  occ. eigenvalues --  -10.10575  -0.90358  -0.89930  -0.79754  -0.79298
 Alpha  occ. eigenvalues --   -0.74714  -0.67763  -0.66369  -0.66326  -0.65939
 Alpha  occ. eigenvalues --   -0.65936  -0.62914  -0.57375  -0.52787  -0.51862
 Alpha  occ. eigenvalues --   -0.47879  -0.43625  -0.43254  -0.43117  -0.41529
 Alpha  occ. eigenvalues --   -0.41451  -0.40865  -0.38964  -0.38420  -0.37513
 Alpha  occ. eigenvalues --   -0.37051  -0.36915  -0.36085  -0.34537  -0.34489
 Alpha  occ. eigenvalues --   -0.34415  -0.33380  -0.32642  -0.30970  -0.30875
 Alpha  occ. eigenvalues --   -0.30615  -0.30339  -0.29944  -0.29022  -0.28433
 Alpha  occ. eigenvalues --   -0.28403  -0.20516  -0.19481  -0.17639  -0.17568
 Alpha  occ. eigenvalues --   -0.10594
 Alpha virt. eigenvalues --   -0.00133   0.00595   0.01648   0.01897   0.02468
 Alpha virt. eigenvalues --    0.02810   0.03002   0.03093   0.04018   0.04106
 Alpha virt. eigenvalues --    0.04199   0.04700   0.05481   0.05808   0.06247

  Beta  occ. eigenvalues --  -18.99762 -18.99762 -10.15897 -10.15897 -10.15235
  Beta  occ. eigenvalues --  -10.15234 -10.13754 -10.13754 -10.12999 -10.12999
  Beta  occ. eigenvalues --  -10.12984 -10.12984 -10.11855 -10.11854 -10.10576
  Beta  occ. eigenvalues --  -10.10575  -0.90358  -0.89930  -0.79754  -0.79298
  Beta  occ. eigenvalues --   -0.74714  -0.67763  -0.66369  -0.66326  -0.65939
  Beta  occ. eigenvalues --   -0.65936  -0.62914  -0.57375  -0.52787  -0.51862
  Beta  occ. eigenvalues --   -0.47879  -0.43625  -0.43254  -0.43117  -0.41529
  Beta  occ. eigenvalues --   -0.41451  -0.40865  -0.38964  -0.38420  -0.37513
  Beta  occ. eigenvalues --   -0.37051  -0.36915  -0.36085  -0.34537  -0.34489
  Beta  occ. eigenvalues --   -0.34415  -0.33380  -0.32642  -0.30970  -0.30875
  Beta  occ. eigenvalues --   -0.30615  -0.30339  -0.29944  -0.29022  -0.28433
  Beta  occ. eigenvalues --   -0.28403  -0.20516  -0.19481  -0.17639  -0.17568
  Beta  occ. eigenvalues --   -0.10594
  Beta virt. eigenvalues --   -0.00133   0.00595   0.01648   0.01897   0.02468
  Beta virt. eigenvalues --    0.02810   0.03002   0.03093   0.04018   0.04106
  Beta virt. eigenvalues --    0.04199   0.04700   0.05481   0.05808   0.06247

 Mulliken charges and spin densities:
               1          2
     1  C   -1.061785   0.000000
     2  C   -0.365142   0.000000
     3  C    1.071248  -0.000000
     4  C   -1.061789   0.000000
     5  C   -0.365140  -0.000000
     6  C    1.071248  -0.000000
     7  O   -0.708132  -0.000000
     8  O   -0.708131  -0.000000
     9  C    0.612325  -0.000000
    10  C   -0.677313   0.000000
    11  C   -0.569658   0.000000
    12  C   -0.682240   0.000000
    13  C    0.612328   0.000000
    14  C   -0.569662   0.000000
    15  C   -0.682237  -0.000000
    16  C   -0.677315  -0.000000
    17  H    0.132388   0.000000
    18  H    0.132388  -0.000000
    19  H    0.177246   0.000000
    20  H    0.127784  -0.000000
    21  H    0.116402  -0.000000
    22  H    0.124698  -0.000000
    23  H    0.156351  -0.000000
    24  H    0.124751  -0.000000
    25  H    0.127248  -0.000000
    26  H    0.116153   0.000000
    27  H    0.177678  -0.000000
    28  H    0.124698  -0.000000
    29  H    0.124750  -0.000000
    30  H    0.156352  -0.000000
    31  H    0.116153   0.000000
    32  H    0.177679  -0.000000
    33  H    0.127247   0.000000
    34  H    0.116400   0.000000
    35  H    0.127783   0.000000
    36  H    0.177247  -0.000000
 Sum of Mulliken charges =  -2.00000  -0.00000

 Dipole moment (field-independent basis, Debye):
    X=             14.9974    Y=             -6.8765    Z=             -0.3467  Tot=             16.5024
 Quadrupole moment (field-independent basis, Debye-Ang):
   XX=           -146.1981   YY=           -155.7422   ZZ=           -138.2338
   XY=              0.7580   XZ=              5.8694   YZ=             28.9832

  Exact polarizability: 313.092  33.475 283.098  10.033 -45.899 263.310
 Approx polarizability: 316.696  28.801 302.696  11.126 -55.034 283.563

                      1                      2                      3
                      A                      A                      A
 Frequencies --     22.4681                44.5268                58.8111
 Red. masses --      3.2777                 3.2870                 3.8838
 Frc consts  --      0.0010                 0.0038                 0.0079
 IR Inten    --     10.6817                10.3735                 0.0000

                      4                      5                      6
                      A                      A                      A
 Frequencies --    154.0837               159.7142               169.4853
 Red. masses --      3.1223                 3.1141                 5.3557
 Frc consts  --      0.0437                 0.0468                 0.0906
 IR Inten    --     18.0927                 0.0000                16.9590

                      7                      8                      9
                      A                      A                      A
 Frequencies --    211.6216               232.1607               235.7152
 Red. masses --      1.6834                 1.1127                 1.5387
 Frc consts  --      0.0444                 0.0353                 0.0504
 IR Inten    --      0.0000                 2.1458                 0.0000

                     10                     11                     12
                      A                      A                      A
 Frequencies --    244.7024               259.3512               264.5428
 Red. masses --      2.7455                 1.1626                 1.3543
 Frc consts  --      0.0969                 0.0461                 0.0558
 IR Inten    --      0.0000                 4.4682                 0.0000

                     13                     14                     15
                      A                      A                      A
 Frequencies --    297.9162               300.3235               301.5442
 Red. masses --      2.7467                 2.6300                 3.7896
 Frc consts  --      0.1436                 0.1398                 0.2030
 IR Inten    --      4.5038                 5.6976                 0.0000

                     16                     17                     18
                      A                      A                      A
 Frequencies --    318.2418               332.3591               333.7995
 Red. masses --      2.3468                 1.1067                 1.0595
 Frc consts  --      0.1400                 0.0720                 0.0696
 IR Inten    --      0.0000                 3.1257                 0.0004

                     19                     20                     21
                      A                      A                      A
 Frequencies --    333.8909               379.8420               395.1190
 Red. masses --      3.3409                 2.4642                 2.5911
 Frc consts  --      0.2194                 0.2095                 0.2383
 IR Inten    --     36.2474                 0.0000                 0.0000

                     22                     23                     24
                      A                      A                      A
 Frequencies --    397.5168               410.3675               450.9155
 Red. masses --      2.3623                 2.6822                 3.2393
 Frc consts  --      0.2199                 0.2661                 0.3881
 IR Inten    --      0.1263                10.4866                 2.4906

                     25                     26                     27
                      A                      A                      A
 Frequencies --    482.7405               510.4988               512.5283
 Red. masses --      5.7559                 2.6635                 4.8317
 Frc consts  --      0.7903                 0.4090                 0.7478
 IR Inten    --      0.0000                10.3009                 0.0000

                     28                     29                     30
                      A                      A                      A
 Frequencies --    527.0211               616.3384               652.7297
 Red. masses --      3.3708                 3.6821                 4.9041
 Frc consts  --      0.5516                 0.8241                 1.2311
 IR Inten    --      0.0000                28.5846                 0.0000

                     31                     32                     33
                      A                      A                      A
 Frequencies --    713.6633               732.2447               738.5467
 Red. masses --      6.1548                 6.2200                 2.0403
 Frc consts  --      1.8469                 1.9650                 0.6557
 IR Inten    --      0.0000                 1.4252                 0.0000

                     34                     35                     36
                      A                      A                      A
 Frequencies --    807.4619               811.9923               843.9325
 Red. masses --      4.0817                 3.0016                 2.2010
 Frc consts  --      1.5680                 1.1660                 0.9236
 IR Inten    --    146.9186                 0.0000                 0.0000

                     37                     38                     39
                      A                      A                      A
 Frequencies --    857.8613               861.1419               920.0806
 Red. masses --      1.7547                 2.5426                 1.7808
 Frc consts  --      0.7608                 1.1109                 0.8882
 IR Inten    --     85.5990               154.8941                 0.0000

                     40                     41                     42
                      A                      A                      A
 Frequencies --    920.3298               923.9263               924.9679
 Red. masses --      1.7720                 1.7537                 1.7236
 Frc consts  --      0.8843                 0.8820                 0.8688
 IR Inten    --      0.6301                10.6738                 0.0000

                     43                     44                     45
                      A                      A                      A
 Frequencies --    950.0864               950.0890              1014.3071
 Red. masses --      1.2060                 1.2064                 3.6859
 Frc consts  --      0.6414                 0.6416                 2.2342
 IR Inten    --      0.0259                 1.2383                 0.0000

                     46                     47                     48
                      A                      A                      A
 Frequencies --   1028.6110              1037.9974              1042.8692
 Red. masses --      1.4822                 1.3792                 1.3818
 Frc consts  --      0.9240                 0.8755                 0.8854
 IR Inten    --     69.8464                 0.0000                 0.0000

                     49                     50                     51
                      A                      A                      A
 Frequencies --   1043.2921              1110.1851              1180.8700
 Red. masses --      1.3834                 2.2034                 8.9201
 Frc consts  --      0.8872                 1.6000                 7.3286
 IR Inten    --      0.8862               134.7588               207.8383

                     52                     53                     54
                      A                      A                      A
 Frequencies --   1202.7179              1209.9298              1210.1217
 Red. masses --      2.3541                 2.7315                 2.7305
 Frc consts  --      2.0063                 2.3559                 2.3559
 IR Inten    --     97.2847                 0.0000                20.7394

                     55                     56                     57
                      A                      A                      A
 Frequencies --   1217.3991              1230.1520              1256.7838
 Red. masses --      2.4999                 2.5565                 2.7732
 Frc consts  --      2.1829                 2.2793                 2.5808
 IR Inten    --      0.0000               698.6916                 0.0000

                     58                     59                     60
                      A                      A                      A
 Frequencies --   1274.4989              1275.6812              1293.9565
 Red. masses --      1.3699                 3.8947                 8.5959
 Frc consts  --      1.3111                 3.7343                 8.4797
 IR Inten    --      0.0000                86.0228                 0.0000

                     61                     62                     63
                      A                      A                      A
 Frequencies --   1357.1582              1359.7489              1359.8515
 Red. masses --      3.0422                 1.2203                 1.2409
 Frc consts  --      3.3014                 1.3294                 1.3520
 IR Inten    --    923.6602                 0.0003                59.0580

                     64                     65                     66
                      A                      A                      A
 Frequencies --   1370.5432              1374.4583              1399.5219
 Red. masses --      1.2371                 1.4051                 1.2337
 Frc consts  --      1.3691                 1.5640                 1.4237
 IR Inten    --      0.0000               142.9095                 0.0000

                     67                     68                     69
                      A                      A                      A
 Frequencies --   1403.8864              1461.4821              1464.8029
 Red. masses --      1.3662                 2.0486                 1.0560
 Frc consts  --      1.5864                 2.5781                 1.3349
 IR Inten    --    115.5794               321.6774                 0.0000

                     70                     71                     72
                      A                      A                      A
 Frequencies --   1465.1229              1472.0517              1484.5102
 Red. masses --      1.0773                 2.1533                 1.0532
 Frc consts  --      1.3625                 2.7492                 1.3675
 IR Inten    --     18.4430                 0.0000                 0.0006

                     73                     74                     75
                      A                      A                      A
 Frequencies --   1484.5909              1486.5882              1486.5920
 Red. masses --      1.0526                 1.1854                 1.1041
 Frc consts  --      1.3669                 1.5435                 1.4376
 IR Inten    --      4.9331                55.7932                 0.0577

                     76                     77                     78
                      A                      A                      A
 Frequencies --   1487.5174              1489.3817              1498.4758
 Red. masses --      1.0479                 1.5596                 1.0525
 Frc consts  --      1.3661                 2.0383                 1.3924
 IR Inten    --      2.2948                 0.0000                12.9800

                     79                     80                     81
                      A                      A                      A
 Frequencies --   1498.4840              1511.1654              1511.8665
 Red. masses --      1.0527                 1.0565                 1.0614
 Frc consts  --      1.3927                 1.4214                 1.4294
 IR Inten    --      0.2903                 0.0000                17.7630

                     82                     83                     84
                      A                      A                      A
 Frequencies --   1597.2096              2988.4530              2988.4662
 Red. masses --      6.3270                 1.0393                 1.0394
 Frc consts  --      9.5098                 5.4689                 5.4691
 IR Inten    --      0.0000                 0.5499               186.6383

                     85                     86                     87
                      A                      A                      A
 Frequencies --   2993.5998              2994.2540              3010.0621
 Red. masses --      1.0396                 1.0394                 1.0359
 Frc consts  --      5.4893                 5.4905                 5.5300
 IR Inten    --    306.4074                 0.0003               218.9527

                     88                     89                     90
                      A                      A                      A
 Frequencies --   3010.2966              3045.4087              3045.4658
 Red. masses --      1.0359                 1.0987                 1.0987
 Frc consts  --      5.5309                 6.0039                 6.0039
 IR Inten    --      0.0000                 0.0115               124.5814

                     91                     92                     93
                      A                      A                      A
 Frequencies --   3048.4195              3048.5195              3064.6434
 Red. masses --      1.0976                 1.0977                 1.0998
 Frc consts  --      6.0097                 6.0104                 6.0861
 IR Inten    --    176.4963                 0.0044               268.4882

                     94                     95                     96
                      A                      A                      A
 Frequencies --   3064.8657              3076.9423              3076.9793
 Red. masses --      1.0997                 1.1014                 1.1014
 Frc consts  --      6.0865                 6.1439                 6.1438
 IR Inten    --      0.0001                 0.0154               157.8898

                     97                     98                     99
                      A                      A                      A
 Frequencies --   3101.2486              3101.2543              3106.4728
 Red. masses --      1.0991                 1.0991                 1.0982
 Frc consts  --      6.2282                 6.2280                 6.2439
 IR Inten    --      9.8335                 1.5161                35.0053

                    100                    101                    102
                      A                      A                      A
 Frequencies --   3106.4856              3141.5879              3145.1374
 Red. masses --      1.0982                 1.0846                 1.0857
 Frc consts  --      6.2439                 6.3070                 6.3275
 IR Inten    --      1.1863               154.7791                 0.0000

 - Thermochemistry -
 -------------------
 Temperature   298.150 Kelvin.  Pressure   1.00000 Atm.
 Atom     1 has atomic number  6 and mass  12.00000

 Molecular mass:   220.14633 amu.
 Principal axes and moments of inertia in atomic units:
                           1         2         3
     Eigenvalues --  1734.478515773.837756711.53502
           X            0.87761   0.37694  -0.29617
           Y            0.47511  -0.60170   0.64205
           Z           -0.06381   0.70419   0.70714
 This molecule is an asymmetric top.
 Rotational symmetry number  1.
 Warning -- assumption of classical behavior for rotation
           may cause significant error
 Rotational temperatures (Kelvin)      0.04994     0.01500     0.01291
 Rotational constants (GHZ):           1.04051     0.31257     0.26890
 Zero-point vibrational energy     797790.4 (Joules/Mol)
                                  190.67649 (Kcal/Mol)
 Warning -- explicit consideration of  29 degrees of freedom as
           vibrations may cause significant error
 Vibrational temperatures:     32.33    64.06    84.62   221.69   229.79
          (Kelvin)            243.85   304.48   334.03   339.14   352.07
                              373.15   380.62   428.63   432.10   433.85
                              457.88   478.19   480.26   480.39   546.51
                              568.49   571.94   590.43   648.77   694.56
                              734.49   737.41   758.27   886.77   939.13
                             1026.80  1053.54  1062.60  1161.76  1168.28
                             1214.23  1234.27  1238.99  1323.79  1324.15
                             1329.32  1330.82  1366.96  1366.97  1459.36
                             1479.94  1493.45  1500.46  1501.06  1597.31
                             1699.01  1730.44  1740.82  1741.10  1751.57
                             1769.91  1808.23  1833.72  1835.42  1861.71
                             1952.65  1956.38  1956.52  1971.91  1977.54
                             2013.60  2019.88  2102.75  2107.52  2107.99
                             2117.95  2135.88  2136.00  2138.87  2138.87
                             2140.21  2142.89  2155.97  2155.98  2174.23
                             2175.24  2298.03  4299.72  4299.74  4307.12
                             4308.06  4330.81  4331.15  4381.66  4381.75
                             4386.00  4386.14  4409.34  4409.66  4427.03
                             4427.09  4462.01  4462.01  4469.52  4469.54
                             4520.04  4525.15

 Zero-point correction=                           0.303862 (Hartree/Particle)
 Thermal correction to Energy=                    0.320999
 Thermal correction to Enthalpy=                  0.321943
 Thermal correction to Gibbs Free Energy=         0.260187
 Sum of electronic and zero-point Energies=           -696.098334
 Sum of electronic and thermal Energies=              -696.081197
 Sum of electronic and thermal Enthalpies=            -696.080253
 Sum of electronic and thermal Free Energies=         -696.142010

                     E (Thermal)             CV                S
                      KCal/Mol        Cal/Mol-Kelvin    Cal/Mol-Kelvin
 Total                  201.430             67.674            129.978
 Electronic               0.000              0.000              0.000
 Translational            0.889              2.981             42.070
 Rotational               0.889              2.981             32.575
 Vibrational            199.652             61.713             55.333
 Vibration     1          0.593              1.985              6.403
 Vibration     2          0.595              1.980              5.047
 Vibration     3          0.596              1.974              4.497
 Vibration     4          0.620              1.898              2.621
 Vibration     5          0.622              1.892              2.553
 Vibration     6          0.625              1.880              2.441
 Vibration     7          0.643              1.823              2.030
 Vibration     8          0.653              1.792              1.862
 Vibration     9          0.655              1.786              1.835
 Vibration    10          0.660              1.772              1.768
 Vibration    11          0.668              1.747              1.666
 Vibration    12          0.671              1.738              1.632
 Vibration    13          0.691              1.678              1.429
 Vibration    14          0.693              1.673              1.415
 Vibration    15          0.694              1.671              1.408
 Vibration    16          0.705              1.639              1.319
 Vibration    17          0.714              1.611              1.249
 Vibration    18          0.715              1.608              1.242
 Vibration    19          0.715              1.608              1.241
 Vibration    20          0.750              1.513              1.040
 Vibration    21          0.762              1.481              0.981
 Vibration    22          0.764              1.475              0.972
 Vibration    23          0.775              1.448              0.925
 Vibration    24          0.810              1.359              0.793
 Vibration    25          0.839              1.288              0.703
 Vibration    26          0.866              1.227              0.632
 Vibration    27          0.868              1.222              0.628
 Vibration    28          0.882              1.190              0.594
 Vibration    29          0.976              0.997              0.422

 Optimization completed.
    -- Stationary point found.
 Normal termination of Gaussian 16 at Sat Feb 10 13:40:02 2024.
