 Q-Chem 5.4, Q-Chem, Inc., Pleasanton, CA (2021)
 Q-Chem 5.4.0 for Intel X86 EM64T Linux

User input:
--------------------------------------------------------------
$molecule
-2 1
O                  1.5659850000     -3.1279110000      0.0839440000
C                  1.3024980000     -1.8720570000      0.0447450000
C                  2.3612350000     -0.8756700000     -0.0057190000
C                  3.7133440000     -1.2937170000     -0.0120370000
C                  4.7579490000     -0.3906360000     -0.0591310000
C                  4.4755780000      0.9986620000     -0.1026820000
C                  3.1629850000      1.4312310000     -0.0974410000
C                  2.0718820000      0.5293400000     -0.0496130000
C                  0.7128130000      1.0725000000     -0.0474730000
O                  0.5495940000      2.3495700000     -0.0889930000
C                 -0.3454670000      0.0986870000      0.0020600000
C                 -1.7528910000      0.4863610000      0.0100760000
C                 -2.1884240000      1.8410340000     -0.0298920000
C                 -3.5386410000      2.1863160000     -0.0213000000
C                 -4.5330870000      1.2026810000      0.0275320000
C                 -4.1439960000     -0.1343950000      0.0675710000
C                 -2.7873510000     -0.5178290000      0.0602430000
C                 -2.4148960000     -1.9040760000      0.1022480000
C                 -1.0965840000     -2.2669850000      0.0947240000
C                 -0.0325300000     -1.3315820000      0.0464250000
H                  3.8866170000     -2.3649320000      0.0221820000
H                  5.7890870000     -0.7405200000     -0.0628900000
H                  5.2900850000      1.7204480000     -0.1400760000
H                  2.9111470000      2.4862950000     -0.1299800000
H                 -1.4112680000      2.5928910000     -0.0675290000
H                 -3.8172400000      3.2382920000     -0.0532450000
H                 -5.5873250000      1.4725910000      0.0341880000
H                 -4.8973960000     -0.9201310000      0.1059140000
H                 -3.2028540000     -2.6549630000      0.1399580000
H                 -0.8008470000     -3.3114950000      0.1261880000
$end
$rem
MAX_SCF_CYCLES=200
BASIS  =  6-311++G(d,p)
GUI  =  2
JOB_TYPE  =  SP
METHOD  =  B3LYP
SOLVENT_METHOD = COSMO
$end
$solvent
dielectric 37.219
opticaldielectric 1.43
$end

--------------------------------------------------------------

             Standard Nuclear Orientation (Angstroms)
    I     Atom           X                Y                Z
 ----------------------------------------------------------------
    1      O      -1.8179592757    -2.8656097330    -0.0001236872
    2      C      -1.4075452821    -1.6491839918    -0.0001213077
    3      C      -2.3408632967    -0.5333098126    -0.0000576346
    4      C      -3.7330573977    -0.7878634041     0.0000576358
    5      C      -4.6633955094     0.2336275294     0.0001766601
    6      C      -4.2184223310     1.5803932372     0.0002273157
    7      C      -2.8637479070     1.8540736662     0.0000877996
    8      C      -1.8870946300     0.8282330393    -0.0000981921
    9      C      -0.4731682334     1.2062648352    -0.0002340479
   10      O      -0.1598099107     2.4556961836    -0.0001672301
   11      C       0.4623684186     0.1128788095    -0.0001504508
   12      C       1.9058914280     0.3306838094    -0.0000766937
   13      C       2.4988566412     1.6248312615    -0.0000858313
   14      C       3.8805501318     1.8073210416    -0.0000005388
   15      C       4.7515340866     0.7117699692     0.0001500743
   16      C       4.2067708945    -0.5704157508     0.0001898331
   17      C       2.8141753989    -0.7900489805     0.0000553453
   18      C       2.2801076224    -2.1230679233     0.0000741493
   19      C       0.9280081190    -2.3268644186     0.0000130546
   20      C      -0.0178122033    -1.2709541991    -0.0000709386
   21      H      -4.0320150791    -1.8315685126     0.0000561730
   22      H      -5.7287842182     0.0086266219     0.0002745191
   23      H      -4.9417447494     2.3943954778     0.0003870617
   24      H      -2.4886875887     2.8723913775     0.0001610381
   25      H       1.8161891383     2.4642608399    -0.0001488676
   26      H       4.2818197555     2.8193853081    -0.0000075659
   27      H       5.8303857247     0.8545726385     0.0002583038
   28      H       4.8618338840    -1.4406773559     0.0003507386
   29      H       2.9736159952    -2.9628162564     0.0001952308
   30      H       0.5106049261    -3.3294740486    -0.0000166875
 ----------------------------------------------------------------

   11    -842.6202719024      5.73e-06  Convergence criterion met
 Total energy in the final basis set =     -842.6202719024
    6    -842.8829980403      2.86e-06  Convergence criterion met
 Total energy in the final basis set =     -842.8829980403

                    Orbital Energies (a.u.)
 --------------------------------------------------------------

 Alpha MOs
 -- Occupied --
-19.0309 -19.0280 -10.1839 -10.1837 -10.1666 -10.1649 -10.1571 -10.1563
-10.1552 -10.1551 -10.1547 -10.1511 -10.1499 -10.1483 -10.1463 -10.1457
-10.1449 -10.1436 -10.1434 -10.1373  -0.9512  -0.9475  -0.8486  -0.8318
 -0.7990  -0.7592  -0.7382  -0.7281  -0.7210  -0.6937  -0.6454  -0.6131
 -0.6021  -0.5833  -0.5672  -0.5319  -0.5250  -0.4913  -0.4767  -0.4702
 -0.4452  -0.4388  -0.4298  -0.4114  -0.4054  -0.4036  -0.3916  -0.3910
 -0.3777  -0.3742  -0.3692  -0.3646  -0.3532  -0.3371  -0.3327  -0.3261
 -0.3189  -0.3165  -0.3045  -0.2969  -0.2583  -0.2362  -0.2325  -0.2283
 -0.2110  -0.1996  -0.1990  -0.1178

          Ground-State Mulliken Net Atomic Charges

     Atom                 Charge (a.u.)
  ----------------------------------------
      1 O                    -0.675589
      2 C                    -0.605783
      3 C                     0.193467
      4 C                    -0.102789
      5 C                    -0.530915
      6 C                    -0.523698
      7 C                    -0.038951
      8 C                     0.199078
      9 C                    -0.464664
     10 O                    -0.638001
     11 C                     0.506188
     12 C                     0.823961
     13 C                    -0.597402
     14 C                    -0.584651
     15 C                    -0.380503
     16 C                    -0.461144
     17 C                     0.403689
     18 C                    -0.542324
     19 C                    -0.260129
     20 C                     0.585391
     21 H                     0.159070
     22 H                     0.184661
     23 H                     0.185451
     24 H                     0.156082
     25 H                     0.155623
     26 H                     0.193525
     27 H                     0.185296
     28 H                     0.155655
     29 H                     0.167073
     30 H                     0.152334
  ----------------------------------------
  Sum of atomic charges =    -2.000000

                    Cartesian Multipole Moments
 -----------------------------------------------------------------
    Charge (ESU x 10^10)
                -9.6064
    Dipole Moment (Debye)
         X       5.4070      Y       1.7884      Z       0.0060
       Tot       5.6951
    Quadrupole Moments (Debye-Ang)
        XX    -153.3964     XY     -16.0951     YY    -170.8432
        XZ      -0.0020     YZ      -0.0025     ZZ    -130.4825

 Total job time:  103.00s(wall), 788.34s(cpu)
        *  Thank you very much for using Q-Chem.  Have a nice day.  *
