 Gaussian 16, Revision A.03,
 Gaussian 16:  ES64L-G16RevA.03 25-Dec-2016

 ----------------------------------------------------------------
 #P UB3LYP/6-311++G(d,p) SCRF=(PCM,Solvent=n,n-DiMethylFormamide)
 ----------------------------------------------------------------

 ------------------
 Radical PCM in DMF
 ------------------
 Symbolic Z-matrix:
 Charge = -1 Multiplicity = 2

                         Standard orientation:
 ---------------------------------------------------------------------
 Center     Atomic      Atomic             Coordinates (Angstroms)
 Number     Number       Type             X           Y           Z
 ---------------------------------------------------------------------
      1          6           0        1.084780   -1.071788   -0.000069
      2          6           0        2.243675   -0.314659   -0.000005
      3          6           0        2.176272    1.092243    0.000087
      4          6           0        0.930499    1.708554    0.000051
      5          6           0       -0.259152    0.974092   -0.000060
      6          6           0       -0.178224   -0.450478   -0.000092
      7          6           0       -1.388848   -1.249163   -0.000080
      8          6           0       -2.638560   -0.524587    0.000051
      9          6           0       -2.733225    0.846921    0.000045
     10          6           0       -1.563726    1.680962   -0.000130
     11          8           0       -1.428216   -2.524129   -0.000069
     12          8           0       -1.622467    2.935858   -0.000051
     13          8           0       -3.739984   -1.325595    0.000164
     14          8           0        3.434862   -1.021301   -0.000032
     15          6           0        4.643627   -0.292861    0.000065
     16          1           0        1.139516   -2.153550   -0.000067
     17          1           0        3.072913    1.698729    0.000203
     18          1           0        0.849194    2.789906    0.000108
     19          1           0       -3.703884    1.330427    0.000101
     20          1           0       -3.341155   -2.223144    0.000116
     21          1           0        5.443802   -1.034563    0.000009
     22          1           0        4.741677    0.338971    0.892238
     23          1           0        4.741669    0.339138   -0.891990
 ---------------------------------------------------------------------

 SCF Done:  E(UB3LYP) =  -725.228639907     A.U. after   20 cycles

 The electronic state is 2-A.
 Alpha  occ. eigenvalues --  -19.15637 -19.14679 -19.08733 -19.07526 -10.23743
 Alpha  occ. eigenvalues --  -10.22765 -10.22711 -10.22139 -10.21954 -10.18006
 Alpha  occ. eigenvalues --  -10.17558 -10.17494 -10.17048 -10.16921 -10.15557
 Alpha  occ. eigenvalues --   -1.06800  -1.06652  -1.00096  -0.99709  -0.86139
 Alpha  occ. eigenvalues --   -0.80297  -0.76234  -0.74367  -0.70151  -0.67224
 Alpha  occ. eigenvalues --   -0.62733  -0.60315  -0.57621  -0.54452  -0.52516
 Alpha  occ. eigenvalues --   -0.48921  -0.48416  -0.48091  -0.46960  -0.43811
 Alpha  occ. eigenvalues --   -0.43469  -0.42825  -0.42177  -0.41329  -0.40774
 Alpha  occ. eigenvalues --   -0.39045  -0.38799  -0.37586  -0.36333  -0.35602
 Alpha  occ. eigenvalues --   -0.35431  -0.33228  -0.31646  -0.26826  -0.26112
 Alpha  occ. eigenvalues --   -0.24813  -0.24146  -0.22745  -0.15278
 Alpha virt. eigenvalues --   -0.03396  -0.00497  -0.00377   0.00514   0.01285
 Alpha virt. eigenvalues --    0.02394   0.02461   0.03501   0.04110   0.04802
 Alpha virt. eigenvalues --    0.04861   0.05322   0.05906   0.06381   0.06696

  Beta  occ. eigenvalues --  -19.15627 -19.14626 -19.08062 -19.07039 -10.23752
  Beta  occ. eigenvalues --  -10.22659 -10.22590 -10.21954 -10.21827 -10.18003
  Beta  occ. eigenvalues --  -10.17581 -10.17433 -10.16967 -10.16828 -10.15460
  Beta  occ. eigenvalues --   -1.06780  -1.06423  -0.99249  -0.98561  -0.85933
  Beta  occ. eigenvalues --   -0.79836  -0.76066  -0.74193  -0.69948  -0.66339
  Beta  occ. eigenvalues --   -0.62571  -0.60056  -0.57382  -0.54336  -0.52330
  Beta  occ. eigenvalues --   -0.48634  -0.48268  -0.47935  -0.46916  -0.43640
  Beta  occ. eigenvalues --   -0.42781  -0.42057  -0.41976  -0.40970  -0.40412
  Beta  occ. eigenvalues --   -0.38639  -0.38375  -0.36211  -0.36110  -0.35190
  Beta  occ. eigenvalues --   -0.33980  -0.33173  -0.30840  -0.25512  -0.25311
  Beta  occ. eigenvalues --   -0.23676  -0.23333  -0.22245
  Beta virt. eigenvalues --   -0.08624  -0.02647  -0.00360   0.00532   0.00540
  Beta virt. eigenvalues --    0.01298   0.02403   0.02476   0.03556   0.04118
  Beta virt. eigenvalues --    0.04821   0.05357   0.05991   0.06258   0.06406

 Mulliken charges and spin densities:
               1          2
     1  C   -0.253216   0.097657
     2  C   -0.499643  -0.013998
     3  C    0.113127   0.057965
     4  C    0.077685  -0.014336
     5  C    0.380689   0.049919
     6  C    0.739944   0.002258
     7  C   -0.853666   0.175744
     8  C   -0.371293   0.093522
     9  C    0.600394   0.080640
    10  C   -0.636217   0.050079
    11  O   -0.511804   0.246951
    12  O   -0.493319   0.174161
    13  O   -0.289544   0.017665
    14  O   -0.215184   0.002793
    15  C   -0.339220   0.000602
    16  H    0.184304  -0.006764
    17  H    0.224534  -0.003744
    18  H    0.164001  -0.000212
    19  H    0.193692  -0.007483
    20  H    0.284011  -0.003372
    21  H    0.184369   0.000011
    22  H    0.158182  -0.000029
    23  H    0.158173  -0.000029
 Sum of Mulliken charges =  -1.00000   1.00000

 Dipole moment (field-independent basis, Debye):
    X=             10.0444    Y=             -0.4795    Z=              0.0004  Tot=             10.0559
 Quadrupole moment (field-independent basis, Debye-Ang):
   XX=            -98.3252   YY=           -124.6398   ZZ=            -91.9517
   XY=              9.5462   XZ=              0.0014   YZ=              0.0002

 Normal termination of Gaussian 16 at Thu Jan 25 05:45:37 2024.
