 Q-Chem 5.4, Q-Chem, Inc., Pleasanton, CA (2021)
 Q-Chem 5.4.0 for Intel X86 EM64T Linux

User input:
--------------------------------------------------------------
$molecule
-2 1
C                 -0.5489840000     -2.0416460000      2.1022620000
C                  0.8165940000     -2.4256230000      1.9514670000
C                  1.8441150000     -1.5148100000      1.7148000000
C                  1.5977080000     -0.0877370000      1.6956080000
C                  0.2353640000      0.2975750000      1.8833410000
C                 -0.8007710000     -0.6193080000      2.0463730000
O                 -1.5222080000     -2.8812400000      2.2967050000
O                  2.5773850000      0.7514720000      1.5540440000
N                 -2.1705210000     -0.2408120000      2.2542730000
N                  3.2295070000     -1.8876100000      1.6098970000
C                 -2.9631610000      0.2871330000      1.1051030000
C                 -4.4410200000      0.1906880000      1.5224290000
C                 -2.6164420000      1.7617560000      0.8432390000
C                 -2.7473460000     -0.5305870000     -0.1880920000
C                  3.7280680000     -2.5114060000      0.3610140000
C                  3.2260840000     -3.9606240000      0.2411960000
C                  5.2645890000     -2.5249100000      0.4662440000
C                  3.3035320000     -1.7142230000     -0.8944630000
H                  1.0361190000     -3.4863610000      2.0332300000
H                  0.0354630000      1.3639130000      1.9375060000
H                 -2.5990180000     -1.1349070000      2.5143890000
H                  3.7021790000     -0.9816190000      1.6936120000
H                 -4.7266590000     -0.8533020000      1.6906010000
H                 -5.1010700000      0.6009880000      0.7486020000
H                 -4.6084940000      0.7447150000      2.4519650000
H                 -2.7511610000      2.3493690000      1.7570620000
H                 -3.2629790000      2.1760810000      0.0587700000
H                 -1.5784140000      1.8646100000      0.5223290000
H                 -2.9619590000     -1.5870870000     -0.0049210000
H                 -1.7061810000     -0.4568450000     -0.5121320000
H                 -3.3947830000     -0.1665990000     -0.9977990000
H                  2.1404510000     -3.9875350000      0.1349940000
H                  3.4953040000     -4.5279440000      1.1375870000
H                  3.6743910000     -4.4495320000     -0.6329790000
H                  5.5799800000     -3.0930130000      1.3474270000
H                  5.6538950000     -1.5054810000      0.5647950000
H                  5.7208620000     -2.9774220000     -0.4217870000
H                  2.2130290000     -1.6555780000     -0.9408840000
H                  3.6728470000     -2.1846980000     -1.8153380000
H                  3.6797840000     -0.6893410000     -0.8363000000
$end
$rem
MAX_SCF_CYCLES=200
BASIS  =  6-311++G(d,p)
GUI  =  2
JOB_TYPE  =  SP
METHOD  =  B3LYP
SOLVENT_METHOD = COSMO
$end
$solvent
dielectric 37.219
opticaldielectric 1.43
$end

--------------------------------------------------------------

             Standard Nuclear Orientation (Angstroms)
    I     Atom           X                Y                Z
 ----------------------------------------------------------------
    1      C       0.6951976447    -1.3093377504    -0.7292862677
    2      C      -0.7272261528    -1.2019166064    -0.7416143161
    3      C      -1.4011995990     0.0169274656    -0.7019921345
    4      C      -0.6860665093     1.2759035759    -0.7364291459
    5      C       0.7377380913     1.1670019159    -0.7611491512
    6      C       1.4098192924    -0.0528054888    -0.7264164370
    7      O       1.3382629360    -2.4390576617    -0.7388294485
    8      O      -1.3296415298     2.4019538964    -0.7800296605
    9      N       2.8403677175    -0.1726285935    -0.7696636508
   10      N      -2.8334105259     0.1366663919    -0.7630652331
   11      C       3.6380368613     0.1785043410     0.4419573216
   12      C       5.0298111181    -0.4441569688     0.2351067391
   13      C       3.7895813806     1.7034155003     0.5643502404
   14      C       3.0192767644    -0.3839069618     1.7413513687
   15      C      -3.6452958639    -0.1548103341     0.4424540675
   16      C      -3.6839398148    -1.6679910088     0.7169863820
   17      C      -5.0735658617     0.3303353622     0.1312773314
   18      C      -3.1108466201     0.5816655872     1.6930224469
   19      H      -1.2855387100    -2.1326182884    -0.7876901890
   20      H       1.2941540281     2.0954568451    -0.8524932095
   21      H       2.9631452557    -1.1799060450    -0.9145556565
   22      H      -2.9566574007     1.1343233332    -0.9649006817
   23      H       4.9581980117    -1.5352749552     0.1709219842
   24      H       5.7035956648    -0.1981276665     1.0647477973
   25      H       5.4745849571    -0.0756385395    -0.6951625941
   26      H       4.2135514559     2.1158980621    -0.3568545325
   27      H       4.4509837527     1.9587892510     1.4024421563
   28      H       2.8210345278     2.1765600543     0.7349829660
   29      H       2.8786673318    -1.4647911585     1.6534824567
   30      H       2.0375298933     0.0632917780     1.9164248665
   31      H       3.6616435367    -0.1734477768     2.6075841436
   32      H      -2.6906353208    -2.0416840467     0.9705643245
   33      H      -4.0332441244    -2.2033017941    -0.1714262914
   34      H      -4.3628345702    -1.8881626861     1.5505441022
   35      H      -5.4678791462    -0.1888596151    -0.7482961961
   36      H      -5.0786583146     1.4052703017    -0.0808450156
   37      H      -5.7489574271     0.1483662383     0.9752469333
   38      H      -2.0774081178     0.2804551453     1.8829384019
   39      H      -3.7146702401     0.3574428188     2.5823324302
   40      H      -3.1062010231     1.6615525030     1.5222761919
 ----------------------------------------------------------------

   19    -806.8838718997      3.43e-06  Convergence criterion met
 Total energy in the final basis set =     -806.8838718997
    5    -807.1648607053      6.15e-06  Convergence criterion met
 Total energy in the final basis set =     -807.1648607053

                    Orbital Energies (a.u.)
 --------------------------------------------------------------

 Alpha MOs
 -- Occupied --
-19.0172 -19.0170 -14.2716 -14.2709 -10.1915 -10.1909 -10.1607 -10.1601
-10.1438 -10.1436 -10.1435 -10.1434 -10.1398 -10.1395 -10.1376 -10.1368
-10.1126 -10.1123  -0.9365  -0.9321  -0.8809  -0.8795  -0.7790  -0.7651
 -0.7369  -0.6814  -0.6733  -0.6699  -0.6696  -0.6650  -0.6239  -0.5667
 -0.5346  -0.5308  -0.5044  -0.4675  -0.4507  -0.4503  -0.4400  -0.4287
 -0.4282  -0.4179  -0.4049  -0.3971  -0.3901  -0.3811  -0.3781  -0.3720
 -0.3661  -0.3594  -0.3577  -0.3519  -0.3498  -0.3491  -0.3441  -0.3350
 -0.3235  -0.3210  -0.3104  -0.3097  -0.3082  -0.3071  -0.2539  -0.2426
 -0.2039  -0.2033  -0.1964  -0.1753  -0.1088

          Ground-State Mulliken Net Atomic Charges

     Atom                 Charge (a.u.)
  ----------------------------------------
      1 C                    -0.263057
      2 C                    -0.240685
      3 C                     0.078084
      4 C                    -0.322367
      5 C                    -0.249854
      6 C                     0.141502
      7 O                    -0.762316
      8 O                    -0.757864
      9 N                     0.034186
     10 N                     0.058708
     11 C                     0.026476
     12 C                    -0.504460
     13 C                    -0.582983
     14 C                    -0.515864
     15 C                    -0.017253
     16 C                    -0.576005
     17 C                    -0.488748
     18 C                    -0.492645
     19 H                     0.151931
     20 H                     0.149056
     21 H                     0.234910
     22 H                     0.233293
     23 H                     0.151247
     24 H                     0.146990
     25 H                     0.146330
     26 H                     0.153239
     27 H                     0.141149
     28 H                     0.137601
     29 H                     0.156828
     30 H                     0.148475
     31 H                     0.156198
     32 H                     0.143106
     33 H                     0.151133
     34 H                     0.141596
     35 H                     0.147380
     36 H                     0.147406
     37 H                     0.147519
     38 H                     0.140769
     39 H                     0.152962
     40 H                     0.156025
  ----------------------------------------
  Sum of atomic charges =    -2.000000

                    Cartesian Multipole Moments
 -----------------------------------------------------------------
    Charge (ESU x 10^10)
                -9.6064
    Dipole Moment (Debye)
         X      -0.0324      Y       0.2664      Z       9.8284
       Tot       9.8321
    Quadrupole Moments (Debye-Ang)
        XX    -145.3243     XY      19.5891     YY    -169.1472
        XZ       0.2169     YZ      -0.0112     ZZ    -133.7959

 Total job time:  175.71s(wall), 1361.72s(cpu)
        *  Thank you very much for using Q-Chem.  Have a nice day.  *
