 Q-Chem 5.4, Q-Chem, Inc., Pleasanton, CA (2021)
 Q-Chem 5.4.0 for Intel X86 EM64T Linux

User input:
--------------------------------------------------------------
$molecule
-2 1
C                 -3.4874090000      0.1755940000      0.3745650000
O                 -2.6831290000      0.6385170000     -0.6989950000
C                 -1.3379860000      0.2874330000     -0.5851130000
C                 -0.3802750000      1.3079950000     -0.5223250000
Cl                -0.9552760000      3.0084140000     -0.5128490000
C                  1.0362420000      1.1183150000     -0.4858290000
O                  1.9179520000      2.0610070000     -0.4590090000
C                  1.3828240000     -0.2779320000     -0.4686680000
C                  0.4241960000     -1.2987050000     -0.5108010000
Cl                 0.9975140000     -2.9994630000     -0.4822080000
C                 -0.9900730000     -1.1085590000     -0.5975040000
O                 -1.8698210000     -2.0508350000     -0.6676500000
O                  2.7330870000     -0.6278600000     -0.4680870000
C                  3.4372450000     -0.1862240000      0.6820490000
H                 -3.2028770000      0.6723020000      1.3167920000
H                 -4.5223120000      0.4479330000      0.1314810000
H                 -3.3932330000     -0.9105460000      0.4738660000
H                  3.3329070000      0.8978020000      0.7936650000
H                  3.0702280000     -0.7012860000      1.5851060000
H                  4.4901960000     -0.4539020000      0.5274210000
$end

$rem
BASIS  =  6-311++G(d,p)
GUI  =  2
JOB_TYPE  =  SP
METHOD  =  B3LYP
SCF_CONVERGENCE  = 8
SOLVENT_METHOD = sm12
$end

$smx
solvent dimethylformamide
charges CM5
$end

--------------------------------------------------------------

             Standard Nuclear Orientation (Angstroms)
    I     Atom           X                Y                Z
 ----------------------------------------------------------------
    1      C      -3.4874090000     0.1755940000     0.3745650000
    2      O      -2.6831290000     0.6385170000    -0.6989950000
    3      C      -1.3379860000     0.2874330000    -0.5851130000
    4      C      -0.3802750000     1.3079950000    -0.5223250000
    5      Cl     -0.9552760000     3.0084140000    -0.5128490000
    6      C       1.0362420000     1.1183150000    -0.4858290000
    7      O       1.9179520000     2.0610070000    -0.4590090000
    8      C       1.3828240000    -0.2779320000    -0.4686680000
    9      C       0.4241960000    -1.2987050000    -0.5108010000
   10      Cl      0.9975140000    -2.9994630000    -0.4822080000
   11      C      -0.9900730000    -1.1085590000    -0.5975040000
   12      O      -1.8698210000    -2.0508350000    -0.6676500000
   13      O       2.7330870000    -0.6278600000    -0.4680870000
   14      C       3.4372450000    -0.1862240000     0.6820490000
   15      H      -3.2028770000     0.6723020000     1.3167920000
   16      H      -4.5223120000     0.4479330000     0.1314810000
   17      H      -3.3932330000    -0.9105460000     0.4738660000
   18      H       3.3329070000     0.8978020000     0.7936650000
   19      H       3.0702280000    -0.7012860000     1.5851060000
   20      H       4.4901960000    -0.4539020000     0.5274210000
 ----------------------------------------------------------------

   16   -1529.9132088637      6.95e-09  Convergence criterion met
 Total energy in the final basis set =    -1530.1704106401

                    Orbital Energies (a.u.)
 --------------------------------------------------------------

 Alpha MOs
 -- Occupied --
********-101.5194 -19.1174 -19.1174 -19.0102 -19.0101 -10.2017 -10.2017
-10.1846 -10.1846 -10.1803 -10.1802 -10.1784 -10.1784  -9.4325  -9.4325
 -7.1967  -7.1966  -7.1880  -7.1880  -7.1872  -7.1871  -1.0292  -1.0286
 -0.9267  -0.9246  -0.8309  -0.8215  -0.7637  -0.7127  -0.6815  -0.6497
 -0.6311  -0.5519  -0.5400  -0.4868  -0.4789  -0.4623  -0.4441  -0.4398
 -0.4310  -0.4101  -0.3955  -0.3855  -0.3683  -0.3535  -0.3396  -0.3378
 -0.3291  -0.3285  -0.2977  -0.2934  -0.2797  -0.2785  -0.2647  -0.2553
 -0.2153  -0.1958  -0.1910  -0.1866  -0.1166

          Ground-State Mulliken Net Atomic Charges

     Atom                 Charge (a.u.)
  ----------------------------------------
      1 C                     0.107459
      2 O                    -0.014395
      3 C                    -2.261869
      4 C                     2.311363
      5 Cl                    0.626654
      6 C                    -1.727690
      7 O                    -0.423906
      8 C                    -2.265346
      9 C                     2.311781
     10 Cl                    0.626225
     11 C                    -1.729970
     12 O                    -0.423758
     13 O                    -0.014256
     14 C                     0.106223
     15 H                     0.049407
     16 H                     0.241368
     17 H                     0.094872
     18 H                     0.094955
     19 H                     0.049786
     20 H                     0.241097
  ----------------------------------------
  Sum of atomic charges =    -2.000000

                    Cartesian Multipole Moments
 -----------------------------------------------------------------
    Charge (ESU x 10^10)
                -9.6064
    Dipole Moment (Debye)
         X      -0.2870      Y      -0.0597      Z       6.6040
       Tot       6.6105
    Quadrupole Moments (Debye-Ang)
        XX    -138.5987     XY     -12.1000     YY    -155.8489
        XZ      -1.4687     YZ      -0.9905     ZZ    -108.6116

 Total job time:  308.54s(wall), 2145.09s(cpu)
        *  Thank you very much for using Q-Chem.  Have a nice day.  *
