 Q-Chem 5.4, Q-Chem, Inc., Pleasanton, CA (2021)
 Q-Chem 5.4.0 for Intel X86 EM64T Linux

User input:
--------------------------------------------------------------
$molecule
-1 2
C                 -4.6719690000      0.2882570000     -0.0832530000
C                 -3.2078340000     -0.0797270000     -0.0289460000
C                 -2.8304750000     -1.4379350000     -0.0618450000
C                 -1.4956010000     -1.8092540000     -0.0140060000
O                 -1.1819560000     -3.1237890000     -0.0481880000
C                 -0.4700470000     -0.8144190000      0.0701280000
C                  0.9168040000     -1.1970500000      0.1198140000
O                  1.2609670000     -2.4534780000      0.0891680000
C                  1.9172220000     -0.1629160000      0.2040920000
C                  3.3059750000     -0.5031890000      0.2552020000
O                  3.7050030000     -1.7945440000      0.2257740000
C                  4.2689250000      0.4941880000      0.3362010000
C                  3.8832210000      1.8441130000      0.3684670000
C                  2.5480270000      2.2022410000      0.3205580000
C                  1.5479800000      1.2149910000      0.2381790000
C                  0.1392960000      1.6258330000      0.1887570000
O                 -0.1926240000      2.8327370000      0.2183910000
C                 -0.8601380000      0.5550630000      0.1029360000
C                 -2.2262800000      0.8940190000      0.0525050000
H                 -5.1423630000     -0.0809140000     -1.0021820000
H                 -5.2246560000     -0.1484680000      0.7568490000
H                 -4.8068410000      1.3717250000     -0.0480070000
H                 -3.5773750000     -2.2230570000     -0.1254010000
H                 -0.1844020000     -3.1616070000     -0.0035460000
H                  2.8648130000     -2.3324900000      0.1673460000
H                  5.3125110000      0.2023590000      0.3732330000
H                  4.6484370000      2.6122270000      0.4319280000
H                  2.2334340000      3.2379440000      0.3444610000
H                 -2.4800570000      1.9471380000      0.0798770000
$end

$rem
BASIS  =  6-311++G(d,p)
GUI  =  2
JOB_TYPE  =  SP
METHOD  =  B3LYP
SCF_CONVERGENCE  = 8
SOLVENT_METHOD = sm12
$end

$smx
solvent dimethylformamide
charges CM5
$end

--------------------------------------------------------------

             Standard Nuclear Orientation (Angstroms)
    I     Atom           X                Y                Z
 ----------------------------------------------------------------
    1      C      -4.6719690000     0.2882570000    -0.0832530000
    2      C      -3.2078340000    -0.0797270000    -0.0289460000
    3      C      -2.8304750000    -1.4379350000    -0.0618450000
    4      C      -1.4956010000    -1.8092540000    -0.0140060000
    5      O      -1.1819560000    -3.1237890000    -0.0481880000
    6      C      -0.4700470000    -0.8144190000     0.0701280000
    7      C       0.9168040000    -1.1970500000     0.1198140000
    8      O       1.2609670000    -2.4534780000     0.0891680000
    9      C       1.9172220000    -0.1629160000     0.2040920000
   10      C       3.3059750000    -0.5031890000     0.2552020000
   11      O       3.7050030000    -1.7945440000     0.2257740000
   12      C       4.2689250000     0.4941880000     0.3362010000
   13      C       3.8832210000     1.8441130000     0.3684670000
   14      C       2.5480270000     2.2022410000     0.3205580000
   15      C       1.5479800000     1.2149910000     0.2381790000
   16      C       0.1392960000     1.6258330000     0.1887570000
   17      O      -0.1926240000     2.8327370000     0.2183910000
   18      C      -0.8601380000     0.5550630000     0.1029360000
   19      C      -2.2262800000     0.8940190000     0.0525050000
   20      H      -5.1423630000    -0.0809140000    -1.0021820000
   21      H      -5.2246560000    -0.1484680000     0.7568490000
   22      H      -4.8068410000     1.3717250000    -0.0480070000
   23      H      -3.5773750000    -2.2230570000    -0.1254010000
   24      H      -0.1844020000    -3.1616070000    -0.0035460000
   25      H       2.8648130000    -2.3324900000     0.1673460000
   26      H       5.3125110000     0.2023590000     0.3732330000
   27      H       4.6484370000     2.6122270000     0.4319280000
   28      H       2.2334340000     3.2379440000     0.3444610000
   29      H      -2.4800570000     1.9471380000     0.0798770000
 ----------------------------------------------------------------

   18    -878.8747624558      5.40e-09  Convergence criterion met
 Total energy in the final basis set =     -878.9618801049

                    Orbital Energies (a.u.)
 --------------------------------------------------------------

 Alpha MOs
 -- Occupied --
-19.1391 -19.1383 -19.1076 -19.0824 -10.2464 -10.2453 -10.2443 -10.2328
-10.1917 -10.1870 -10.1854 -10.1849 -10.1848 -10.1839 -10.1754 -10.1725
-10.1711 -10.1710 -10.1680  -1.0663  -1.0572  -1.0130  -1.0095  -0.8703
 -0.8570  -0.8054  -0.7644  -0.7544  -0.7483  -0.7089  -0.6750  -0.6470
 -0.6255  -0.5992  -0.5903  -0.5434  -0.5319  -0.5207  -0.5076  -0.4839
 -0.4765  -0.4740  -0.4478  -0.4451  -0.4339  -0.4271  -0.4252  -0.4150
 -0.4088  -0.4065  -0.3980  -0.3976  -0.3809  -0.3774  -0.3707  -0.3661
 -0.3577  -0.3493  -0.3400  -0.3261  -0.2795  -0.2720  -0.2560  -0.2448
 -0.2415  -0.2326  -0.1525

 Beta MOs
 -- Occupied --
-19.1388 -19.1381 -19.1031 -19.0767 -10.2451 -10.2441 -10.2435 -10.2317
-10.1910 -10.1870 -10.1851 -10.1847 -10.1837 -10.1828 -10.1747 -10.1724
-10.1710 -10.1705 -10.1678  -1.0645  -1.0567  -1.0058  -0.9998  -0.8676
 -0.8556  -0.8020  -0.7628  -0.7511  -0.7465  -0.7068  -0.6694  -0.6451
 -0.6236  -0.5980  -0.5885  -0.5410  -0.5306  -0.5194  -0.5058  -0.4826
 -0.4752  -0.4724  -0.4440  -0.4395  -0.4320  -0.4246  -0.4227  -0.4111
 -0.4068  -0.4058  -0.3965  -0.3833  -0.3802  -0.3702  -0.3654  -0.3615
 -0.3565  -0.3478  -0.3355  -0.3153  -0.2686  -0.2631  -0.2509  -0.2397
 -0.2300  -0.2281

          Ground-State Mulliken Net Atomic Charges

     Atom                 Charge (a.u.)    Spin (a.u.)
  --------------------------------------------------------
      1 C                     1.741145      -0.002250
      2 C                     1.740386       0.053418
      3 C                     0.472201       0.042240
      4 C                     0.012899       0.034531
      5 O                    -0.315420       0.007969
      6 C                    -1.236916      -0.040881
      7 C                    -1.451015       0.157650
      8 O                    -0.417615       0.157401
      9 C                    -0.505561      -0.017518
     10 C                    -0.239187       0.032593
     11 O                    -0.313095       0.008706
     12 C                     0.890984       0.047749
     13 C                     0.884428       0.054367
     14 C                    -0.368220       0.034296
     15 C                    -0.678913       0.061855
     16 C                    -1.590427       0.055321
     17 O                    -0.307475       0.212958
     18 C                    -1.361649       0.081262
     19 C                    -0.561389       0.033405
     20 H                     0.244141       0.003459
     21 H                     0.243959       0.003448
     22 H                     0.304969       0.000224
     23 H                     0.227031      -0.003792
     24 H                     0.387597      -0.002338
     25 H                     0.388823      -0.002229
     26 H                     0.276830      -0.004455
     27 H                     0.365711      -0.003858
     28 H                     0.144966      -0.002400
     29 H                     0.020812      -0.003130
  --------------------------------------------------------
  Sum of atomic charges =    -1.000000

                    Cartesian Multipole Moments
 -----------------------------------------------------------------
    Charge (ESU x 10^10)
                -4.8032
    Dipole Moment (Debye)
         X      -3.6592      Y       0.3816      Z      -0.7419
       Tot       3.7531
    Quadrupole Moments (Debye-Ang)
        XX    -127.7972     XY       5.1190     YY    -146.2342
        XZ      -0.7545     YZ      -0.8080     ZZ    -117.0403

 Total job time:  989.78s(wall), 7334.82s(cpu)
        *  Thank you very much for using Q-Chem.  Have a nice day.  *
