 Gaussian 16, Revision A.03,
 Gaussian 16:  ES64L-G16RevA.03 25-Dec-2016

 --------------------------------------
 #P UB3LYP/6-311++G(d,p) nosym opt freq
 --------------------------------------

 -------
 Radical
 -------
 Symbolic Z-matrix:
 Charge = -1 Multiplicity = 2

 SCF Done:  E(UB3LYP) =  -918.116128348     A.U. after   22 cycles
 SCF Done:  E(UB3LYP) =  -918.126145169     A.U. after   17 cycles
 SCF Done:  E(UB3LYP) =  -918.126806374     A.U. after   15 cycles
 SCF Done:  E(UB3LYP) =  -918.126855784     A.U. after   13 cycles
 SCF Done:  E(UB3LYP) =  -918.126860288     A.U. after   12 cycles
 SCF Done:  E(UB3LYP) =  -918.126860975     A.U. after   10 cycles
 Optimization completed.
    -- Stationary point found.
 Normal termination of Gaussian 16 at Thu Dec 21 06:24:29 2023.

 ----------------------------------------------------------------------
 #P Geom=AllCheck Guess=TCheck SCRF=Check GenChk UB3LYP/6-311++G(d,p) F
 req
 ----------------------------------------------------------------------

 Structure from the checkpoint file:  "141-rad.chk"
 -------
 Radical
 -------
 Charge = -1 Multiplicity = 2

                          Input orientation:
 ---------------------------------------------------------------------
 Center     Atomic      Atomic             Coordinates (Angstroms)
 Number     Number       Type             X           Y           Z
 ---------------------------------------------------------------------
      1          6           0       -3.280286    3.596118    0.085489
      2          6           0       -4.506560    2.956154    0.092017
      3          6           0       -4.547478    1.543710    0.068732
      4          6           0       -2.066731    2.883923    0.056389
      5          6           0       -2.120791    1.456975    0.033070
      6          6           0       -3.374725    0.815375    0.039847
      7          6           0       -0.803761    3.621843    0.050981
      8          6           0        0.412107    2.806737    0.019952
      9          6           0        0.358047    1.379789   -0.003366
     10          6           0       -0.904921    0.641866    0.002197
     11          6           0        1.666038    3.448340    0.013027
     12          6           0        2.838789    2.720006   -0.016003
     13          6           0        2.797872    1.307562   -0.039290
     14          6           0        1.571600    0.667597   -0.032619
     15          8           0       -0.763414    4.878456    0.071621
     16          8           0       -0.945271   -0.614742   -0.018703
     17          1           0       -3.401495   -0.267289    0.021872
     18          1           0        1.513117   -0.414787   -0.050036
     19          1           0       -3.221802    4.678501    0.102912
     20          1           0        1.692809    4.531003    0.031011
     21          8           0        4.017918    3.447752   -0.020950
     22          8           0       -5.726609    0.815965    0.073528
     23          6           0       -6.948217    1.521991    0.095148
     24          6           0        5.239523    2.741719   -0.042494
     25          1           0       -5.415563    3.544012    0.114847
     26          1           0        3.706875    0.719708   -0.062236
     27          1           0       -7.734591    0.765668    0.091622
     28          1           0       -7.067009    2.164679   -0.786808
     29          1           0       -7.050603    2.138925    0.997343
     30          1           0        6.025901    3.498040   -0.039002
     31          1           0        5.341932    2.124724   -0.944644
     32          1           0        5.358288    2.099090    0.839508
 ---------------------------------------------------------------------

 SCF Done:  E(UB3LYP) =  -918.126860975     A.U. after    1 cycles

 Alpha  occ. eigenvalues --  -19.05120 -19.05120 -18.94180 -18.94179 -10.13723
 Alpha  occ. eigenvalues --  -10.13723 -10.11851 -10.11851 -10.09230 -10.09229
 Alpha  occ. eigenvalues --  -10.06129 -10.06129 -10.05497 -10.05497 -10.05004
 Alpha  occ. eigenvalues --  -10.05003 -10.04556 -10.04556 -10.04502 -10.04501
 Alpha  occ. eigenvalues --   -0.96371  -0.96370  -0.86854  -0.86578  -0.74070
 Alpha  occ. eigenvalues --   -0.73333  -0.66934  -0.65001  -0.64474  -0.62742
 Alpha  occ. eigenvalues --   -0.60014  -0.59508  -0.53548  -0.52610  -0.49106
 Alpha  occ. eigenvalues --   -0.47913  -0.44284  -0.44113  -0.41780  -0.40519
 Alpha  occ. eigenvalues --   -0.37960  -0.37784  -0.37779  -0.37136  -0.35308
 Alpha  occ. eigenvalues --   -0.35220  -0.32434  -0.30967  -0.30552  -0.29933
 Alpha  occ. eigenvalues --   -0.29689  -0.29586  -0.28308  -0.27141  -0.27109
 Alpha  occ. eigenvalues --   -0.26245  -0.25492  -0.24624  -0.24581  -0.23961
 Alpha  occ. eigenvalues --   -0.22339  -0.21072  -0.21015  -0.19281  -0.14136
 Alpha  occ. eigenvalues --   -0.13340  -0.12091  -0.11227  -0.10963  -0.10438
 Alpha  occ. eigenvalues --   -0.00889
 Alpha virt. eigenvalues --    0.06455   0.06468   0.06682   0.09183   0.09204
 Alpha virt. eigenvalues --    0.10479   0.10490   0.10697   0.10855   0.11260
 Alpha virt. eigenvalues --    0.11493   0.11875   0.12264   0.13597   0.13732

  Beta  occ. eigenvalues --  -19.05093 -19.05093 -18.93595 -18.93594 -10.13725
  Beta  occ. eigenvalues --  -10.13725 -10.11786 -10.11786 -10.09082 -10.09081
  Beta  occ. eigenvalues --  -10.06103 -10.06103 -10.05504 -10.05504 -10.04888
  Beta  occ. eigenvalues --  -10.04888 -10.04549 -10.04549 -10.04442 -10.04441
  Beta  occ. eigenvalues --   -0.96312  -0.96311  -0.85855  -0.85548  -0.73826
  Beta  occ. eigenvalues --   -0.73226  -0.66585  -0.64891  -0.64346  -0.62531
  Beta  occ. eigenvalues --   -0.59936  -0.59319  -0.52888  -0.52467  -0.48911
  Beta  occ. eigenvalues --   -0.47835  -0.44128  -0.44002  -0.41630  -0.40343
  Beta  occ. eigenvalues --   -0.37864  -0.37720  -0.37716  -0.37085  -0.35123
  Beta  occ. eigenvalues --   -0.35089  -0.32362  -0.30902  -0.30522  -0.29768
  Beta  occ. eigenvalues --   -0.29430  -0.28628  -0.28158  -0.26882  -0.26587
  Beta  occ. eigenvalues --   -0.26146  -0.24776  -0.24470  -0.23765  -0.22418
  Beta  occ. eigenvalues --   -0.22302  -0.20825  -0.20709  -0.18295  -0.12926
  Beta  occ. eigenvalues --   -0.12530  -0.10814  -0.10685  -0.10289  -0.09885
  Beta virt. eigenvalues --    0.05035   0.06451   0.06464   0.07534   0.09176
  Beta virt. eigenvalues --    0.09197   0.10483   0.10518   0.10701   0.11261
  Beta virt. eigenvalues --    0.11714   0.11871   0.11886   0.12260   0.13595

 Mulliken charges and spin densities:
               1          2
     1  C   -0.078099   0.019845
     2  C    0.122988   0.016704
     3  C   -0.734642   0.036300
     4  C    0.630161   0.028908
     5  C    0.781575   0.082169
     6  C   -0.569090   0.021156
     7  C   -0.699547   0.076843
     8  C    0.781574   0.082169
     9  C    0.630163   0.028909
    10  C   -0.699543   0.076843
    11  C   -0.569084   0.021156
    12  C   -0.734646   0.036300
    13  C    0.122988   0.016704
    14  C   -0.078096   0.019845
    15  O   -0.368986   0.218975
    16  O   -0.368986   0.218975
    17  H    0.175983  -0.002350
    18  H    0.158943  -0.001512
    19  H    0.158944  -0.001512
    20  H    0.175983  -0.002350
    21  O   -0.176081   0.004698
    22  O   -0.176083   0.004698
    23  C   -0.326892   0.000194
    24  C   -0.326893   0.000194
    25  H    0.154996  -0.002219
    26  H    0.154997  -0.002219
    27  H    0.158245  -0.000032
    28  H    0.135451   0.000165
    29  H    0.134990   0.000155
    30  H    0.158245  -0.000032
    31  H    0.134988   0.000155
    32  H    0.135452   0.000165
 Sum of Mulliken charges =  -1.00000   1.00000

 Dipole moment (field-independent basis, Debye):
    X=              4.1036    Y=            -10.2398    Z=             -0.1269  Tot=             11.0321
 Quadrupole moment (field-independent basis, Debye-Ang):
   XX=           -122.4131   YY=           -177.3043   ZZ=           -123.0733
   XY=             -3.2251   XZ=             -0.0604   YZ=             -0.6306

  Exact polarizability: 409.142   8.523 238.110  -3.886   1.966 115.629
 Approx polarizability: 543.797  15.083 461.803  -4.806   4.487 182.928

                      1                      2                      3
                      A                      A                      A
 Frequencies --     27.8199                40.8453                52.4505
 Red. masses --      3.6117                 3.0882                 5.3297
 Frc consts  --      0.0016                 0.0030                 0.0086
 IR Inten    --      7.9888                 0.0000                 0.3874

                      4                      5                      6
                      A                      A                      A
 Frequencies --     94.3467               111.8219               126.2424
 Red. masses --      4.1340                 5.5118                 4.6846
 Frc consts  --      0.0217                 0.0406                 0.0440
 IR Inten    --      5.0721                 0.0000                 5.7685

                      7                      8                      9
                      A                      A                      A
 Frequencies --    154.3294               186.0400               195.0717
 Red. masses --      8.0309                 5.5939                 4.9826
 Frc consts  --      0.1127                 0.1141                 0.1117
 IR Inten    --      5.9140                 0.0000                 0.0000

                     10                     11                     12
                      A                      A                      A
 Frequencies --    226.2814               235.2370               260.5966
 Red. masses --      1.2745                 1.1617                 5.0611
 Frc consts  --      0.0384                 0.0379                 0.2025
 IR Inten    --      0.7285                 0.0000                 0.0000

                     13                     14                     15
                      A                      A                      A
 Frequencies --    290.2661               295.1142               325.6043
 Red. masses --      3.6470                 3.4304                 6.5397
 Frc consts  --      0.1810                 0.1760                 0.4085
 IR Inten    --      3.0409                 1.0572                 0.0000

                     16                     17                     18
                      A                      A                      A
 Frequencies --    332.8883               347.1278               424.4090
 Red. masses --      4.9120                10.2650                 6.7994
 Frc consts  --      0.3207                 0.7288                 0.7216
 IR Inten    --      0.0000                 2.9795                 0.0000

                     19                     20                     21
                      A                      A                      A
 Frequencies --    434.8757               444.6736               461.3336
 Red. masses --      3.4438                 6.0426                 3.6354
 Frc consts  --      0.3837                 0.7040                 0.4559
 IR Inten    --      1.5240                 5.2054                 0.0000

                     22                     23                     24
                      A                      A                      A
 Frequencies --    479.5993               488.3310               533.0656
 Red. masses --      6.3063                12.0359                 4.2139
 Frc consts  --      0.8546                 1.6910                 0.7055
 IR Inten    --      0.0000                 0.0000                 0.0000

                     25                     26                     27
                      A                      A                      A
 Frequencies --    566.2988               580.8606               628.1032
 Red. masses --      3.6537                 5.0097                 6.6091
 Frc consts  --      0.6904                 0.9959                 1.5362
 IR Inten    --     14.7323                40.6210                 0.0000

                     28                     29                     30
                      A                      A                      A
 Frequencies --    658.9480               666.3214               701.7695
 Red. masses --      3.7294                 6.3811                 6.7998
 Frc consts  --      0.9541                 1.6692                 1.9730
 IR Inten    --      0.0000                 9.7838                 0.0000

                     31                     32                     33
                      A                      A                      A
 Frequencies --    711.5304               716.1969               726.7081
 Red. masses --      6.8216                 4.4283                 5.4717
 Frc consts  --      2.0348                 1.3383                 1.7025
 IR Inten    --     48.5227                 3.9528                34.1515

                     34                     35                     36
                      A                      A                      A
 Frequencies --    770.8052               782.5299               793.3316
 Red. masses --      1.8124                 6.2098                 1.5646
 Frc consts  --      0.6344                 2.2404                 0.5802
 IR Inten    --      0.0000                 0.0000                34.7235

                     37                     38                     39
                      A                      A                      A
 Frequencies --    808.4683               876.7504               911.1889
 Red. masses --      3.1740                 6.7860                 1.4420
 Frc consts  --      1.2223                 3.0734                 0.7054
 IR Inten    --      0.0000               113.0668                 0.0000

                     40                     41                     42
                      A                      A                      A
 Frequencies --    911.5996               966.3323               969.3108
 Red. masses --      1.4202                 1.3018                 1.3319
 Frc consts  --      0.6954                 0.7162                 0.7373
 IR Inten    --     29.2410                 0.0000                 7.6018

                     43                     44                     45
                      A                      A                      A
 Frequencies --    975.5147               984.4655              1058.1671
 Red. masses --      3.7158                 4.8864                 2.4248
 Frc consts  --      2.0834                 2.7902                 1.5997
 IR Inten    --     17.3906                 0.0000                54.0389

                     46                     47                     48
                      A                      A                      A
 Frequencies --   1065.5993              1120.3378              1136.2862
 Red. masses --      3.0514                 2.5853                 1.5707
 Frc consts  --      2.0415                 1.9119                 1.1949
 IR Inten    --      0.0000                82.8644                 0.0000

                     49                     50                     51
                      A                      A                      A
 Frequencies --   1147.5690              1154.0071              1164.4531
 Red. masses --      3.5080                 2.7013                 1.2757
 Frc consts  --      2.7219                 2.1195                 1.0192
 IR Inten    --    386.8100                 0.0000                 1.0643

                     52                     53                     54
                      A                      A                      A
 Frequencies --   1164.4922              1189.9186              1196.7409
 Red. masses --      1.2758                 1.7390                 1.6238
 Frc consts  --      1.0193                 1.4507                 1.3702
 IR Inten    --      0.0001                 7.4090                 0.0000

                     55                     56                     57
                      A                      A                      A
 Frequencies --   1212.8453              1218.0299              1255.9048
 Red. masses --      1.8591                 1.6244                 2.5977
 Frc consts  --      1.6112                 1.4199                 2.4141
 IR Inten    --    164.8954                 0.0000                96.8349

                     58                     59                     60
                      A                      A                      A
 Frequencies --   1260.1101              1266.5363              1319.7046
 Red. masses --      4.8636                 2.4516                 2.3634
 Frc consts  --      4.5501                 2.3170                 2.4251
 IR Inten    --      0.0000               368.1919                 0.0000

                     61                     62                     63
                      A                      A                      A
 Frequencies --   1356.4575              1365.2485              1402.7566
 Red. masses --      9.7899                 7.7973                 3.9648
 Frc consts  --     10.6130                 8.5629                 4.5966
 IR Inten    --     40.6222                 0.0000               386.8623

                     64                     65                     66
                      A                      A                      A
 Frequencies --   1455.6661              1464.3402              1470.4286
 Red. masses --      1.8319                 3.3004                 1.4359
 Frc consts  --      2.2870                 4.1696                 1.8291
 IR Inten    --    252.6895                 0.0000                 0.0000

                     67                     68                     69
                      A                      A                      A
 Frequencies --   1480.0576              1485.3842              1485.4670
 Red. masses --      1.5193                 1.0474                 1.0474
 Frc consts  --      1.9609                 1.3616                 1.3618
 IR Inten    --     85.5490                 0.0001                11.1334

                     70                     71                     72
                      A                      A                      A
 Frequencies --   1501.6641              1505.9656              1509.0052
 Red. masses --      2.3369                 1.1914                 1.1705
 Frc consts  --      3.1049                 1.5920                 1.5704
 IR Inten    --      0.0000               300.8109                 0.0000

                     73                     74                     75
                      A                      A                      A
 Frequencies --   1517.5132              1536.8635              1558.2118
 Red. masses --      4.0868                 6.6956                 5.3575
 Frc consts  --      5.5450                 9.3177                 7.6642
 IR Inten    --    546.1433                 0.0000               119.6188

                     76                     77                     78
                      A                      A                      A
 Frequencies --   1609.5845              1628.2748              1635.9526
 Red. masses --      8.2888                 7.0404                 7.1910
 Frc consts  --     12.6524                10.9978                11.3392
 IR Inten    --      0.0000                 0.0000               268.7564

                     79                     80                     81
                      A                      A                      A
 Frequencies --   2978.1413              2978.5303              3024.9915
 Red. masses --      1.0352                 1.0353                 1.1047
 Frc consts  --      5.4095                 5.4115                 5.9559
 IR Inten    --    249.7046                 0.0000                 0.0008

                     82                     83                     84
                      A                      A                      A
 Frequencies --   3025.0177              3099.4527              3099.5348
 Red. masses --      1.1047                 1.0969                 1.0968
 Frc consts  --      5.9560                 6.2084                 6.2083
 IR Inten    --    120.0801               112.4080                 0.0012

                     85                     86                     87
                      A                      A                      A
 Frequencies --   3173.0806              3173.2578              3190.0787
 Red. masses --      1.0858                 1.0858                 1.0929
 Frc consts  --      6.4408                 6.4421                 6.5531
 IR Inten    --      4.4713                 0.0000                62.6901

                     88                     89                     90
                      A                      A                      A
 Frequencies --   3190.3405              3194.1713              3194.3907
 Red. masses --      1.0928                 1.0897                 1.0898
 Frc consts  --      6.5536                 6.5503                 6.5518
 IR Inten    --      0.0007                15.9708                 0.0000

 - Thermochemistry -
 -------------------
 Temperature   298.150 Kelvin.  Pressure   1.00000 Atm.
 Atom     1 has atomic number  6 and mass  12.00000

 Molecular mass:   268.07356 amu.
 Principal axes and moments of inertia in atomic units:
                           1         2         3
     Eigenvalues --  1802.47028********************
           X            0.99351  -0.11288   0.01371
           Y            0.11311   0.99344  -0.01688
           Z           -0.01172   0.01832   0.99976
 This molecule is an asymmetric top.
 Rotational symmetry number  1.
 Warning -- assumption of classical behavior for rotation
           may cause significant error
 Rotational temperatures (Kelvin)      0.04805     0.00803     0.00690
 Rotational constants (GHZ):           1.00126     0.16742     0.14370
 Zero-point vibrational energy     631005.8 (Joules/Mol)
                                  150.81401 (Kcal/Mol)
 Warning -- explicit consideration of  26 degrees of freedom as
           vibrations may cause significant error
 Vibrational temperatures:     40.03    58.77    75.46   135.74   160.89
          (Kelvin)            181.63   222.05   267.67   280.66   325.57
                              338.45   374.94   417.63   424.60   468.47
                              478.95   499.44   610.63   625.69   639.79
                              663.76   690.04   702.60   766.96   814.78
                              835.73   903.70   948.08   958.69  1009.69
                             1023.73  1030.45  1045.57  1109.02  1125.89
                             1141.43  1163.21  1261.45  1311.00  1311.59
                             1390.34  1394.62  1403.55  1416.43  1522.47
                             1533.16  1611.92  1634.86  1651.10  1660.36
                             1675.39  1675.44  1712.03  1721.84  1745.01
                             1752.47  1806.97  1813.02  1822.26  1898.76
                             1951.64  1964.29  2018.25  2094.38  2106.86
                             2115.62  2129.47  2137.14  2137.26  2160.56
                             2166.75  2171.12  2183.36  2211.20  2241.92
                             2315.83  2342.72  2353.77  4284.88  4285.44
                             4352.29  4352.33  4459.42  4459.54  4565.36
                             4565.61  4589.81  4590.19  4595.70  4596.02

 Zero-point correction=                           0.240337 (Hartree/Particle)
 Thermal correction to Energy=                    0.257144
 Thermal correction to Enthalpy=                  0.258088
 Thermal correction to Gibbs Free Energy=         0.194460
 Sum of electronic and zero-point Energies=           -917.886524
 Sum of electronic and thermal Energies=              -917.869717
 Sum of electronic and thermal Enthalpies=            -917.868773
 Sum of electronic and thermal Free Energies=         -917.932401

                     E (Thermal)             CV                S
                      KCal/Mol        Cal/Mol-Kelvin    Cal/Mol-Kelvin
 Total                  161.360             65.025            133.916
 Electronic               0.000              0.000              1.377
 Translational            0.889              2.981             42.657
 Rotational               0.889              2.981             33.856
 Vibrational            159.583             59.063             56.026
 Vibration     1          0.593              1.984              5.979
 Vibration     2          0.594              1.981              5.218
 Vibration     3          0.596              1.977              4.723
 Vibration     4          0.603              1.953              3.568
 Vibration     5          0.607              1.940              3.237
 Vibration     6          0.611              1.927              3.003
 Vibration     7          0.620              1.898              2.618
 Vibration     8          0.632              1.859              2.267
 Vibration     9          0.636              1.847              2.179
 Vibration    10          0.650              1.801              1.908
 Vibration    11          0.655              1.787              1.839
 Vibration    12          0.669              1.745              1.658
 Vibration    13          0.686              1.692              1.472
 Vibration    14          0.689              1.683              1.444
 Vibration    15          0.710              1.624              1.282
 Vibration    16          0.715              1.610              1.246
 Vibration    17          0.725              1.581              1.179
 Vibration    18          0.786              1.417              0.877
 Vibration    19          0.795              1.394              0.843
 Vibration    20          0.804              1.373              0.812
 Vibration    21          0.819              1.336              0.762
 Vibration    22          0.836              1.295              0.711
 Vibration    23          0.844              1.276              0.688
 Vibration    24          0.888              1.177              0.580
 Vibration    25          0.922              1.104              0.511
 Vibration    26          0.938              1.073              0.484

                           ! Non-Optimized Parameters !
 Normal termination of Gaussian 16 at Thu Dec 21 08:04:45 2023.
