 Gaussian 16, Revision A.03,
 Gaussian 16:  ES64L-G16RevA.03 25-Dec-2016

 ----------------------------------------------------------------
 #P UB3LYP/6-311++G(d,p) SCRF=(PCM,Solvent=n,n-DiMethylFormamide)
 ----------------------------------------------------------------

 ------------------
 Radical PCM in DMF
 ------------------
 Symbolic Z-matrix:
 Charge = -1 Multiplicity = 2

                         Standard orientation:
 ---------------------------------------------------------------------
 Center     Atomic      Atomic             Coordinates (Angstroms)
 Number     Number       Type             X           Y           Z
 ---------------------------------------------------------------------
      1          6           0        2.834236    0.523878    0.000267
      2          6           0        3.552760   -0.654002    0.000088
      3          6           0        1.424379    0.519299    0.000161
      4          6           0        0.731503   -0.721134   -0.000067
      5          6           0        2.885861   -1.886329   -0.000210
      6          6           0        1.499176   -1.901463   -0.000315
      7          6           0        0.738545    1.828613    0.000126
      8          6           0       -0.738572    1.828608   -0.000178
      9          6           0       -1.424389    0.519298   -0.000066
     10          6           0       -0.731471   -0.721138   -0.000083
     11          6           0       -2.834245    0.523874    0.000015
     12          6           0       -3.552769   -0.653996    0.000103
     13          6           0       -2.885836   -1.886313    0.000047
     14          6           0       -1.499155   -1.901444   -0.000048
     15          8           0        1.401946    2.889355    0.000106
     16          8           0       -1.401968    2.889355   -0.000432
     17          8           0       -4.937680   -0.678030    0.000278
     18          8           0        4.937678   -0.677984    0.000147
     19          1           0        3.322674    1.494503    0.000390
     20          1           0        3.459110   -2.806279   -0.000385
     21          1           0        1.004437   -2.865668   -0.000613
     22          1           0       -3.322633    1.494522   -0.000002
     23          1           0       -3.459068   -2.806277    0.000135
     24          1           0       -1.004418   -2.865649   -0.000055
     25          1           0       -5.247927    0.233352    0.000374
     26          1           0        5.247881    0.233414    0.000318
 ---------------------------------------------------------------------

 SCF Done:  E(UB3LYP) =  -839.593843211     A.U. after   19 cycles

 The electronic state is 2-A.
 Alpha  occ. eigenvalues --  -19.15598 -19.15598 -19.07764 -19.07762 -10.23511
 Alpha  occ. eigenvalues --  -10.23511 -10.21774 -10.21743 -10.18233 -10.18199
 Alpha  occ. eigenvalues --  -10.17783 -10.17783 -10.17670 -10.17669 -10.17392
 Alpha  occ. eigenvalues --  -10.17391 -10.16804 -10.16804  -1.06227  -1.06227
 Alpha  occ. eigenvalues --   -1.01641  -0.98898  -0.87360  -0.84704  -0.78492
 Alpha  occ. eigenvalues --   -0.76496  -0.75204  -0.71773  -0.68988  -0.63943
 Alpha  occ. eigenvalues --   -0.62155  -0.59679  -0.59379  -0.55552  -0.54494
 Alpha  occ. eigenvalues --   -0.51672  -0.48859  -0.48176  -0.45966  -0.45845
 Alpha  occ. eigenvalues --   -0.43825  -0.43351  -0.43035  -0.41889  -0.41355
 Alpha  occ. eigenvalues --   -0.41266  -0.40422  -0.40122  -0.40083  -0.37966
 Alpha  occ. eigenvalues --   -0.36270  -0.36137  -0.35576  -0.35193  -0.33649
 Alpha  occ. eigenvalues --   -0.32101  -0.26583  -0.26208  -0.26000  -0.25699
 Alpha  occ. eigenvalues --   -0.22824  -0.20653  -0.15449
 Alpha virt. eigenvalues --   -0.03416  -0.03208  -0.00446   0.00033   0.00416
 Alpha virt. eigenvalues --    0.00800   0.01931   0.02328   0.03025   0.03923
 Alpha virt. eigenvalues --    0.04213   0.04736   0.04781   0.06405   0.06705

  Beta  occ. eigenvalues --  -19.15603 -19.15603 -19.07138 -19.07137 -10.23540
  Beta  occ. eigenvalues --  -10.23539 -10.21571 -10.21542 -10.18161 -10.18128
  Beta  occ. eigenvalues --  -10.17823 -10.17822 -10.17689 -10.17688 -10.17307
  Beta  occ. eigenvalues --  -10.17307 -10.16717 -10.16717  -1.06238  -1.06237
  Beta  occ. eigenvalues --   -1.00547  -0.97737  -0.87204  -0.84611  -0.78225
  Beta  occ. eigenvalues --   -0.76283  -0.75036  -0.71721  -0.68173  -0.63865
  Beta  occ. eigenvalues --   -0.61944  -0.59282  -0.59230  -0.55488  -0.54449
  Beta  occ. eigenvalues --   -0.51564  -0.48472  -0.48053  -0.45899  -0.45640
  Beta  occ. eigenvalues --   -0.43797  -0.43252  -0.42230  -0.41416  -0.41255
  Beta  occ. eigenvalues --   -0.41183  -0.39933  -0.39688  -0.39155  -0.37931
  Beta  occ. eigenvalues --   -0.36189  -0.35124  -0.35082  -0.34094  -0.33536
  Beta  occ. eigenvalues --   -0.30637  -0.25899  -0.25512  -0.25378  -0.24773
  Beta  occ. eigenvalues --   -0.22245  -0.20329
  Beta virt. eigenvalues --   -0.08729  -0.03106  -0.02205  -0.00437   0.00031
  Beta virt. eigenvalues --    0.00796   0.01741   0.01967   0.02331   0.03315
  Beta virt. eigenvalues --    0.03940   0.04238   0.04739   0.04821   0.06412

 Mulliken charges and spin densities:
               1          2
     1  C    0.202324   0.089865
     2  C   -0.536623  -0.025654
     3  C    0.676802  -0.010059
     4  C    0.497716   0.039051
     5  C   -0.489740   0.068172
     6  C   -0.330305  -0.028443
     7  C   -0.512463   0.140916
     8  C   -0.512489   0.140917
     9  C    0.676781  -0.010064
    10  C    0.497666   0.039058
    11  C    0.202327   0.089870
    12  C   -0.536633  -0.025656
    13  C   -0.489722   0.068182
    14  C   -0.330323  -0.028447
    15  O   -0.477390   0.236928
    16  O   -0.477394   0.236927
    17  O   -0.296801  -0.000356
    18  O   -0.296800  -0.000356
    19  H    0.149486  -0.007748
    20  H    0.208390  -0.004825
    21  H    0.107868   0.002150
    22  H    0.149489  -0.007748
    23  H    0.208390  -0.004825
    24  H    0.107857   0.002150
    25  H    0.300793  -0.000002
    26  H    0.300792  -0.000002
 Sum of Mulliken charges =  -1.00000   1.00000

 Dipole moment (field-independent basis, Debye):
    X=             -0.0000    Y=            -10.2312    Z=              0.0010  Tot=             10.2312
 Quadrupole moment (field-independent basis, Debye-Ang):
   XX=           -118.0495   YY=           -142.5053   ZZ=           -110.3060
   XY=             -0.0001   XZ=             -0.0019   YZ=              0.0051

 Normal termination of Gaussian 16 at Sat Jan 13 19:20:02 2024.
