 Q-Chem 5.4, Q-Chem, Inc., Pleasanton, CA (2021)
 Q-Chem 5.4.0 for Intel X86 EM64T Linux

User input:
--------------------------------------------------------------
$molecule
0 1
C                  4.3050360000      0.6997690000     -0.4331450000
C                  3.5157130000     -0.2974890000      0.3630540000
C                  2.7500610000      0.1124340000      1.3948130000
C                  2.6743510000      1.5593120000      1.7499550000
C                  3.4970130000      2.5554940000      0.9737480000
C                  4.2870670000      2.1318540000     -0.0490940000
O                  4.9507480000      0.3375650000     -1.4078010000
O                  1.9698090000      1.9420710000      2.6647610000
C                  6.3819990000      2.8807360000     -0.9458020000
C                  4.1015650000      4.9130210000      1.0198650000
H                  6.7112790000      3.7021750000     -1.5808130000
H                  6.6534600000      1.9282500000     -1.3979440000
H                  6.8412630000      2.9776010000      0.0445120000
H                  3.7502890000      5.7396330000      1.6352590000
H                  3.9641630000      5.1371240000     -0.0363440000
C                  1.9072610000     -0.8197540000      2.2396350000
C                  0.5079730000     -0.9720740000      1.6844210000
C                 -0.1613430000     -2.1013470000      1.4150430000
C                 -1.5726530000     -2.0280430000      0.8667410000
C                 -1.6960300000     -2.4517810000     -0.6189490000
C                 -3.1210560000     -2.4314670000     -1.0990030000
C                 -3.6819190000     -1.6509170000     -2.0336670000
C                 -5.1570140000     -1.7887540000     -2.3529030000
C                 -6.0188350000     -0.5791890000     -1.9115760000
C                 -7.4633050000     -0.7396030000     -2.2972080000
C                 -8.5373140000     -0.8326290000     -1.5017360000
C                 -9.9197080000     -0.9989950000     -2.0853260000
C                  0.3732220000     -3.4940660000      1.6425210000
C                 -2.9390640000     -0.6112260000     -2.8369280000
C                 -8.5024480000     -0.7795550000      0.0050870000
H                  1.8380920000     -0.3902620000      3.2436500000
H                  2.4082630000     -1.7835220000      2.3273940000
H                 -0.0043510000     -0.0281970000      1.5112000000
H                 -1.9540940000     -1.0084300000      0.9692220000
H                 -2.2293610000     -2.6701720000      1.4686270000
H                 -1.3023070000     -3.4689170000     -0.7357720000
H                 -1.0581130000     -1.8020080000     -1.2219380000
H                 -3.7724790000     -3.1484050000     -0.5985710000
H                 -5.5533020000     -2.6895050000     -1.8754860000
H                 -5.2821720000     -1.9275430000     -3.4353820000
H                 -5.6294140000      0.3300840000     -2.3855040000
H                 -5.9025340000     -0.4388970000     -0.8345570000
H                 -7.6374080000     -0.7974080000     -3.3718690000
H                 -9.8987470000     -1.0319430000     -3.1764970000
H                -10.5761230000     -0.1747620000     -1.7812930000
H                  1.3938520000     -3.5078100000      2.0243780000
H                  0.3541380000     -4.0843270000      0.7204890000
H                 -0.2574710000     -4.0254330000      2.3648200000
H                 -1.8736590000     -0.5775120000     -2.6116500000
H                 -3.3452080000      0.3904160000     -2.6607250000
H                 -3.0497310000     -0.8086220000     -3.9096630000
H                 -7.4964050000     -0.6794770000      0.4111880000
H                 -8.9494240000     -1.6858670000      0.4303250000
H                 -9.0997710000      0.0630000000      0.3734250000
H                -10.3899000000     -1.9216260000     -1.7243990000
O                  3.2976130000      3.7959810000      1.4269150000
O                  4.9533830000      3.0177420000     -0.8461220000
C                  3.6302840000     -1.7332870000     -0.0685550000
H                  5.1579640000      4.7249280000      1.2241010000
H                  2.6494410000     -2.2104260000     -0.1048990000
H                  4.2503430000     -2.3016830000      0.6339360000
H                  4.0984740000     -1.7955110000     -1.0494680000
$end

$rem
BASIS  =  6-311++G(d,p)
GUI  =  2
JOB_TYPE  =  SP
METHOD  =  B3LYP
SCF_CONVERGENCE  = 8
SOLVENT_METHOD = sm12
$end

$smx
solvent dimethylformamide
charges CM5
$end

--------------------------------------------------------------

             Standard Nuclear Orientation (Angstroms)
    I     Atom           X                Y                Z
 ----------------------------------------------------------------
    1      C       4.3050360000     0.6997690000    -0.4331450000
    2      C       3.5157130000    -0.2974890000     0.3630540000
    3      C       2.7500610000     0.1124340000     1.3948130000
    4      C       2.6743510000     1.5593120000     1.7499550000
    5      C       3.4970130000     2.5554940000     0.9737480000
    6      C       4.2870670000     2.1318540000    -0.0490940000
    7      O       4.9507480000     0.3375650000    -1.4078010000
    8      O       1.9698090000     1.9420710000     2.6647610000
    9      C       6.3819990000     2.8807360000    -0.9458020000
   10      C       4.1015650000     4.9130210000     1.0198650000
   11      H       6.7112790000     3.7021750000    -1.5808130000
   12      H       6.6534600000     1.9282500000    -1.3979440000
   13      H       6.8412630000     2.9776010000     0.0445120000
   14      H       3.7502890000     5.7396330000     1.6352590000
   15      H       3.9641630000     5.1371240000    -0.0363440000
   16      C       1.9072610000    -0.8197540000     2.2396350000
   17      C       0.5079730000    -0.9720740000     1.6844210000
   18      C      -0.1613430000    -2.1013470000     1.4150430000
   19      C      -1.5726530000    -2.0280430000     0.8667410000
   20      C      -1.6960300000    -2.4517810000    -0.6189490000
   21      C      -3.1210560000    -2.4314670000    -1.0990030000
   22      C      -3.6819190000    -1.6509170000    -2.0336670000
   23      C      -5.1570140000    -1.7887540000    -2.3529030000
   24      C      -6.0188350000    -0.5791890000    -1.9115760000
   25      C      -7.4633050000    -0.7396030000    -2.2972080000
   26      C      -8.5373140000    -0.8326290000    -1.5017360000
   27      C      -9.9197080000    -0.9989950000    -2.0853260000
   28      C       0.3732220000    -3.4940660000     1.6425210000
   29      C      -2.9390640000    -0.6112260000    -2.8369280000
   30      C      -8.5024480000    -0.7795550000     0.0050870000
   31      H       1.8380920000    -0.3902620000     3.2436500000
   32      H       2.4082630000    -1.7835220000     2.3273940000
   33      H      -0.0043510000    -0.0281970000     1.5112000000
   34      H      -1.9540940000    -1.0084300000     0.9692220000
   35      H      -2.2293610000    -2.6701720000     1.4686270000
   36      H      -1.3023070000    -3.4689170000    -0.7357720000
   37      H      -1.0581130000    -1.8020080000    -1.2219380000
   38      H      -3.7724790000    -3.1484050000    -0.5985710000
   39      H      -5.5533020000    -2.6895050000    -1.8754860000
   40      H      -5.2821720000    -1.9275430000    -3.4353820000
   41      H      -5.6294140000     0.3300840000    -2.3855040000
   42      H      -5.9025340000    -0.4388970000    -0.8345570000
   43      H      -7.6374080000    -0.7974080000    -3.3718690000
   44      H      -9.8987470000    -1.0319430000    -3.1764970000
   45      H     -10.5761230000    -0.1747620000    -1.7812930000
   46      H       1.3938520000    -3.5078100000     2.0243780000
   47      H       0.3541380000    -4.0843270000     0.7204890000
   48      H      -0.2574710000    -4.0254330000     2.3648200000
   49      H      -1.8736590000    -0.5775120000    -2.6116500000
   50      H      -3.3452080000     0.3904160000    -2.6607250000
   51      H      -3.0497310000    -0.8086220000    -3.9096630000
   52      H      -7.4964050000    -0.6794770000     0.4111880000
   53      H      -8.9494240000    -1.6858670000     0.4303250000
   54      H      -9.0997710000     0.0630000000     0.3734250000
   55      H     -10.3899000000    -1.9216260000    -1.7243990000
   56      O       3.2976130000     3.7959810000     1.4269150000
   57      O       4.9533830000     3.0177420000    -0.8461220000
   58      C       3.6302840000    -1.7332870000    -0.0685550000
   59      H       5.1579640000     4.7249280000     1.2241010000
   60      H       2.6494410000    -2.2104260000    -0.1048990000
   61      H       4.2503430000    -2.3016830000     0.6339360000
   62      H       4.0984740000    -1.7955110000    -1.0494680000
 ----------------------------------------------------------------

   15   -1236.1744273613      4.97e-09  Convergence criterion met
 Total energy in the final basis set =    -1236.1946107918

                    Orbital Energies (a.u.)
 --------------------------------------------------------------

 Alpha MOs
 -- Occupied --
-19.1727 -19.1531 -19.1329 -19.1285 -10.2809 -10.2773 -10.2630 -10.2471
-10.2214 -10.2147 -10.2102 -10.2066 -10.1816 -10.1798 -10.1789 -10.1772
-10.1717 -10.1714 -10.1709 -10.1702 -10.1697 -10.1690 -10.1642 -10.1642
-10.1639 -10.1636 -10.1633 -10.1624  -1.0979  -1.0753  -1.0607  -1.0494
 -0.8626  -0.8326  -0.8239  -0.8116  -0.8028  -0.7722  -0.7539  -0.7393
 -0.7351  -0.7165  -0.6940  -0.6910  -0.6872  -0.6785  -0.6638  -0.6529
 -0.6242  -0.5983  -0.5942  -0.5846  -0.5528  -0.5288  -0.5261  -0.5223
 -0.5166  -0.5101  -0.4915  -0.4818  -0.4781  -0.4702  -0.4685  -0.4592
 -0.4580  -0.4535  -0.4466  -0.4431  -0.4392  -0.4369  -0.4336  -0.4298
 -0.4210  -0.4192  -0.4153  -0.4110  -0.4105  -0.4074  -0.4005  -0.3990
 -0.3861  -0.3857  -0.3790  -0.3764  -0.3753  -0.3735  -0.3693  -0.3674
 -0.3638  -0.3601  -0.3542  -0.3522  -0.3498  -0.3408  -0.3340  -0.3327
 -0.3186  -0.3112  -0.2846  -0.2804  -0.2698  -0.2527  -0.2439  -0.2396
 -0.2307

          Ground-State Mulliken Net Atomic Charges

     Atom                 Charge (a.u.)
  ----------------------------------------
      1 C                    -1.274216
      2 C                     0.588708
      3 C                     1.400811
      4 C                    -1.475597
      5 C                    -0.218817
      6 C                     0.167554
      7 O                    -0.295300
      8 O                    -0.283270
      9 C                    -0.184973
     10 C                    -0.148788
     11 H                     0.216366
     12 H                     0.131842
     13 H                     0.179885
     14 H                     0.243206
     15 H                     0.194659
     16 C                     0.336117
     17 C                    -1.092454
     18 C                     0.554263
     19 C                    -0.489628
     20 C                     0.079415
     21 C                    -0.469399
     22 C                     0.160591
     23 C                    -0.470288
     24 C                    -0.152203
     25 C                    -0.163027
     26 C                    -0.115737
     27 C                    -0.426892
     28 C                    -0.261623
     29 C                    -0.601415
     30 C                    -0.497409
     31 H                     0.171109
     32 H                     0.285437
     33 H                     0.142540
     34 H                     0.128203
     35 H                     0.143857
     36 H                     0.128295
     37 H                     0.057915
     38 H                     0.200603
     39 H                     0.145229
     40 H                     0.135100
     41 H                     0.118125
     42 H                     0.085716
     43 H                     0.176767
     44 H                     0.176868
     45 H                     0.165557
     46 H                     0.172767
     47 H                     0.192262
     48 H                     0.173511
     49 H                     0.148112
     50 H                     0.183729
     51 H                     0.177029
     52 H                     0.167876
     53 H                     0.165142
     54 H                     0.162823
     55 H                     0.171886
     56 O                    -0.208659
     57 O                    -0.186345
     58 C                    -0.117853
     59 H                     0.224017
     60 H                     0.251445
     61 H                     0.255214
     62 H                     0.173343
  ----------------------------------------
  Sum of atomic charges =     0.000000

                    Cartesian Multipole Moments
 -----------------------------------------------------------------
    Charge (ESU x 10^10)
                 0.0000
    Dipole Moment (Debye)
         X       1.8371      Y      -0.1872      Z       0.1542
       Tot       1.8530
    Quadrupole Moments (Debye-Ang)
        XX    -149.3586     XY      13.7424     YY    -156.5996
        XZ       6.2812     YZ      -8.0587     ZZ    -183.3127

 Total job time:  4355.11s(wall), 26223.87s(cpu)
        *  Thank you very much for using Q-Chem.  Have a nice day.  *
