 Q-Chem 5.4, Q-Chem, Inc., Pleasanton, CA (2021)
 Q-Chem 5.4.0 for Intel X86 EM64T Linux

User input:
--------------------------------------------------------------
$molecule
-1 2
C                  2.3895730000      3.4480130000      2.8292620000
C                  3.4647290000      3.4409140000      1.8852710000
C                  3.3869650000      2.7589690000      0.6861290000
C                  2.2027800000      1.9638330000      0.3327400000
C                  1.1275990000      1.9709780000      1.2767040000
C                  1.2053640000      2.6529260000      2.4758430000
O                  2.4024800000      4.1017370000      3.9203050000
O                  2.1899120000      1.3100080000     -0.7582440000
N                  0.2169530000      2.6511080000      3.4543140000
C                 -1.1740750000      2.4276050000      3.1312820000
C                 -2.0509290000      2.5636750000      4.3744350000
N                  4.3753510000      2.7608680000     -0.2923880000
C                  5.7664090000      2.9841730000      0.0306830000
C                  6.6432110000      2.8484970000     -1.2125500000
H                  4.3393900000      4.0268870000      2.1483790000
H                  0.2529200000      1.3850400000      1.0135780000
H                  0.4208300000      3.3802440000      4.1344160000
H                 -1.2897560000      1.4186190000      2.7183220000
H                 -1.5287330000      3.1209190000      2.3468830000
H                 -1.7459960000      1.8478370000      5.1431550000
H                 -3.1023250000      2.3841670000      4.1295310000
H                 -1.9730250000      3.5692960000      4.8011060000
H                  4.1714380000      2.0317430000     -0.9724980000
H                  6.1210620000      2.2905630000      0.8148240000
H                  5.8821540000      3.9930050000      0.4439910000
H                  6.5651990000      1.8430450000     -1.6396030000
H                  7.6946330000      3.0278090000     -0.9676100000
H                  6.3383180000      3.5646530000     -1.9809880000
$end
$rem
MAX_SCF_CYCLES=200
BASIS  =  6-311++G(d,p)
GUI  =  2
JOB_TYPE  =  SP
METHOD  =  B3LYP
SOLVENT_METHOD = COSMO
$end
$solvent
dielectric 37.219
opticaldielectric 1.43
$end

--------------------------------------------------------------

             Standard Nuclear Orientation (Angstroms)
    I     Atom           X                Y                Z
 ----------------------------------------------------------------
    1      C       0.6158509230    -1.3184346176    -0.0059926674
    2      C      -0.8036229286    -1.1595193530    -0.0894777055
    3      C      -1.4054319425     0.0841086104    -0.1053886576
    4      C      -0.6158498844     1.3184331633     0.0060663988
    5      C       0.8036290791     1.1595219968     0.0894928957
    6      C       1.4054355538    -0.0841060555     0.1054003060
    7      O       1.2109778428    -2.4421420112    -0.0376490954
    8      O      -1.2109750322     2.4421390470     0.0378461053
    9      N       2.7725289025    -0.3014939448     0.2401719252
   10      C       3.7449304815     0.6847910318    -0.1732761067
   11      C       5.1668414813     0.1566975243     0.0058990016
   12      N      -2.7725311700     0.3014939249    -0.2402565099
   13      C      -3.7449338239    -0.6847200321     0.1733827812
   14      C      -5.1668503992    -0.1567697348    -0.0061715365
   15      H      -1.3856387904    -2.0718997296    -0.1697374488
   16      H       1.3856494113     2.0719032755     0.1697096018
   17      H       2.9783368861    -1.2730889705     0.0179332067
   18      H       3.6186281508     1.5901161992     0.4320377508
   19      H       3.5919139481     0.9956526756    -1.2228947849
   20      H       5.3524388981    -0.1078791713     1.0508350696
   21      H       5.9015060865     0.9086419673    -0.2982097169
   22      H       5.3321385569    -0.7388099944    -0.6024873329
   23      H      -2.9783139452     1.2731047702    -0.0180421897
   24      H      -3.5920550645    -0.9952353688     1.2231251310
   25      H      -3.6184877968    -1.5902268211    -0.4316224002
   26      H      -5.3322739633     0.7389545012     0.6018638232
   27      H      -5.9015144699    -0.9086403888     0.2981241121
   28      H      -5.3523257610     0.1074157070    -1.0512270662
 ----------------------------------------------------------------

   11    -649.6879990073      5.05e-06  Convergence criterion met
 Total energy in the final basis set =     -649.6879990073
    4    -649.7832012728      7.79e-06  Convergence criterion met
 Total energy in the final basis set =     -649.7832012728

                    Orbital Energies (a.u.)
 --------------------------------------------------------------

 Alpha MOs
 -- Occupied --
-19.0725 -19.0725 -14.3134 -14.3133 -10.2159 -10.2158 -10.1983 -10.1983
-10.1947 -10.1947 -10.1568 -10.1568 -10.1449 -10.1449  -0.9985  -0.9950
 -0.9220  -0.9218  -0.8064  -0.7606  -0.7390  -0.7087  -0.6663  -0.6343
 -0.6131  -0.5726  -0.5680  -0.5085  -0.4871  -0.4865  -0.4688  -0.4593
 -0.4467  -0.4286  -0.4162  -0.4112  -0.4057  -0.4036  -0.3838  -0.3760
 -0.3733  -0.3654  -0.3636  -0.3590  -0.3529  -0.3445  -0.3037  -0.2965
 -0.2486  -0.2411  -0.2356  -0.2012  -0.1435

 Beta MOs
 -- Occupied --
-19.0674 -19.0674 -14.3119 -14.3119 -10.2136 -10.2136 -10.1960 -10.1960
-10.1947 -10.1947 -10.1568 -10.1568 -10.1456 -10.1456  -0.9896  -0.9859
 -0.9184  -0.9181  -0.8015  -0.7591  -0.7383  -0.7072  -0.6582  -0.6332
 -0.6110  -0.5689  -0.5654  -0.5062  -0.4847  -0.4839  -0.4671  -0.4570
 -0.4451  -0.4263  -0.4133  -0.4036  -0.3994  -0.3984  -0.3753  -0.3744
 -0.3722  -0.3603  -0.3595  -0.3514  -0.3467  -0.3416  -0.2963  -0.2781
 -0.2438  -0.2361  -0.2197  -0.1933

          Ground-State Mulliken Net Atomic Charges

     Atom                 Charge (a.u.)    Spin (a.u.)
  --------------------------------------------------------
      1 C                    -0.581255       0.134010
      2 C                     0.458551      -0.084977
      3 C                    -0.206368       0.201228
      4 C                    -0.580382       0.134162
      5 C                     0.458554      -0.084994
      6 C                    -0.206061       0.201312
      7 O                    -0.587729       0.181366
      8 O                    -0.587937       0.181300
      9 N                    -0.075328       0.065494
     10 C                    -0.145039      -0.009502
     11 C                    -0.656543       0.005332
     12 N                    -0.075237       0.065512
     13 C                    -0.144309      -0.009519
     14 C                    -0.656837       0.005351
     15 H                     0.197681      -0.000300
     16 H                     0.197677      -0.000293
     17 H                     0.299970      -0.003171
     18 H                     0.153305       0.001031
     19 H                     0.173692       0.009067
     20 H                     0.156757       0.001496
     21 H                     0.159639      -0.000385
     22 H                     0.152049      -0.000775
     23 H                     0.299903      -0.003178
     24 H                     0.173677       0.009065
     25 H                     0.153106       0.001032
     26 H                     0.152013      -0.000776
     27 H                     0.159619      -0.000384
     28 H                     0.156831       0.001496
  --------------------------------------------------------
  Sum of atomic charges =    -1.000004

                    Cartesian Multipole Moments
 -----------------------------------------------------------------
    Charge (ESU x 10^10)
                -4.8032
    Dipole Moment (Debye)
         X       0.0005      Y      -0.0009      Z      -0.0015
       Tot       0.0018
    Quadrupole Moments (Debye-Ang)
        XX     -77.9280     XY      18.2615     YY    -121.8871
        XZ      -4.9305     YZ       0.7226     ZZ     -91.7940

 Total job time:  63.40s(wall), 461.53s(cpu)
        *  Thank you very much for using Q-Chem.  Have a nice day.  *
