 Gaussian 16, Revision A.03,
 Gaussian 16:  ES64L-G16RevA.03 25-Dec-2016

 ----------------------------------------------------------------------
 #P UB3LYP/6-311++G(d,p) nosym opt freq SCRF=(PCM,Solvent=n,n-DiMethylF
 ormamide)
 ----------------------------------------------------------------------

 --------
 Oxidized
 --------
 Symbolic Z-matrix:
 Charge =  0 Multiplicity = 1

 SCF Done:  E(UB3LYP) =  -846.260595929     A.U. after   14 cycles
 SCF Done:  E(UB3LYP) =  -846.260688711     A.U. after   10 cycles
 SCF Done:  E(UB3LYP) =  -846.260699934     A.U. after   10 cycles
 SCF Done:  E(UB3LYP) =  -846.260700791     A.U. after    9 cycles
 SCF Done:  E(UB3LYP) =  -846.260701097     A.U. after    8 cycles
 SCF Done:  E(UB3LYP) =  -846.260701112     A.U. after    9 cycles
 Optimization completed.
    -- Stationary point found.
 Normal termination of Gaussian 16 at Sat Feb 10 16:37:10 2024.

 ----------------------------------------------------------------------
 #P Geom=AllCheck Guess=TCheck SCRF=Check GenChk UB3LYP/6-311++G(d,p) F
 req
 ----------------------------------------------------------------------

 Structure from the checkpoint file:  "126.chk"
 --------
 Oxidized
 --------
 Charge =  0 Multiplicity = 1

                          Input orientation:
 ---------------------------------------------------------------------
 Center     Atomic      Atomic             Coordinates (Angstroms)
 Number     Number       Type             X           Y           Z
 ---------------------------------------------------------------------
      1          6           0       -3.946219    0.962132    0.929890
      2          6           0       -3.289436   -0.074530   -0.012679
      3          6           0       -3.476240   -1.474090    0.600225
      4          6           0       -4.001323   -0.044904   -1.386248
      5          6           0       -1.808340    0.285278   -0.204102
      6          6           0       -1.453020    1.532996   -0.750730
      7          6           0       -0.127420    1.895159   -0.937972
      8          6           0        0.905249    1.020669   -0.584977
      9          6           0        2.318813    1.427698   -0.792041
     10          8           0        2.604628    2.519645   -1.269676
     11          6           0        3.380491    0.458291   -0.397328
     12          6           0        4.723213    0.804709   -0.575623
     13          6           0        5.731500   -0.083214   -0.215642
     14          6           0        5.405901   -1.328839    0.326995
     15          6           0        4.073050   -1.682581    0.508279
     16          6           0        3.052200   -0.796805    0.149739
     17          6           0        1.632078   -1.201379    0.355081
     18          8           0        1.349256   -2.293787    0.831769
     19          6           0        0.573158   -0.230143   -0.038556
     20          6           0       -0.768945   -0.579945    0.143961
     21          1           0       -5.002530    0.717039    1.072594
     22          1           0       -3.461559    0.960959    1.910179
     23          1           0       -3.890801    1.975293    0.525248
     24          1           0       -3.056892   -2.257606   -0.036684
     25          1           0       -4.543622   -1.678426    0.715419
     26          1           0       -3.016591   -1.551078    1.589282
     27          1           0       -3.946686    0.940869   -1.853656
     28          1           0       -5.058254   -0.297302   -1.261907
     29          1           0       -3.556884   -0.771207   -2.072384
     30          1           0       -2.225132    2.237196   -1.036098
     31          1           0        0.124051    2.860212   -1.359654
     32          1           0        4.961010    1.772969   -0.997429
     33          1           0        6.769997    0.192379   -0.356678
     34          1           0        6.191535   -2.020643    0.607130
     35          1           0        3.806468   -2.644358    0.927637
     36          1           0       -0.972702   -1.552657    0.568120
 ---------------------------------------------------------------------

 SCF Done:  E(UB3LYP) =  -846.260701112     A.U. after    1 cycles

 Alpha  occ. eigenvalues --  -19.13170 -19.13073 -10.28379 -10.28305 -10.21004
 Alpha  occ. eigenvalues --  -10.20954 -10.20799 -10.20604 -10.20558 -10.20029
 Alpha  occ. eigenvalues --  -10.19976 -10.19930 -10.19873 -10.19862 -10.19673
 Alpha  occ. eigenvalues --  -10.19518 -10.19357 -10.16314 -10.16312 -10.16139
 Alpha  occ. eigenvalues --   -1.06464  -1.06246  -0.89581  -0.88470  -0.83736
 Alpha  occ. eigenvalues --   -0.80302  -0.77984  -0.77563  -0.76153  -0.69707
 Alpha  occ. eigenvalues --   -0.69175  -0.68782  -0.66703  -0.64436  -0.61754
 Alpha  occ. eigenvalues --   -0.58737  -0.57962  -0.56108  -0.53456  -0.50635
 Alpha  occ. eigenvalues --   -0.49214  -0.48693  -0.48097  -0.45897  -0.45651
 Alpha  occ. eigenvalues --   -0.45496  -0.45170  -0.44965  -0.44593  -0.44446
 Alpha  occ. eigenvalues --   -0.43013  -0.41890  -0.41249  -0.40468  -0.38740
 Alpha  occ. eigenvalues --   -0.38643  -0.38420  -0.37741  -0.37226  -0.36798
 Alpha  occ. eigenvalues --   -0.36522  -0.34033  -0.34009  -0.33114  -0.28851
 Alpha  occ. eigenvalues --   -0.28820  -0.28057  -0.27672  -0.27611  -0.26907
 Alpha virt. eigenvalues --   -0.11966  -0.07394  -0.03717  -0.02613  -0.00969
 Alpha virt. eigenvalues --   -0.00189   0.00818   0.01319   0.01756   0.01788
 Alpha virt. eigenvalues --    0.02813   0.02970   0.03060   0.03345   0.03560

  Beta  occ. eigenvalues --  -19.13170 -19.13073 -10.28379 -10.28305 -10.21004
  Beta  occ. eigenvalues --  -10.20954 -10.20799 -10.20604 -10.20558 -10.20029
  Beta  occ. eigenvalues --  -10.19976 -10.19930 -10.19873 -10.19862 -10.19673
  Beta  occ. eigenvalues --  -10.19518 -10.19357 -10.16314 -10.16312 -10.16139
  Beta  occ. eigenvalues --   -1.06464  -1.06246  -0.89581  -0.88470  -0.83736
  Beta  occ. eigenvalues --   -0.80302  -0.77984  -0.77563  -0.76153  -0.69707
  Beta  occ. eigenvalues --   -0.69175  -0.68782  -0.66703  -0.64436  -0.61754
  Beta  occ. eigenvalues --   -0.58737  -0.57962  -0.56108  -0.53456  -0.50635
  Beta  occ. eigenvalues --   -0.49214  -0.48693  -0.48097  -0.45897  -0.45651
  Beta  occ. eigenvalues --   -0.45496  -0.45170  -0.44965  -0.44593  -0.44446
  Beta  occ. eigenvalues --   -0.43013  -0.41890  -0.41249  -0.40468  -0.38740
  Beta  occ. eigenvalues --   -0.38643  -0.38420  -0.37741  -0.37226  -0.36798
  Beta  occ. eigenvalues --   -0.36522  -0.34033  -0.34009  -0.33114  -0.28851
  Beta  occ. eigenvalues --   -0.28820  -0.28057  -0.27672  -0.27611  -0.26907
  Beta virt. eigenvalues --   -0.11966  -0.07394  -0.03717  -0.02613  -0.00969
  Beta virt. eigenvalues --   -0.00189   0.00818   0.01319   0.01756   0.01788
  Beta virt. eigenvalues --    0.02813   0.02970   0.03060   0.03345   0.03560

 Mulliken charges and spin densities:
               1          2
     1  C   -0.686048   0.000000
     2  C    0.549242  -0.000000
     3  C   -0.521693   0.000000
     4  C   -0.686638   0.000000
     5  C    0.186285   0.000000
     6  C   -0.531733  -0.000000
     7  C   -0.001551   0.000000
     8  C    0.229429   0.000000
     9  C   -0.796458   0.000000
    10  O   -0.276233  -0.000000
    11  C    0.099215   0.000000
    12  C    0.190945  -0.000000
    13  C   -0.443855  -0.000000
    14  C   -0.448294  -0.000000
    15  C    0.168701   0.000000
    16  C    0.419089  -0.000000
    17  C   -0.698236   0.000000
    18  O   -0.270317  -0.000000
    19  C    0.608904   0.000000
    20  C    0.137647  -0.000000
    21  H    0.171230  -0.000000
    22  H    0.153261   0.000000
    23  H    0.150262   0.000000
    24  H    0.148273  -0.000000
    25  H    0.179767  -0.000000
    26  H    0.148349  -0.000000
    27  H    0.150750   0.000000
    28  H    0.171166  -0.000000
    29  H    0.153224  -0.000000
    30  H    0.189727   0.000000
    31  H    0.201388   0.000000
    32  H    0.186283   0.000000
    33  H    0.209237  -0.000000
    34  H    0.209900  -0.000000
    35  H    0.186317   0.000000
    36  H    0.162464  -0.000000
 Sum of Mulliken charges =  -0.00000   0.00000

 Dipole moment (field-independent basis, Debye):
    X=             -1.1490    Y=             -0.2033    Z=              0.1226  Tot=              1.1732
 Quadrupole moment (field-independent basis, Debye-Ang):
   XX=            -85.9374   YY=           -128.5904   ZZ=           -122.5141
   XY=             -9.6191   XZ=              3.5000   YZ=              3.5699

  Exact polarizability: 427.187  -8.133 310.936  -2.355 -60.328 196.520
 Approx polarizability: 444.894   1.267 390.320  -6.207 -84.192 231.267

                      1                      2                      3
                      A                      A                      A
 Frequencies --     28.3487                37.1732                66.9903
 Red. masses --      4.9993                 3.5587                 5.0565
 Frc consts  --      0.0024                 0.0029                 0.0134
 IR Inten    --      5.9118                 1.2381                 3.6162

                      4                      5                      6
                      A                      A                      A
 Frequencies --    111.2032               123.9784               139.7964
 Red. masses --      4.6636                 4.4239                 4.6681
 Frc consts  --      0.0340                 0.0401                 0.0538
 IR Inten    --      0.0246                 0.6963                 0.5663

                      7                      8                      9
                      A                      A                      A
 Frequencies --    167.9944               217.9151               235.3643
 Red. masses --      4.6322                 2.3027                 4.1227
 Frc consts  --      0.0770                 0.0644                 0.1346
 IR Inten    --      2.3585                 0.3678                 0.2511

                     10                     11                     12
                      A                      A                      A
 Frequencies --    240.9845               246.6502               273.2238
 Red. masses --      1.4457                 2.5844                 1.2314
 Frc consts  --      0.0495                 0.0926                 0.0542
 IR Inten    --      0.1221                 0.5880                 0.4632

                     13                     14                     15
                      A                      A                      A
 Frequencies --    302.2122               323.2481               339.8877
 Red. masses --      3.9867                 1.0572                 2.8773
 Frc consts  --      0.2145                 0.0651                 0.1958
 IR Inten    --      0.2123                 0.0066                 0.0286

                     16                     17                     18
                      A                      A                      A
 Frequencies --    354.0301               383.5017               396.0909
 Red. masses --      2.8616                 8.0612                 2.6489
 Frc consts  --      0.2113                 0.6985                 0.2449
 IR Inten    --      0.1977                23.0754                 0.3267

                     19                     20                     21
                      A                      A                      A
 Frequencies --    406.6128               414.5148               439.5168
 Red. masses --      6.5676                 3.4724                 4.6266
 Frc consts  --      0.6398                 0.3515                 0.5266
 IR Inten    --     29.5912                 0.4372                 2.3326

                     22                     23                     24
                      A                      A                      A
 Frequencies --    443.2044               463.8593               471.2774
 Red. masses --      3.3908                 4.0491                 4.3238
 Frc consts  --      0.3924                 0.5133                 0.5658
 IR Inten    --      0.0276                 0.3325                 1.0254

                     25                     26                     27
                      A                      A                      A
 Frequencies --    485.6212               566.8053               583.9700
 Red. masses --      5.6907                 3.5458                 4.5414
 Frc consts  --      0.7907                 0.6712                 0.9125
 IR Inten    --      2.0805                 5.5830                13.1263

                     28                     29                     30
                      A                      A                      A
 Frequencies --    646.9279               663.6265               684.7442
 Red. masses --      7.0206                 6.1166                 3.6015
 Frc consts  --      1.7312                 1.5871                 0.9949
 IR Inten    --     17.2898                 1.3234                26.0696

                     31                     32                     33
                      A                      A                      A
 Frequencies --    699.9119               716.2606               725.5967
 Red. masses --      6.8409                 6.6019                 2.6842
 Frc consts  --      1.9745                 1.9955                 0.8326
 IR Inten    --      0.5935                 0.1226                97.4500

                     34                     35                     36
                      A                      A                      A
 Frequencies --    742.3542               805.4897               807.2655
 Red. masses --      2.8647                 4.1169                 4.2525
 Frc consts  --      0.9301                 1.5738                 1.6328
 IR Inten    --     24.6114                 0.8492                 0.0021

                     37                     38                     39
                      A                      A                      A
 Frequencies --    809.4423               855.6032               875.9847
 Red. masses --      1.9501                 3.4750                 1.5690
 Frc consts  --      0.7528                 1.4988                 0.7094
 IR Inten    --      8.9526                23.6203                28.4632

                     40                     41                     42
                      A                      A                      A
 Frequencies --    915.2293               926.5791               940.0878
 Red. masses --      1.4166                 1.8127                 1.7097
 Frc consts  --      0.6991                 0.9169                 0.8902
 IR Inten    --      0.5862                 0.1654                 1.3058

                     43                     44                     45
                      A                      A                      A
 Frequencies --    941.9832               945.7938               963.4065
 Red. masses --      7.1805                 1.4499                 1.2000
 Frc consts  --      3.7540                 0.7642                 0.6562
 IR Inten    --    130.1482                11.9081                 0.4626

                     46                     47                     48
                      A                      A                      A
 Frequencies --    981.9386              1002.5233              1011.4725
 Red. masses --      4.4670                 1.3835                 1.3620
 Frc consts  --      2.5377                 0.8193                 0.8210
 IR Inten    --     42.1562                 2.1321                 0.6247

                     49                     50                     51
                      A                      A                      A
 Frequencies --   1023.5293              1042.3314              1046.7419
 Red. masses --      1.3305                 1.4211                 1.3990
 Frc consts  --      0.8212                 0.9097                 0.9031
 IR Inten    --      0.0006                 3.4309                 0.0255

                     52                     53                     54
                      A                      A                      A
 Frequencies --   1056.2152              1102.3683              1112.8831
 Red. masses --      1.9786                 2.5387                 2.0846
 Frc consts  --      1.3005                 1.8176                 1.5211
 IR Inten    --      1.5244                 6.1163                 2.3472

                     55                     56                     57
                      A                      A                      A
 Frequencies --   1141.5682              1174.7102              1188.5883
 Red. masses --      1.9891                 1.3268                 1.8323
 Frc consts  --      1.5273                 1.0788                 1.5251
 IR Inten    --      1.5157                 2.5180                36.8196

                     58                     59                     60
                      A                      A                      A
 Frequencies --   1197.2033              1217.7808              1221.8287
 Red. masses --      2.1180                 2.7164                 2.4788
 Frc consts  --      1.7886                 2.3734                 2.1803
 IR Inten    --     16.6864                 5.8526                 1.5281

                     61                     62                     63
                      A                      A                      A
 Frequencies --   1237.6699              1269.5980              1289.4598
 Red. masses --      1.7756                 2.3972                 1.7242
 Frc consts  --      1.6026                 2.2766                 1.6891
 IR Inten    --     34.5781               451.0459               180.1594

                     64                     65                     66
                      A                      A                      A
 Frequencies --   1306.7920              1318.0222              1350.7253
 Red. masses --      5.2436                 2.2932                 7.0074
 Frc consts  --      5.2758                 2.3471                 7.5325
 IR Inten    --    829.9204                 1.6157                72.3850

                     67                     68                     69
                      A                      A                      A
 Frequencies --   1361.1166              1395.6642              1397.7319
 Red. masses --      8.4097                 1.1998                 1.2527
 Frc consts  --      9.1796                 1.3770                 1.4419
 IR Inten    --     18.1178                 8.7890                25.2901

                     70                     71                     72
                      A                      A                      A
 Frequencies --   1426.1340              1437.3613              1478.4660
 Red. masses --      1.2202                 3.4865                 1.0459
 Frc consts  --      1.4622                 4.2440                 1.3469
 IR Inten    --      0.9279                10.9774                 0.0184

                     73                     74                     75
                      A                      A                      A
 Frequencies --   1479.9845              1481.0318              1483.8868
 Red. masses --      2.2938                 1.0488                 1.0751
 Frc consts  --      2.9602                 1.3554                 1.3948
 IR Inten    --      5.4547                 0.3366                 1.2730

                     76                     77                     78
                      A                      A                      A
 Frequencies --   1495.8238              1501.0781              1501.4383
 Red. masses --      1.0897                 1.0524                 2.5770
 Frc consts  --      1.4365                 1.3971                 3.4228
 IR Inten    --     17.3581                13.2825                20.5175

                     79                     80                     81
                      A                      A                      A
 Frequencies --   1511.6301              1520.5796              1592.6209
 Red. masses --      1.0861                 2.4056                 7.0237
 Frc consts  --      1.4622                 3.2771                10.4964
 IR Inten    --     22.3899                 0.4151                55.7695

                     82                     83                     84
                      A                      A                      A
 Frequencies --   1609.9130              1616.9927              1627.6763
 Red. masses --      6.7651                 6.2044                 5.8249
 Frc consts  --     10.3308                 9.5580                 9.0923
 IR Inten    --     91.9397               439.5172                33.8426

                     85                     86                     87
                      A                      A                      A
 Frequencies --   1690.1062              1699.8913              3021.9899
 Red. masses --     12.2311                11.3613                 1.0343
 Frc consts  --     20.5847                19.3428                 5.5653
 IR Inten    --     27.9647               691.4106                51.6737

                     88                     89                     90
                      A                      A                      A
 Frequencies --   3022.1403              3029.6852              3086.0839
 Red. masses --      1.0345                 1.0358                 1.1028
 Frc consts  --      5.5668                 5.6016                 6.1882
 IR Inten    --     43.8148                34.1487                 7.4653

                     91                     92                     93
                      A                      A                      A
 Frequencies --   3086.8621              3090.7291              3093.2012
 Red. masses --      1.1025                 1.1026                 1.1013
 Frc consts  --      6.1894                 6.2057                 6.2082
 IR Inten    --     16.1491                51.4614               121.9012

                     94                     95                     96
                      A                      A                      A
 Frequencies --   3095.7508              3097.5876              3178.4776
 Red. masses --      1.1019                 1.1013                 1.0874
 Frc consts  --      6.2222                 6.2260                 6.4727
 IR Inten    --     18.0150                85.6839                 3.2678

                     97                     98                     99
                      A                      A                      A
 Frequencies --   3183.8545              3190.7708              3201.8652
 Red. masses --      1.0880                 1.0914                 1.0935
 Frc consts  --      6.4984                 6.5465                 6.6048
 IR Inten    --      9.8057                10.5865                12.2965

                    100                    101                    102
                      A                      A                      A
 Frequencies --   3202.9842              3206.0078              3221.6426
 Red. masses --      1.0925                 1.0955                 1.0891
 Frc consts  --      6.6037                 6.6342                 6.6599
 IR Inten    --      3.7583                19.8985                 1.9803

 - Thermochemistry -
 -------------------
 Temperature   298.150 Kelvin.  Pressure   1.00000 Atm.
 Atom     1 has atomic number  6 and mass  12.00000

 Molecular mass:   264.11503 amu.
 Principal axes and moments of inertia in atomic units:
                           1         2         3
     Eigenvalues --  2155.611719345.23074**********
           X            0.99912   0.03624   0.02123
           Y           -0.04169   0.91747   0.39562
           Z           -0.00514  -0.39616   0.91817
 This molecule is an asymmetric top.
 Rotational symmetry number  1.
 Warning -- assumption of classical behavior for rotation
           may cause significant error
 Rotational temperatures (Kelvin)      0.04018     0.00927     0.00780
 Rotational constants (GHZ):           0.83723     0.19312     0.16258
 Zero-point vibrational energy     762876.4 (Joules/Mol)
                                  182.33183 (Kcal/Mol)
 Warning -- explicit consideration of  27 degrees of freedom as
           vibrations may cause significant error
 Vibrational temperatures:     40.79    53.48    96.38   160.00   178.38
          (Kelvin)            201.14   241.71   313.53   338.64   346.72
                              354.87   393.11   434.82   465.08   489.02
                              509.37   551.77   569.89   585.03   596.39
                              632.37   637.67   667.39   678.06   698.70
                              815.51   840.20   930.78   954.81   985.19
                             1007.02  1030.54  1043.97  1068.08  1158.92
                             1161.48  1164.61  1231.02  1260.35  1316.81
                             1333.14  1352.58  1355.30  1360.79  1386.13
                             1412.79  1442.41  1455.28  1472.63  1499.68
                             1506.03  1519.66  1586.06  1601.19  1642.46
                             1690.15  1710.11  1722.51  1752.12  1757.94
                             1780.73  1826.67  1855.25  1880.18  1896.34
                             1943.39  1958.34  2008.05  2011.02  2051.89
                             2068.04  2127.18  2129.37  2130.87  2134.98
                             2152.16  2159.72  2160.23  2174.90  2187.77
                             2291.43  2316.31  2326.49  2341.86  2431.69
                             2445.76  4347.97  4348.19  4359.04  4440.19
                             4441.31  4446.87  4450.43  4454.09  4456.74
                             4573.12  4580.86  4590.81  4606.77  4608.38
                             4612.73  4635.23

 Zero-point correction=                           0.290564 (Hartree/Particle)
 Thermal correction to Energy=                    0.307494
 Thermal correction to Enthalpy=                  0.308438
 Thermal correction to Gibbs Free Energy=         0.246007
 Sum of electronic and zero-point Energies=           -845.970137
 Sum of electronic and thermal Energies=              -845.953207
 Sum of electronic and thermal Enthalpies=            -845.952263
 Sum of electronic and thermal Free Energies=         -846.014694

                     E (Thermal)             CV                S
                      KCal/Mol        Cal/Mol-Kelvin    Cal/Mol-Kelvin
 Total                  192.955             67.875            131.397
 Electronic               0.000              0.000              0.000
 Translational            0.889              2.981             42.613
 Rotational               0.889              2.981             33.769
 Vibrational            191.178             61.913             55.015
 Vibration     1          0.593              1.984              5.942
 Vibration     2          0.594              1.982              5.404
 Vibration     3          0.598              1.970              4.240
 Vibration     4          0.607              1.940              3.248
 Vibration     5          0.610              1.929              3.037
 Vibration     6          0.615              1.914              2.807
 Vibration     7          0.625              1.882              2.458
 Vibration     8          0.646              1.814              1.976
 Vibration     9          0.655              1.787              1.838
 Vibration    10          0.658              1.778              1.796
 Vibration    11          0.661              1.768              1.754
 Vibration    12          0.676              1.723              1.576
 Vibration    13          0.694              1.670              1.405
 Vibration    14          0.708              1.629              1.294
 Vibration    15          0.720              1.596              1.213
 Vibration    16          0.730              1.567              1.148
 Vibration    17          0.753              1.505              1.025
 Vibration    18          0.763              1.479              0.977
 Vibration    19          0.771              1.456              0.939
 Vibration    20          0.778              1.439              0.911
 Vibration    21          0.800              1.384              0.828
 Vibration    22          0.803              1.376              0.817
 Vibration    23          0.821              1.330              0.755
 Vibration    24          0.828              1.314              0.734
 Vibration    25          0.842              1.282              0.695
 Vibration    26          0.923              1.103              0.510
 Vibration    27          0.941              1.066              0.478

 Optimization completed.
    -- Stationary point found.
 Normal termination of Gaussian 16 at Sat Feb 10 18:32:32 2024.
