 Gaussian 16, Revision A.03,
 Gaussian 16:  ES64L-G16RevA.03 25-Dec-2016

 ----------------------------------------------------------------
 #P UB3LYP/6-311++G(d,p) SCRF=(PCM,Solvent=n,n-DiMethylFormamide)
 ----------------------------------------------------------------

 ------------------
 Radical PCM in DMF
 ------------------
 Symbolic Z-matrix:
 Charge = -1 Multiplicity = 2

                         Standard orientation:
 ---------------------------------------------------------------------
 Center     Atomic      Atomic             Coordinates (Angstroms)
 Number     Number       Type             X           Y           Z
 ---------------------------------------------------------------------
      1          6           0       -4.765798   -0.846958    0.000061
      2          6           0       -3.377866   -0.250707   -0.000038
      3          6           0       -3.209114    1.158008   -0.000046
      4          6           0       -1.948850    1.716604   -0.000031
      5          6           0       -0.787660    0.912299   -0.000008
      6          6           0        0.528740    1.551007    0.000013
      7          8           0        0.664174    2.800351    0.000060
      8          6           0        1.680480    0.645756   -0.000017
      9          6           0        2.984186    1.188926   -0.000042
     10          6           0        4.099754    0.375557   -0.000011
     11          6           0        3.946092   -1.028969    0.000028
     12          6           0        2.681800   -1.583144    0.000040
     13          6           0        1.525032   -0.771869    0.000018
     14          6           0        0.206186   -1.408137   -0.000007
     15          8           0        0.070606   -2.658620   -0.000045
     16          6           0       -0.943342   -0.502957    0.000008
     17          6           0       -2.248657   -1.046804   -0.000017
     18          1           0       -5.337871   -0.533597    0.881922
     19          1           0       -4.725271   -1.938893   -0.001239
     20          1           0       -5.338908   -0.531486   -0.880364
     21          1           0       -4.086279    1.800865   -0.000061
     22          1           0       -1.809015    2.791716   -0.000018
     23          1           0        3.071267    2.269509   -0.000053
     24          1           0        5.094015    0.812787   -0.000012
     25          1           0        4.822632   -1.670468    0.000042
     26          1           0        2.534338   -2.657116    0.000030
     27          1           0       -2.329043   -2.128834   -0.000059
 ---------------------------------------------------------------------

 SCF Done:  E(UB3LYP) =  -728.422284721     A.U. after   18 cycles

 The electronic state is 2-A.
 Alpha  occ. eigenvalues --  -19.07478 -19.07417 -10.22291 -10.22157 -10.18058
 Alpha  occ. eigenvalues --  -10.17224 -10.17174 -10.17159 -10.17115 -10.17065
 Alpha  occ. eigenvalues --  -10.16932 -10.16913 -10.16906 -10.16889 -10.16848
 Alpha  occ. eigenvalues --  -10.16440 -10.16351  -1.00181  -0.99915  -0.86101
 Alpha  occ. eigenvalues --   -0.85106  -0.79064  -0.75817  -0.74964  -0.74220
 Alpha  occ. eigenvalues --   -0.69422  -0.65982  -0.63062  -0.60487  -0.58496
 Alpha  occ. eigenvalues --   -0.55468  -0.52961  -0.51636  -0.47119  -0.46447
 Alpha  occ. eigenvalues --   -0.45577  -0.44381  -0.42469  -0.42315  -0.42195
 Alpha  occ. eigenvalues --   -0.41283  -0.41261  -0.41080  -0.39922  -0.37924
 Alpha  occ. eigenvalues --   -0.37795  -0.36964  -0.36045  -0.34286  -0.34226
 Alpha  occ. eigenvalues --   -0.33285  -0.32997  -0.26486  -0.25719  -0.25340
 Alpha  occ. eigenvalues --   -0.24544  -0.24212  -0.23583  -0.14021
 Alpha virt. eigenvalues --   -0.05185  -0.02053  -0.00370  -0.00206   0.00339
 Alpha virt. eigenvalues --    0.01255   0.01925   0.02329   0.03278   0.03976
 Alpha virt. eigenvalues --    0.04184   0.04483   0.04695   0.05793   0.06082

  Beta  occ. eigenvalues --  -19.06944 -19.06858 -10.22117 -10.21970 -10.18010
  Beta  occ. eigenvalues --  -10.17177 -10.17123 -10.17081 -10.17033 -10.16987
  Beta  occ. eigenvalues --  -10.16913 -10.16906 -10.16883 -10.16849 -10.16823
  Beta  occ. eigenvalues --  -10.16428 -10.16356  -0.99232  -0.98927  -0.85846
  Beta  occ. eigenvalues --   -0.84986  -0.78720  -0.75625  -0.74751  -0.74038
  Beta  occ. eigenvalues --   -0.69214  -0.65319  -0.62892  -0.60247  -0.58438
  Beta  occ. eigenvalues --   -0.55218  -0.52746  -0.51460  -0.46836  -0.46328
  Beta  occ. eigenvalues --   -0.45433  -0.44289  -0.42269  -0.42134  -0.41938
  Beta  occ. eigenvalues --   -0.41054  -0.40555  -0.40375  -0.39687  -0.37734
  Beta  occ. eigenvalues --   -0.36856  -0.35727  -0.35539  -0.34221  -0.34115
  Beta  occ. eigenvalues --   -0.32852  -0.32120  -0.25324  -0.24523  -0.24429
  Beta  occ. eigenvalues --   -0.24041  -0.23612  -0.23078
  Beta virt. eigenvalues --   -0.08143  -0.04252  -0.01054  -0.00358   0.00027
  Beta virt. eigenvalues --    0.00337   0.01260   0.01936   0.02325   0.03443
  Beta virt. eigenvalues --    0.03981   0.04194   0.04493   0.04954   0.06086

 Mulliken charges and spin densities:
               1          2
     1  C   -0.384195  -0.002133
     2  C    0.373946   0.033933
     3  C   -0.430497   0.038061
     4  C    0.102723   0.023973
     5  C    0.190631   0.026961
     6  C   -0.672449   0.098011
     7  O   -0.461096   0.198216
     8  C    0.129784   0.036960
     9  C    0.105480   0.024092
    10  C   -0.462960   0.042130
    11  C   -0.459574   0.034462
    12  C    0.033901   0.030420
    13  C    0.355708   0.035756
    14  C   -0.542032   0.108829
    15  O   -0.461933   0.207943
    16  C    0.121943   0.047508
    17  C   -0.189013   0.025918
    18  H    0.160862   0.002323
    19  H    0.167261   0.000119
    20  H    0.160708   0.002319
    21  H    0.179276  -0.002986
    22  H    0.164549  -0.001338
    23  H    0.164809  -0.001210
    24  H    0.180322  -0.003429
    25  H    0.181478  -0.002947
    26  H    0.162412  -0.001702
    27  H    0.127953  -0.002189
 Sum of Mulliken charges =  -1.00000   1.00000

 Dipole moment (field-independent basis, Debye):
    X=             -2.4890    Y=             -0.3898    Z=              0.0002  Tot=              2.5193
 Quadrupole moment (field-independent basis, Debye-Ang):
   XX=            -94.6968   YY=           -135.4732   ZZ=           -106.1791
   XY=             -3.9980   XZ=             -0.0009   YZ=             -0.0009

 Normal termination of Gaussian 16 at Sun Jan 14 01:14:42 2024.
