 Q-Chem 5.4, Q-Chem, Inc., Pleasanton, CA (2021)
 Q-Chem 5.4.0 for Intel X86 EM64T Linux

User input:
--------------------------------------------------------------
$molecule
0 1
C                  1.7656180000      1.2968070000     -0.4885340000
C                  0.4688920000      1.6460580000      0.1840840000
C                 -0.4903510000      0.7202520000      0.3561470000
C                 -0.3190090000     -0.6826890000     -0.1678730000
C                  0.9798980000     -1.0521030000     -0.7793220000
C                  1.9619350000     -0.1250540000     -0.9469690000
O                  2.6377120000      2.1172600000     -0.6458460000
O                 -1.2302450000     -1.4843340000     -0.1067640000
O                  3.1561630000     -0.2691670000     -1.5197670000
C                  3.7548850000     -1.5538600000     -1.7593270000
Br                 0.3264140000      3.4373130000      0.7607510000
Br                -2.1372220000      1.0574730000      1.2123300000
H                  3.2210790000     -2.1005320000     -2.5338470000
H                  3.7834430000     -2.1406370000     -0.8383820000
H                  4.7688190000     -1.3234840000     -2.0811300000
O                  1.0872520000     -2.2964710000     -1.3191810000
C                  0.9817970000     -3.4298320000     -0.4351280000
H                  0.0063530000     -3.4613980000      0.0469630000
H                  1.7795200000     -3.3977170000      0.3146790000
H                  1.1108170000     -4.3047930000     -1.0702250000
$end
$rem
MAX_SCF_CYCLES=200
BASIS  =  6-311++G(d,p)
GUI  =  2
JOB_TYPE  =  SP
METHOD  =  B3LYP
SOLVENT_METHOD = PCM
$end
$pcm
theory = CPCM
$end
$solvent
dielectric 37.219
opticaldielectric 1.43
$end

--------------------------------------------------------------

             Standard Nuclear Orientation (Angstroms)
    I     Atom           X                Y                Z
 ----------------------------------------------------------------
    1      C       1.7656180000     1.2968070000    -0.4885340000
    2      C       0.4688920000     1.6460580000     0.1840840000
    3      C      -0.4903510000     0.7202520000     0.3561470000
    4      C      -0.3190090000    -0.6826890000    -0.1678730000
    5      C       0.9798980000    -1.0521030000    -0.7793220000
    6      C       1.9619350000    -0.1250540000    -0.9469690000
    7      O       2.6377120000     2.1172600000    -0.6458460000
    8      O      -1.2302450000    -1.4843340000    -0.1067640000
    9      O       3.1561630000    -0.2691670000    -1.5197670000
   10      C       3.7548850000    -1.5538600000    -1.7593270000
   11      Br      0.3264140000     3.4373130000     0.7607510000
   12      Br     -2.1372220000     1.0574730000     1.2123300000
   13      H       3.2210790000    -2.1005320000    -2.5338470000
   14      H       3.7834430000    -2.1406370000    -0.8383820000
   15      H       4.7688190000    -1.3234840000    -2.0811300000
   16      O       1.0872520000    -2.2964710000    -1.3191810000
   17      C       0.9817970000    -3.4298320000    -0.4351280000
   18      H       0.0063530000    -3.4613980000     0.0469630000
   19      H       1.7795200000    -3.3977170000     0.3146790000
   20      H       1.1108170000    -4.3047930000    -1.0702250000
 ----------------------------------------------------------------

    9   -5757.7531305222      4.00e-06  Convergence criterion met
 Total energy in the final basis set =    -5757.7531305222

                    Orbital Energies (a.u.)
 --------------------------------------------------------------

 Alpha MOs
 -- Occupied --
********-482.8574 -62.5107 -62.5101 -56.3313 -56.3308 -56.3274 -56.3269
-56.3269 -56.3264 -19.1867 -19.1668 -19.1577 -19.1505 -10.3111 -10.3054
-10.2805 -10.2768 -10.2752 -10.2648 -10.2271 -10.2206  -8.7195  -8.7189
 -6.5515  -6.5510  -6.5383  -6.5377  -6.5367  -6.5362  -2.6624  -2.6618
 -2.6588  -2.6582  -2.6575  -2.6571  -2.6471  -2.6471  -2.6466  -2.6465
 -1.1156  -1.0966  -1.0855  -1.0684  -0.9023  -0.8357  -0.8265  -0.7667
 -0.7516  -0.6978  -0.6935  -0.6219  -0.6150  -0.5724  -0.5419  -0.5256
 -0.5047  -0.4905  -0.4817  -0.4700  -0.4665  -0.4593  -0.4512  -0.4361
 -0.4314  -0.4252  -0.3866  -0.3737  -0.3659  -0.3605  -0.3309  -0.3290
 -0.3279  -0.3119  -0.2962  -0.2887  -0.2865  -0.2531

          Ground-State Mulliken Net Atomic Charges

     Atom                 Charge (a.u.)
  ----------------------------------------
      1 C                    -0.809874
      2 C                     0.399515
      3 C                     0.681267
      4 C                    -0.543274
      5 C                     0.442675
      6 C                     0.316986
      7 O                    -0.221732
      8 O                    -0.242114
      9 O                    -0.187835
     10 C                    -0.298757
     11 Br                   -0.074921
     12 Br                   -0.052806
     13 H                     0.201568
     14 H                     0.197400
     15 H                     0.203913
     16 O                    -0.208694
     17 C                    -0.325778
     18 H                     0.177758
     19 H                     0.164609
     20 H                     0.180096
  ----------------------------------------
  Sum of atomic charges =     0.000000

                    Cartesian Multipole Moments
 -----------------------------------------------------------------
    Charge (ESU x 10^10)
                 0.0000
    Dipole Moment (Debye)
         X       2.0443      Y      -4.1808      Z       0.6440
       Tot       4.6982
    Quadrupole Moments (Debye-Ang)
        XX    -105.6720     XY     -21.3056     YY    -100.4616
        XZ      -1.5237     YZ       3.4754     ZZ    -104.6264

 Total job time:  28.20s(wall), 211.49s(cpu)
        *  Thank you very much for using Q-Chem.  Have a nice day.  *
