 Q-Chem 5.4, Q-Chem, Inc., Pleasanton, CA (2021)
 Q-Chem 5.4.0 for Intel X86 EM64T Linux

User input:
--------------------------------------------------------------
$molecule
-2 1
O                 -0.3080000000      2.1592900000      0.3710260000
C                 -0.5257480000      0.9163780000      0.1470910000
C                  0.5231160000     -0.0156670000     -0.1669800000
C                  0.2649120000     -1.3725350000     -0.4267590000
O                  1.3185770000     -2.2299730000     -0.7224090000
C                 -1.0380730000     -1.9701560000     -0.4285380000
O                 -1.2518070000     -3.2067130000     -0.6717730000
C                 -2.1126580000     -1.0345300000     -0.1175560000
C                 -3.4467680000     -1.5048310000     -0.0754600000
C                 -4.5079910000     -0.6689320000      0.2196170000
C                 -4.2712730000      0.7017990000      0.4907890000
C                 -2.9742530000      1.1865120000      0.4613850000
C                 -1.8734160000      0.3549960000      0.1679700000
C                  1.9242000000      0.5552370000     -0.2934840000
H                 -3.5969040000     -2.5586080000     -0.2882960000
H                 -5.5230320000     -1.0617780000      0.2428710000
H                 -5.1015260000      1.3661910000      0.7219320000
H                 -2.7558320000      2.2301830000      0.6652690000
C                  2.9231020000      0.0534350000      0.7233110000
C                  4.1958160000     -0.3427080000      0.5464410000
C                  4.9118680000     -0.3811020000     -0.7830260000
C                  5.0468460000     -0.8017460000      1.7086380000
H                  2.1283180000     -1.8318960000     -0.3801520000
H                  1.7953010000      1.6356810000     -0.1488450000
H                  2.3089580000      0.4066470000     -1.3122540000
H                  2.5355740000      0.0294180000      1.7414570000
H                  4.2752450000     -0.0907210000     -1.6198820000
H                  5.3061670000     -1.3877990000     -0.9834980000
H                  5.7822980000      0.2886210000     -0.7731600000
H                  4.5082060000     -0.7486230000      2.6586650000
H                  5.9580820000     -0.1948790000      1.8009560000
H                  5.3896850000     -1.8376490000      1.5690300000
$end
$rem
MAX_SCF_CYCLES=200
BASIS  =  6-311++G(d,p)
GUI  =  2
JOB_TYPE  =  SP
METHOD  =  B3LYP
SOLVENT_METHOD = COSMO
$end
$solvent
dielectric 37.219
opticaldielectric 1.43
$end

--------------------------------------------------------------

             Standard Nuclear Orientation (Angstroms)
    I     Atom           X                Y                Z
 ----------------------------------------------------------------
    1      O      -0.4676248098    -2.5881073686     0.3122751419
    2      C      -0.6682925950    -1.3253258917     0.2256339454
    3      C       0.3884004168    -0.3571955564     0.3422002279
    4      C       0.1484096028     1.0252610437     0.2618051912
    5      O       1.2090281398     1.9164942528     0.3784690874
    6      C      -1.1425625602     1.6207246320     0.0781263300
    7      O      -1.3399000327     2.8819090297     0.0118651869
    8      C      -2.2251185433     0.6501493349    -0.0354292712
    9      C      -3.5483243365     1.1118553205    -0.2323013299
   10      C      -4.6161064081     0.2417569548    -0.3538007594
   11      C      -4.3975190145    -1.1566409108    -0.2818556378
   12      C      -3.1112838433    -1.6349545444    -0.0950741609
   13      C      -2.0039459904    -0.7699598336     0.0271565668
   14      C       1.7741860024    -0.8971377041     0.6472113788
   15      H      -3.6846682265     2.1875846081    -0.2823292296
   16      H      -5.6224451374     0.6291433029    -0.5034374499
   17      H      -5.2330918978    -1.8475543754    -0.3747017538
   18      H      -2.9067655988    -2.6995065901    -0.0365352443
   19      C       2.8115317595    -0.6646305924    -0.4267237906
   20      C       4.0858143908    -0.2521745885    -0.3079929206
   21      C       4.7634950058     0.0950997774     0.9965516624
   22      C       4.9787986186    -0.0942990801    -1.5176723434
   23      H       2.0207219169     1.4388971626     0.1678987414
   24      H       1.6291758730    -1.9792640184     0.7606544563
   25      H       2.1318881211    -0.5134583322     1.6130526460
   26      H       2.4543014133    -0.8805486598    -1.4332732987
   27      H       4.0974346185     0.0206766197     1.8572273784
   28      H       5.1707296348     1.1159688980     0.9636006461
   29      H       5.6210464008    -0.5673814037     1.1754340513
   30      H       4.4671098400    -0.3670910176    -2.4446381228
   31      H       5.8807159890    -0.7159496915    -1.4324855439
   32      H       5.3369256428     0.9409460170    -1.6183531388
 ----------------------------------------------------------------

   15    -805.8840178118      9.83e-06  Convergence criterion met
 Total energy in the final basis set =     -805.8840178118
    6    -806.1650248028      3.35e-06  Convergence criterion met
 Total energy in the final basis set =     -806.1650248028

                    Orbital Energies (a.u.)
 --------------------------------------------------------------

 Alpha MOs
 -- Occupied --
-19.1220 -19.0226 -19.0200 -10.1801 -10.1743 -10.1719 -10.1688 -10.1552
-10.1550 -10.1547 -10.1501 -10.1483 -10.1463 -10.1452 -10.1439 -10.1366
-10.1349 -10.1301  -1.0279  -0.9441  -0.9389  -0.8251  -0.8085  -0.7702
 -0.7341  -0.7218  -0.6913  -0.6843  -0.6493  -0.6202  -0.5856  -0.5686
 -0.5264  -0.5157  -0.5076  -0.4831  -0.4603  -0.4430  -0.4327  -0.4245
 -0.4189  -0.4025  -0.3967  -0.3936  -0.3870  -0.3762  -0.3730  -0.3719
 -0.3662  -0.3615  -0.3526  -0.3476  -0.3340  -0.3286  -0.3175  -0.3154
 -0.3065  -0.3020  -0.2360  -0.2303  -0.2264  -0.2064  -0.1993  -0.1961
 -0.1098

          Ground-State Mulliken Net Atomic Charges

     Atom                 Charge (a.u.)
  ----------------------------------------
      1 O                    -0.705175
      2 C                    -0.874410
      3 C                     1.287356
      4 C                    -0.516098
      5 O                    -0.373246
      6 C                    -0.424767
      7 O                    -0.761826
      8 C                     0.466389
      9 C                    -0.052083
     10 C                    -0.478883
     11 C                    -0.535971
     12 C                     0.002213
     13 C                    -0.189440
     14 C                    -0.072304
     15 H                     0.151001
     16 H                     0.176579
     17 H                     0.175087
     18 H                     0.157181
     19 C                    -0.738040
     20 C                     0.717906
     21 C                    -0.595601
     22 C                    -0.639237
     23 H                     0.337007
     24 H                     0.188454
     25 H                     0.161700
     26 H                     0.185482
     27 H                     0.162609
     28 H                     0.155584
     29 H                     0.159590
     30 H                     0.164352
     31 H                     0.151579
     32 H                     0.157011
  ----------------------------------------
  Sum of atomic charges =    -2.000000

                    Cartesian Multipole Moments
 -----------------------------------------------------------------
    Charge (ESU x 10^10)
                -9.6064
    Dipole Moment (Debye)
         X      12.1320      Y      -3.5899      Z      -1.3495
       Tot      12.7237
    Quadrupole Moments (Debye-Ang)
        XX    -131.1322     XY       8.1365     YY    -179.8144
        XZ       0.2071     YZ       1.3500     ZZ    -117.6293

 Total job time:  98.45s(wall), 757.94s(cpu)
        *  Thank you very much for using Q-Chem.  Have a nice day.  *
