 Q-Chem 5.4, Q-Chem, Inc., Pleasanton, CA (2021)
 Q-Chem 5.4.0 for Intel X86 EM64T Linux

User input:
--------------------------------------------------------------
$molecule
0 1
Cl                 3.1062080000     -0.1883210000      0.0315640000
C                  1.3812120000     -0.0241180000      0.0142390000
C                  0.7813930000      1.1753350000      0.0121020000
C                 -0.6953440000      1.2952570000     -0.0027980000
O                 -1.2372960000      2.3873640000     -0.0047020000
C                 -1.4875190000      0.0393570000     -0.0152830000
C                 -0.8891550000     -1.1572100000     -0.0131520000
C                  0.5887870000     -1.3024260000      0.0016770000
O                  1.1181570000     -2.3933650000      0.0034200000
H                  1.3404350000      2.1029270000      0.0210550000
H                 -2.5654310000      0.1552840000     -0.0260640000
H                 -1.4414470000     -2.0900840000     -0.0220580000
$end

$rem
BASIS  =  6-311++G(d,p)
GUI  =  2
JOB_TYPE  =  SP
METHOD  =  B3LYP
SCF_CONVERGENCE  = 8
SOLVENT_METHOD = sm12
$end

$smx
solvent dimethylformamide
charges CM5
$end

--------------------------------------------------------------

             Standard Nuclear Orientation (Angstroms)
    I     Atom           X                Y                Z
 ----------------------------------------------------------------
    1      Cl      3.1062080000    -0.1883210000     0.0315640000
    2      C       1.3812120000    -0.0241180000     0.0142390000
    3      C       0.7813930000     1.1753350000     0.0121020000
    4      C      -0.6953440000     1.2952570000    -0.0027980000
    5      O      -1.2372960000     2.3873640000    -0.0047020000
    6      C      -1.4875190000     0.0393570000    -0.0152830000
    7      C      -0.8891550000    -1.1572100000    -0.0131520000
    8      C       0.5887870000    -1.3024260000     0.0016770000
    9      O       1.1181570000    -2.3933650000     0.0034200000
   10      H       1.3404350000     2.1029270000     0.0210550000
   11      H      -2.5654310000     0.1552840000    -0.0260640000
   12      H      -1.4414470000    -2.0900840000    -0.0220580000
 ----------------------------------------------------------------

   15    -841.1804398712      8.89e-09  Convergence criterion met
 Total energy in the final basis set =     -841.1953901029

                    Orbital Energies (a.u.)
 --------------------------------------------------------------

 Alpha MOs
 -- Occupied --
******** -19.1519 -19.1462 -10.3008 -10.2935 -10.2769 -10.2219 -10.2186
-10.2171  -9.4922  -7.2568  -7.2474  -7.2463  -1.0857  -1.0765  -0.9121
 -0.8557  -0.7865  -0.7163  -0.6461  -0.6133  -0.5381  -0.5182  -0.4934
 -0.4721  -0.4657  -0.4570  -0.4407  -0.4304  -0.4178  -0.3822  -0.3385
 -0.3173  -0.2999  -0.2935  -0.2893

          Ground-State Mulliken Net Atomic Charges

     Atom                 Charge (a.u.)
  ----------------------------------------
      1 Cl                    0.222368
      2 C                     0.731615
      3 C                    -0.106247
      4 C                    -0.903207
      5 O                    -0.329093
      6 C                     0.571675
      7 C                     0.530785
      8 C                    -1.418158
      9 O                    -0.265327
     10 H                     0.282759
     11 H                     0.340533
     12 H                     0.342298
  ----------------------------------------
  Sum of atomic charges =     0.000000

                    Cartesian Multipole Moments
 -----------------------------------------------------------------
    Charge (ESU x 10^10)
                -0.0000
    Dipole Moment (Debye)
         X      -1.5061      Y      -0.1795      Z      -0.0162
       Tot       1.5168
    Quadrupole Moments (Debye-Ang)
        XX     -57.6475     XY      11.0346     YY     -69.8750
        XZ       0.0370     YZ       0.0724     ZZ     -57.5753

 Total job time:  98.72s(wall), 508.10s(cpu)
        *  Thank you very much for using Q-Chem.  Have a nice day.  *
