 Q-Chem 5.4, Q-Chem, Inc., Pleasanton, CA (2021)
 Q-Chem 5.4.0 for Intel X86 EM64T Linux

User input:
--------------------------------------------------------------
$molecule
0 1
C                 -4.0780180000      3.6028670000      1.5359660000
C                 -4.5614710000      3.8228500000      0.2495100000
C                 -3.9749370000      3.1828330000     -0.8321990000
C                 -2.8933290000      2.3094360000     -0.6540420000
C                 -2.3876870000      2.0727190000      0.6439070000
C                 -3.0048840000      2.7384120000      1.7272160000
C                 -2.5138020000      2.5279110000      3.1266400000
C                 -1.3801780000      1.6136130000      3.3232200000
C                 -0.7753140000      0.9682850000      2.3110060000
C                 -1.2404850000      1.1547730000      0.8917140000
O                 -3.0334110000      3.0939570000      4.0770900000
O                 -0.6640980000      0.5504620000      0.0038510000
H                 -4.5151560000      4.0877550000      2.3988780000
H                 -4.3516200000      3.3538540000     -1.8367620000
O                 -2.3307970000      1.6916270000     -1.7190830000
C                  0.3805120000      0.0358830000      2.5076100000
H                 -5.3969860000      4.4938890000      0.0865880000
H                 -1.0573410000      1.4905200000      4.3521810000
H                 -2.7918270000      1.9610530000     -2.5217910000
H                  0.6477330000     -0.0383010000      3.5623120000
H                  1.2494600000      0.3768010000      1.9383380000
H                  0.1395760000     -0.9597340000      2.1254660000
$end
$rem
MAX_SCF_CYCLES=200
BASIS  =  6-311++G(d,p)
GUI  =  2
JOB_TYPE  =  SP
METHOD  =  B3LYP
SOLVENT_METHOD = PCM
$end
$pcm
theory = CPCM
$end
$solvent
dielectric 37.219
opticaldielectric 1.43
$end

--------------------------------------------------------------

             Standard Nuclear Orientation (Angstroms)
    I     Atom           X                Y                Z
 ----------------------------------------------------------------
    1      C      -4.0780180000     3.6028670000     1.5359660000
    2      C      -4.5614710000     3.8228500000     0.2495100000
    3      C      -3.9749370000     3.1828330000    -0.8321990000
    4      C      -2.8933290000     2.3094360000    -0.6540420000
    5      C      -2.3876870000     2.0727190000     0.6439070000
    6      C      -3.0048840000     2.7384120000     1.7272160000
    7      C      -2.5138020000     2.5279110000     3.1266400000
    8      C      -1.3801780000     1.6136130000     3.3232200000
    9      C      -0.7753140000     0.9682850000     2.3110060000
   10      C      -1.2404850000     1.1547730000     0.8917140000
   11      O      -3.0334110000     3.0939570000     4.0770900000
   12      O      -0.6640980000     0.5504620000     0.0038510000
   13      H      -4.5151560000     4.0877550000     2.3988780000
   14      H      -4.3516200000     3.3538540000    -1.8367620000
   15      O      -2.3307970000     1.6916270000    -1.7190830000
   16      C       0.3805120000     0.0358830000     2.5076100000
   17      H      -5.3969860000     4.4938890000     0.0865880000
   18      H      -1.0573410000     1.4905200000     4.3521810000
   19      H      -2.7918270000     1.9610530000    -2.5217910000
   20      H       0.6477330000    -0.0383010000     3.5623120000
   21      H       1.2494600000     0.3768010000     1.9383380000
   22      H       0.1395760000    -0.9597340000     2.1254660000
 ----------------------------------------------------------------

    9    -649.8510383334      3.84e-06  Convergence criterion met
 Total energy in the final basis set =     -649.8510383334

                    Orbital Energies (a.u.)
 --------------------------------------------------------------

 Alpha MOs
 -- Occupied --
-19.1720 -19.1317 -19.1303 -10.2825 -10.2804 -10.2679 -10.2178 -10.2084
-10.2078 -10.1992 -10.1976 -10.1959 -10.1908 -10.1731  -1.0895  -1.0654
 -1.0638  -0.8869  -0.8439  -0.7872  -0.7712  -0.7281  -0.6824  -0.6580
 -0.6242  -0.6026  -0.5542  -0.5424  -0.5068  -0.5050  -0.4775  -0.4699
 -0.4623  -0.4592  -0.4309  -0.4292  -0.4239  -0.4188  -0.4028  -0.3974
 -0.3951  -0.3822  -0.3779  -0.3584  -0.2970  -0.2852  -0.2791  -0.2707
 -0.2525

          Ground-State Mulliken Net Atomic Charges

     Atom                 Charge (a.u.)
  ----------------------------------------
      1 C                    -0.044492
      2 C                    -0.321647
      3 C                    -0.159046
      4 C                     0.234893
      5 C                    -0.173288
      6 C                     0.866954
      7 C                    -0.900684
      8 C                    -0.386708
      9 C                     0.639502
     10 C                    -0.359959
     11 O                    -0.313431
     12 O                    -0.284491
     13 H                     0.187029
     14 H                     0.209958
     15 O                    -0.232605
     16 C                    -0.324091
     17 H                     0.237474
     18 H                     0.215692
     19 H                     0.326358
     20 H                     0.187166
     21 H                     0.197884
     22 H                     0.197534
  ----------------------------------------
  Sum of atomic charges =     0.000000

                    Cartesian Multipole Moments
 -----------------------------------------------------------------
    Charge (ESU x 10^10)
                 0.0000
    Dipole Moment (Debye)
         X      -1.9256      Y       1.1491      Z      -3.1758
       Tot       3.8877
    Quadrupole Moments (Debye-Ang)
        XX     -65.6130     XY     -10.1287     YY     -76.2949
        XZ      23.7498     YZ     -20.1588     ZZ     -84.9167

 Total job time:  31.67s(wall), 206.21s(cpu)
        *  Thank you very much for using Q-Chem.  Have a nice day.  *
