 Q-Chem 5.4, Q-Chem, Inc., Pleasanton, CA (2021)
 Q-Chem 5.4.0 for Intel X86 EM64T Linux

User input:
--------------------------------------------------------------
$molecule
0 1
O                  2.3501490000      1.6295460000      0.3519760000
C                  1.6647440000      0.4877570000      0.2210540000
C                  2.3807230000     -0.7210530000      0.2558930000
C                  1.7156400000     -1.9273720000      0.1245650000
C                  0.3255770000     -1.9707790000     -0.0446310000
C                 -0.3960100000     -0.7871000000     -0.0811790000
C                 -1.8778450000     -0.8338030000     -0.2615200000
O                 -2.4901770000     -1.8823960000     -0.3799240000
C                 -2.5997120000      0.4626270000     -0.2931480000
C                 -1.9633330000      1.6349060000     -0.1666090000
C                 -0.4984600000      1.7118930000      0.0128610000
O                  0.0472220000      2.8180770000      0.1255000000
C                  0.2612610000      0.4602430000      0.0510120000
H                  1.7029570000      2.3722870000      0.3055450000
H                  3.4549650000     -0.6760270000      0.3870880000
H                  2.2807180000     -2.8521200000      0.1532900000
H                 -0.2007780000     -2.9108550000     -0.1479540000
H                 -3.6741690000      0.3978960000     -0.4251730000
H                 -2.4834730000      2.5862740000     -0.1886440000
$end
$rem
MAX_SCF_CYCLES=200
BASIS  =  6-311++G(d,p)
GUI  =  2
JOB_TYPE  =  SP
METHOD  =  B3LYP
SOLVENT_METHOD = PCM
$end
$pcm
theory = CPCM
$end
$solvent
dielectric 37.219
opticaldielectric 1.43
$end

--------------------------------------------------------------

             Standard Nuclear Orientation (Angstroms)
    I     Atom           X                Y                Z
 ----------------------------------------------------------------
    1      O       2.3501490000     1.6295460000     0.3519760000
    2      C       1.6647440000     0.4877570000     0.2210540000
    3      C       2.3807230000    -0.7210530000     0.2558930000
    4      C       1.7156400000    -1.9273720000     0.1245650000
    5      C       0.3255770000    -1.9707790000    -0.0446310000
    6      C      -0.3960100000    -0.7871000000    -0.0811790000
    7      C      -1.8778450000    -0.8338030000    -0.2615200000
    8      O      -2.4901770000    -1.8823960000    -0.3799240000
    9      C      -2.5997120000     0.4626270000    -0.2931480000
   10      C      -1.9633330000     1.6349060000    -0.1666090000
   11      C      -0.4984600000     1.7118930000     0.0128610000
   12      O       0.0472220000     2.8180770000     0.1255000000
   13      C       0.2612610000     0.4602430000     0.0510120000
   14      H       1.7029570000     2.3722870000     0.3055450000
   15      H       3.4549650000    -0.6760270000     0.3870880000
   16      H       2.2807180000    -2.8521200000     0.1532900000
   17      H      -0.2007780000    -2.9108550000    -0.1479540000
   18      H      -3.6741690000     0.3978960000    -0.4251730000
   19      H      -2.4834730000     2.5862740000    -0.1886440000
 ----------------------------------------------------------------

    9    -610.5304218752      1.99e-06  Convergence criterion met
 Total energy in the final basis set =     -610.5304218752

                    Orbital Energies (a.u.)
 --------------------------------------------------------------

 Alpha MOs
 -- Occupied --
-19.1680 -19.1473 -19.1396 -10.2928 -10.2881 -10.2703 -10.2142 -10.2130
-10.2129 -10.2096 -10.2029 -10.1965 -10.1963  -1.0964  -1.0722  -1.0678
 -0.8914  -0.8433  -0.7830  -0.7745  -0.7066  -0.6625  -0.6520  -0.6086
 -0.5479  -0.5441  -0.5389  -0.5110  -0.4840  -0.4701  -0.4680  -0.4655
 -0.4393  -0.4325  -0.4312  -0.4176  -0.4088  -0.3943  -0.3809  -0.3611
 -0.3139  -0.2987  -0.2861  -0.2832  -0.2542

          Ground-State Mulliken Net Atomic Charges

     Atom                 Charge (a.u.)
  ----------------------------------------
      1 O                    -0.320430
      2 C                    -0.052176
      3 C                    -0.105425
      4 C                    -0.349494
      5 C                    -0.028970
      6 C                     0.414835
      7 C                    -0.387187
      8 O                    -0.311372
      9 C                    -0.039479
     10 C                    -0.154001
     11 C                    -0.398248
     12 O                    -0.355394
     13 C                     0.549548
     14 H                     0.358173
     15 H                     0.235472
     16 H                     0.236825
     17 H                     0.195998
     18 H                     0.254749
     19 H                     0.256577
  ----------------------------------------
  Sum of atomic charges =     0.000000

                    Cartesian Multipole Moments
 -----------------------------------------------------------------
    Charge (ESU x 10^10)
                 0.0000
    Dipole Moment (Debye)
         X       0.2866      Y      -0.5692      Z       0.0106
       Tot       0.6374
    Quadrupole Moments (Debye-Ang)
        XX     -71.8947     XY     -17.1661     YY     -80.3514
        XZ      -0.2940     YZ      -2.2784     ZZ     -75.6053

 Total job time:  26.25s(wall), 147.39s(cpu)
        *  Thank you very much for using Q-Chem.  Have a nice day.  *
