 Q-Chem 5.4, Q-Chem, Inc., Pleasanton, CA (2021)
 Q-Chem 5.4.0 for Intel X86 EM64T Linux

User input:
--------------------------------------------------------------
$molecule
-2 1
O                  1.6785220000      2.5044150000      0.4037070000
C                  1.4094960000      1.2579520000      0.2094230000
C                  0.0512110000      0.7205330000      0.2067770000
C                 -1.0310470000      1.6009060000      0.4267980000
C                 -2.3520640000      1.1817160000      0.4419720000
C                 -2.6511660000     -0.1945770000      0.2280050000
C                 -1.6251620000     -1.0925180000      0.0085650000
C                 -0.2600860000     -0.6952830000     -0.0132080000
C                  0.7834000000     -1.6335380000     -0.2406280000
O                  0.6857830000     -2.9366790000     -0.4552060000
C                  2.0784900000     -1.0793800000     -0.2310420000
O                  3.0875940000     -2.0142270000     -0.4553700000
C                  2.4005720000      0.2622720000     -0.0241960000
O                  3.7586810000      0.6136500000     -0.0528400000
H                 -0.7712050000      2.6440350000      0.5867760000
H                 -3.1551020000      1.8970320000      0.6157870000
H                 -3.6858420000     -0.5373150000      0.2374550000
H                 -1.8312950000     -2.1468320000     -0.1569420000
H                  2.5020060000     -2.8172160000     -0.5534390000
H                  4.2141350000     -0.2200000000     -0.2232610000
$end
$rem
MAX_SCF_CYCLES=200
BASIS  =  6-311++G(d,p)
GUI  =  2
JOB_TYPE  =  SP
METHOD  =  B3LYP
SOLVENT_METHOD = COSMO
$end
$solvent
dielectric 37.219
opticaldielectric 1.43
$end

--------------------------------------------------------------

             Standard Nuclear Orientation (Angstroms)
    I     Atom           X                Y                Z
 ----------------------------------------------------------------
    1      O      -0.3700170233    -2.8401875250     0.0001053877
    2      C      -0.4057453510    -1.5508021279    -0.0001312379
    3      C       0.7917573917    -0.7142906185    -0.0001335445
    4      C       2.0591393050    -1.3375813403    -0.0001390222
    5      C       3.2485745010    -0.6260475715     0.0000367513
    6      C       3.2111730770     0.7980407038     0.0001880911
    7      C       1.9944981532     1.4513693205     0.0000897190
    8      C       0.7567913080     0.7515236736    -0.0000847699
    9      C      -0.4866014987     1.4406387966    -0.0001797134
   10      O      -0.7031986600     2.7470976992     0.0000815199
   11      C      -1.6184001283     0.6019058534    -0.0001999220
   12      O      -2.8273813590     1.2953877942    -0.0000280603
   13      C      -1.6117008480    -0.7932669963    -0.0000973740
   14      O      -2.8535359432    -1.4464075271     0.0001796466
   15      H       2.0551232803    -2.4244174763    -0.0002848747
   16      H       4.2038363482    -1.1497206245     0.0000535659
   17      H       4.1393403359     1.3695462431     0.0003369164
   18      H       1.9433858625     2.5371174150     0.0001100629
   19      H      -2.4478554350     2.2191205691     0.0000199951
   20      H      -3.4976819671    -0.7277078173     0.0009625171
 ----------------------------------------------------------------

   11    -685.7423079006      5.29e-06  Convergence criterion met
 Total energy in the final basis set =     -685.7423079006
    6    -686.0331089314      2.89e-06  Convergence criterion met
 Total energy in the final basis set =     -686.0331089314

                    Orbital Energies (a.u.)
 --------------------------------------------------------------

 Alpha MOs
 -- Occupied --
-19.1302 -19.1247 -19.0395 -19.0296 -10.1892 -10.1868 -10.1839 -10.1746
-10.1509 -10.1491 -10.1485 -10.1477 -10.1461 -10.1433  -1.0447  -1.0201
 -0.9432  -0.9339  -0.8276  -0.7702  -0.7270  -0.7010  -0.6537  -0.5944
 -0.5882  -0.5473  -0.5261  -0.4941  -0.4770  -0.4495  -0.4296  -0.4111
 -0.4075  -0.3995  -0.3895  -0.3803  -0.3667  -0.3573  -0.3548  -0.3469
 -0.3277  -0.3119  -0.3085  -0.3046  -0.2346  -0.2317  -0.2283  -0.2110
 -0.1914  -0.1225

          Ground-State Mulliken Net Atomic Charges

     Atom                 Charge (a.u.)
  ----------------------------------------
      1 O                    -0.740368
      2 C                    -0.530392
      3 C                     0.458094
      4 C                     0.092315
      5 C                    -0.526693
      6 C                    -0.380254
      7 C                    -0.092153
      8 C                     0.471603
      9 C                    -0.838006
     10 O                    -0.771165
     11 C                     0.140448
     12 O                    -0.409254
     13 C                     0.224525
     14 O                    -0.394175
     15 H                     0.153928
     16 H                     0.177325
     17 H                     0.184847
     18 H                     0.155776
     19 H                     0.306988
     20 H                     0.316611
  ----------------------------------------
  Sum of atomic charges =    -2.000000

                    Cartesian Multipole Moments
 -----------------------------------------------------------------
    Charge (ESU x 10^10)
                -9.6064
    Dipole Moment (Debye)
         X       4.1916      Y       3.0636      Z       0.0003
       Tot       5.1918
    Quadrupole Moments (Debye-Ang)
        XX    -103.8267     XY      -3.2639     YY    -147.4930
        XZ      -0.0109     YZ       0.0007     ZZ     -91.2167

 Total job time:  36.38s(wall), 269.73s(cpu)
        *  Thank you very much for using Q-Chem.  Have a nice day.  *
