 Q-Chem 5.4, Q-Chem, Inc., Pleasanton, CA (2021)
 Q-Chem 5.4.0 for Intel X86 EM64T Linux

User input:
--------------------------------------------------------------
$molecule
-2 1
C                 -3.3561780000      3.6818700000      0.0365700000
C                 -4.5671200000      3.0219310000      0.0577440000
C                 -4.5906630000      1.5974020000      0.0820510000
C                 -2.1139180000      2.9947320000      0.0379600000
C                 -2.1376200000      1.5417350000      0.0627900000
C                 -3.4024240000      0.8971700000      0.0841240000
C                 -0.8863330000      3.7624930000      0.0147580000
C                  0.3076150000      2.9521800000      0.0186130000
C                  0.2867030000      1.4978920000      0.0435130000
C                 -0.9361030000      0.7337140000      0.0666070000
C                  1.5726250000      3.5963590000     -0.0028670000
C                  2.7301490000      2.8682170000     -0.0001750000
C                  2.7649080000      1.4391810000      0.0239660000
C                  1.5298370000      0.8173120000      0.0448160000
O                 -0.8631540000      5.0496030000     -0.0074140000
O                 -0.9589790000     -0.5549260000      0.0885960000
Br                 4.4464920000      3.8601740000     -0.0309240000
C                  4.0441670000      0.6435050000      0.0273530000
H                 -3.3030830000      4.7663740000      0.0177660000
H                 -5.4999210000      3.5839820000      0.0559550000
H                 -5.5416810000      1.0669340000      0.0988410000
H                 -3.3853270000     -0.1885320000      0.1023640000
H                  1.5653600000      4.6799840000     -0.0212290000
H                  1.4743040000     -0.2682970000      0.0637430000
H                  4.6753010000      0.8689240000      0.8981010000
H                  4.6628450000      0.8413780000     -0.8588610000
H                  3.8112380000     -0.4250390000      0.0457980000
$end
$rem
MAX_SCF_CYCLES=200
BASIS  =  6-311++G(d,p)
GUI  =  2
JOB_TYPE  =  SP
METHOD  =  B3LYP
SOLVENT_METHOD = COSMO
$end
$solvent
dielectric 37.219
opticaldielectric 1.43
$end

--------------------------------------------------------------

             Standard Nuclear Orientation (Angstroms)
    I     Atom           X                Y                Z
 ----------------------------------------------------------------
    1      C       3.7383457942    -1.6921611392     0.0001258531
    2      C       5.0288938134    -1.2055050403     0.0000936842
    3      C       5.2489507361     0.2023312123    -0.0000133381
    4      C       2.6028198705    -0.8401333551     0.0000772405
    5      C       2.8269663428     0.5958809032     0.0000078862
    6      C       4.1687396979     1.0598772368    -0.0000470548
    7      C       1.2808956872    -1.4312988742     0.0000518577
    8      C       0.2102326968    -0.4639237655    -0.0000243744
    9      C       0.4317947945     0.9737553175    -0.0000226836
   10      C       1.7484905848     1.5620308121    -0.0000049718
   11      C      -1.1316929718    -0.9275116916    -0.0001202705
   12      C      -2.1776281738    -0.0465580251    -0.0002627817
   13      C      -2.0146928462     1.3737894420    -0.0001316953
   14      C      -0.7055021838     1.8194080589    -0.0000395952
   15      O       1.0801758587    -2.7030663674    -0.0000454884
   16      O       1.9491194349     2.8353524249    -0.0001141034
   17      Br     -4.0146141614    -0.7923729436     0.0000070473
   18      C      -3.1718704730     2.3384422973     0.0002763504
   19      H       3.5359783439    -2.7591049077     0.0001984598
   20      H       5.8751848078    -1.8909346720     0.0001684691
   21      H       6.2641696300     0.5965951237    -0.0000848016
   22      H       4.3017492678     2.1376908970    -0.0001252003
   23      H      -1.2741548219    -2.0019127830    -0.0001183463
   24      H      -0.5005664666     2.8871113875    -0.0000281088
   25      H      -3.8188754126     2.2160293657     0.8799044613
   26      H      -3.8212092323     2.2140066614    -0.8773148948
   27      H      -2.7936030332     3.3647431605    -0.0013665997
 ----------------------------------------------------------------

   11   -3301.8085786363      9.42e-06  Convergence criterion met
 Total energy in the final basis set =    -3301.8085786363
    6   -3302.0731910722      2.98e-06  Convergence criterion met
 Total energy in the final basis set =    -3302.0731910722

                    Orbital Energies (a.u.)
 --------------------------------------------------------------

 Alpha MOs
 -- Occupied --
******** -62.4707 -56.2910 -56.2875 -56.2873 -19.0305 -19.0290 -10.2105
-10.1826 -10.1811 -10.1732 -10.1608 -10.1571 -10.1530 -10.1525 -10.1521
-10.1495 -10.1493 -10.1464 -10.1435 -10.1433 -10.1428  -8.6793  -6.5099
 -6.4983  -6.4980  -2.6211  -2.6175  -2.6174  -2.6083  -2.6082  -0.9485
 -0.9447  -0.8506  -0.8280  -0.7857  -0.7650  -0.7378  -0.7273  -0.7108
 -0.6780  -0.6372  -0.6076  -0.5835  -0.5677  -0.5310  -0.5026  -0.4940
 -0.4560  -0.4409  -0.4300  -0.4203  -0.4123  -0.4084  -0.4013  -0.3900
 -0.3853  -0.3778  -0.3724  -0.3674  -0.3540  -0.3479  -0.3349  -0.3263
 -0.3207  -0.3194  -0.3065  -0.2877  -0.2842  -0.2397  -0.2318  -0.2309
 -0.2176  -0.2132  -0.2052  -0.1148

          Ground-State Mulliken Net Atomic Charges

     Atom                 Charge (a.u.)
  ----------------------------------------
      1 C                     0.053585
      2 C                    -0.580618
      3 C                    -0.560915
      4 C                     0.106027
      5 C                     0.267919
      6 C                    -0.040871
      7 C                    -0.624636
      8 C                     0.357712
      9 C                     0.162943
     10 C                    -0.382948
     11 C                    -0.082951
     12 C                    -0.274995
     13 C                     0.314590
     14 C                    -0.254557
     15 O                    -0.689044
     16 O                    -0.695195
     17 Br                   -0.335023
     18 C                    -0.243929
     19 H                     0.159092
     20 H                     0.181551
     21 H                     0.183378
     22 H                     0.155469
     23 H                     0.189755
     24 H                     0.124612
     25 H                     0.166648
     26 H                     0.166253
     27 H                     0.176150
  ----------------------------------------
  Sum of atomic charges =    -2.000000

                    Cartesian Multipole Moments
 -----------------------------------------------------------------
    Charge (ESU x 10^10)
                -9.6064
    Dipole Moment (Debye)
         X     -11.4111      Y       0.6797      Z       0.0020
       Tot      11.4313
    Quadrupole Moments (Debye-Ang)
        XX    -172.4916     XY     -12.3992     YY    -177.7273
        XZ      -0.0052     YZ       0.0004     ZZ    -129.5290

 Total job time:  82.10s(wall), 632.98s(cpu)
        *  Thank you very much for using Q-Chem.  Have a nice day.  *
