 Q-Chem 5.4, Q-Chem, Inc., Pleasanton, CA (2021)
 Q-Chem 5.4.0 for Intel X86 EM64T Linux

User input:
--------------------------------------------------------------
$molecule
-1 2
C                  5.0191580000     -2.3964690000      0.5722360000
C                  5.8235520000     -1.7070930000     -0.3146570000
C                  5.2376280000     -0.8973770000     -1.3090160000
C                  3.6140730000     -2.3050610000      0.5016410000
C                  3.0224160000     -1.4890560000     -0.5000420000
C                  3.8630290000     -0.7938440000     -1.3955030000
C                  2.8013770000     -3.0576650000      1.4696260000
C                  1.3482370000     -2.9127960000      1.3347920000
C                  0.7575780000     -2.0899590000      0.3242570000
C                  1.5658480000     -1.3473280000     -0.6333020000
C                  0.5161560000     -3.6082370000      2.2271770000
C                 -0.6539100000     -1.9965850000      0.2573410000
C                 -1.4651000000     -2.6776050000      1.1332780000
O                  3.3194660000     -3.7762680000      2.3490470000
O                  1.0519000000     -0.6255510000     -1.5231270000
H                  5.4400110000     -3.0264370000      1.3472190000
H                  6.9040860000     -1.7876690000     -0.2471330000
H                  5.8686990000     -0.3549000000     -2.0065690000
H                 -2.5433500000     -2.5950690000      1.0887320000
H                  3.3867690000     -0.1787320000     -2.1499340000
H                  0.9776670000     -4.2249230000      2.9882570000
H                 -1.0740960000     -1.3611460000     -0.5130410000
C                 -0.8576830000     -3.4883420000      2.1256240000
S                 -1.8865330000     -4.3984290000      3.2295080000
O                 -1.1711360000     -4.7944730000      4.4411070000
O                 -3.2001300000     -3.7648400000      3.3632570000
O                 -2.1076840000     -5.7772810000      2.3169790000
C                 -2.9231170000     -6.7898650000      2.9291520000
H                 -2.4723500000     -7.1365130000      3.8625950000
H                 -2.9572990000     -7.6063670000      2.2086890000
H                 -3.9330130000     -6.4141600000      3.1141680000
$end
$rem
MAX_SCF_CYCLES=200
BASIS  =  6-311++G(d,p)
GUI  =  2
JOB_TYPE  =  SP
METHOD  =  B3LYP
SOLVENT_METHOD = PCM
$end
$pcm
theory = CPCM
$end
$solvent
dielectric 37.219
opticaldielectric 1.43
$end

--------------------------------------------------------------

             Standard Nuclear Orientation (Angstroms)
    I     Atom           X                Y                Z
 ----------------------------------------------------------------
    1      C       5.0191580000    -2.3964690000     0.5722360000
    2      C       5.8235520000    -1.7070930000    -0.3146570000
    3      C       5.2376280000    -0.8973770000    -1.3090160000
    4      C       3.6140730000    -2.3050610000     0.5016410000
    5      C       3.0224160000    -1.4890560000    -0.5000420000
    6      C       3.8630290000    -0.7938440000    -1.3955030000
    7      C       2.8013770000    -3.0576650000     1.4696260000
    8      C       1.3482370000    -2.9127960000     1.3347920000
    9      C       0.7575780000    -2.0899590000     0.3242570000
   10      C       1.5658480000    -1.3473280000    -0.6333020000
   11      C       0.5161560000    -3.6082370000     2.2271770000
   12      C      -0.6539100000    -1.9965850000     0.2573410000
   13      C      -1.4651000000    -2.6776050000     1.1332780000
   14      O       3.3194660000    -3.7762680000     2.3490470000
   15      O       1.0519000000    -0.6255510000    -1.5231270000
   16      H       5.4400110000    -3.0264370000     1.3472190000
   17      H       6.9040860000    -1.7876690000    -0.2471330000
   18      H       5.8686990000    -0.3549000000    -2.0065690000
   19      H      -2.5433500000    -2.5950690000     1.0887320000
   20      H       3.3867690000    -0.1787320000    -2.1499340000
   21      H       0.9776670000    -4.2249230000     2.9882570000
   22      H      -1.0740960000    -1.3611460000    -0.5130410000
   23      C      -0.8576830000    -3.4883420000     2.1256240000
   24      S      -1.8865330000    -4.3984290000     3.2295080000
   25      O      -1.1711360000    -4.7944730000     4.4411070000
   26      O      -3.2001300000    -3.7648400000     3.3632570000
   27      O      -2.1076840000    -5.7772810000     2.3169790000
   28      C      -2.9231170000    -6.7898650000     2.9291520000
   29      H      -2.4723500000    -7.1365130000     3.8625950000
   30      H      -2.9572990000    -7.6063670000     2.2086890000
   31      H      -3.9330130000    -6.4141600000     3.1141680000
 ----------------------------------------------------------------

    8   -1352.3142362101      8.41e-06  Convergence criterion met
 Total energy in the final basis set =    -1352.3142362101

                    Orbital Energies (a.u.)
 --------------------------------------------------------------

 Alpha MOs
 -- Occupied --
-89.0898 -19.1746 -19.1399 -19.1386 -19.0892 -19.0855 -10.2405 -10.2333
-10.2255 -10.2211 -10.2001 -10.1943 -10.1885 -10.1878 -10.1843 -10.1821
-10.1816 -10.1781 -10.1772 -10.1756 -10.1746  -8.1509  -6.1146  -6.1130
 -6.1113  -1.1559  -1.0461  -1.0309  -1.0193  -1.0120  -0.8829  -0.8628
 -0.8097  -0.7781  -0.7612  -0.7565  -0.7325  -0.6846  -0.6651  -0.6391
 -0.6133  -0.5997  -0.5709  -0.5604  -0.5432  -0.5297  -0.5071  -0.4977
 -0.4812  -0.4740  -0.4669  -0.4577  -0.4559  -0.4448  -0.4338  -0.4301
 -0.4271  -0.4243  -0.4179  -0.4089  -0.4009  -0.3919  -0.3826  -0.3692
 -0.3583  -0.3554  -0.3534  -0.3520  -0.3431  -0.3391  -0.3336  -0.3045
 -0.2832  -0.2768  -0.2622  -0.2603  -0.2581  -0.2483  -0.1537

 Beta MOs
 -- Occupied --
-89.0898 -19.1745 -19.1398 -19.1386 -19.0847 -19.0799 -10.2391 -10.2315
-10.2255 -10.2203 -10.2005 -10.1932 -10.1875 -10.1863 -10.1844 -10.1818
-10.1810 -10.1779 -10.1768 -10.1756 -10.1745  -8.1509  -6.1145  -6.1130
 -6.1113  -1.1557  -1.0459  -1.0308  -1.0112  -1.0020  -0.8805  -0.8613
 -0.8059  -0.7758  -0.7594  -0.7549  -0.7312  -0.6790  -0.6626  -0.6369
 -0.6118  -0.5989  -0.5694  -0.5585  -0.5414  -0.5290  -0.5054  -0.4973
 -0.4789  -0.4728  -0.4657  -0.4575  -0.4553  -0.4445  -0.4294  -0.4259
 -0.4209  -0.4199  -0.4159  -0.4083  -0.3988  -0.3786  -0.3697  -0.3682
 -0.3574  -0.3550  -0.3516  -0.3444  -0.3416  -0.3390  -0.3313  -0.3043
 -0.2715  -0.2628  -0.2557  -0.2536  -0.2534  -0.2434

          Ground-State Mulliken Net Atomic Charges

     Atom                 Charge (a.u.)    Spin (a.u.)
  --------------------------------------------------------
      1 C                     0.060394       0.015265
      2 C                    -0.468399       0.035705
      3 C                    -0.499193       0.015023
      4 C                     0.315457       0.020796
      5 C                     0.381734       0.002328
      6 C                     0.067233       0.038369
      7 C                    -0.714982       0.076253
      8 C                     0.404661       0.075456
      9 C                     0.767008       0.102395
     10 C                    -0.348196       0.103644
     11 C                     0.123483      -0.021499
     12 C                    -0.093368       0.022713
     13 C                    -0.433087       0.087329
     14 O                    -0.428451       0.174484
     15 O                    -0.455556       0.214841
     16 H                     0.175458      -0.001151
     17 H                     0.204775      -0.002747
     18 H                     0.204176      -0.001635
     19 H                     0.258292      -0.005454
     20 H                     0.176502      -0.002522
     21 H                     0.229146       0.001052
     22 H                     0.180074      -0.000879
     23 C                    -1.235168       0.039130
     24 S                     0.319315       0.007278
     25 O                    -0.244895       0.003100
     26 O                    -0.251818      -0.001451
     27 O                    -0.091786       0.000223
     28 C                    -0.156193       0.001494
     29 H                     0.179395       0.000050
     30 H                     0.194584       0.000404
     31 H                     0.179395       0.000005
  --------------------------------------------------------
  Sum of atomic charges =    -1.000010

                    Cartesian Multipole Moments
 -----------------------------------------------------------------
    Charge (ESU x 10^10)
                -4.8033
    Dipole Moment (Debye)
         X      -5.3988      Y      11.2927      Z      -7.2309
       Tot      14.4554
    Quadrupole Moments (Debye-Ang)
        XX    -148.7627     XY      24.9272     YY    -160.2860
        XZ      -4.0569     YZ      32.3972     ZZ    -176.0081

 Total job time:  194.31s(wall), 560.66s(cpu)
        *  Thank you very much for using Q-Chem.  Have a nice day.  *
