 Gaussian 16, Revision A.03,
 Gaussian 16:  ES64L-G16RevA.03 25-Dec-2016

 ----------------------------------------------------------------------
 #P UB3LYP/6-311++G(d,p) nosym opt freq SCRF=(PCM,Solvent=n,n-DiMethylF
 ormamide)
 ----------------------------------------------------------------------

 -------
 Reduced
 -------
 Symbolic Z-matrix:
 Charge = -2 Multiplicity = 1

 SCF Done:  E(UB3LYP) =  -1301.08700825     A.U. after   18 cycles
 SCF Done:  E(UB3LYP) =  -1301.08755325     A.U. after   13 cycles
 SCF Done:  E(UB3LYP) =  -1301.08765961     A.U. after   12 cycles
 SCF Done:  E(UB3LYP) =  -1301.08766411     A.U. after   13 cycles
 SCF Done:  E(UB3LYP) =  -1301.08766464     A.U. after   11 cycles
 SCF Done:  E(UB3LYP) =  -1301.08766532     A.U. after   13 cycles
 Optimization completed.
    -- Stationary point found.
 Normal termination of Gaussian 16 at Sat Feb 10 10:10:56 2024.

 ----------------------------------------------------------------------
 #P Geom=AllCheck Guess=TCheck SCRF=Check GenChk UB3LYP/6-311++G(d,p) F
 req
 ----------------------------------------------------------------------

 Structure from the checkpoint file:  "009-an.chk"
 -------
 Reduced
 -------
 Charge = -2 Multiplicity = 1

                          Input orientation:
 ---------------------------------------------------------------------
 Center     Atomic      Atomic             Coordinates (Angstroms)
 Number     Number       Type             X           Y           Z
 ---------------------------------------------------------------------
      1         17           0        2.306543   -2.038300    0.059189
      2          6           0        0.947187   -0.886892    0.023785
      3          6           0        1.198508    0.499557    0.000703
      4         17           0        2.876952    1.097703    0.000182
      5          6           0        0.169671    1.487069   -0.025629
      6          8           0        0.380893    2.771726   -0.047895
      7          6           0       -1.136158    0.911160   -0.024218
      8          6           0       -1.384099   -0.455332   -0.003160
      9          6           0       -0.362447   -1.451498    0.021979
     10          8           0       -0.611593   -2.728712    0.040675
     11          1           0       -1.973392    1.605203   -0.041369
     12          1           0       -2.412065   -0.811685   -0.004241
 ---------------------------------------------------------------------

 SCF Done:  E(UB3LYP) =  -1301.08766532     A.U. after    3 cycles

 Alpha  occ. eigenvalues -- -101.53059-101.53046 -19.02062 -19.02045 -10.19318
 Alpha  occ. eigenvalues --  -10.19268 -10.18376 -10.18363 -10.13367 -10.13311
 Alpha  occ. eigenvalues --   -9.44508  -9.44495  -7.20915  -7.20902  -7.20044
 Alpha  occ. eigenvalues --   -7.20030  -7.19972  -7.19958  -0.93636  -0.93100
 Alpha  occ. eigenvalues --   -0.85600  -0.81709  -0.77797  -0.68756  -0.65658
 Alpha  occ. eigenvalues --   -0.56207  -0.54060  -0.45616  -0.43818  -0.42118
 Alpha  occ. eigenvalues --   -0.39133  -0.38797  -0.36459  -0.34509  -0.34177
 Alpha  occ. eigenvalues --   -0.33541  -0.32044  -0.30357  -0.29868  -0.28179
 Alpha  occ. eigenvalues --   -0.23037  -0.21519  -0.20323  -0.20276  -0.12920
 Alpha virt. eigenvalues --    0.00024   0.01015   0.01164   0.02376   0.03777
 Alpha virt. eigenvalues --    0.04230   0.05481   0.05618   0.06626   0.06851
 Alpha virt. eigenvalues --    0.07436   0.08365   0.09001   0.09067   0.09697

  Beta  occ. eigenvalues -- -101.53059-101.53046 -19.02062 -19.02045 -10.19318
  Beta  occ. eigenvalues --  -10.19268 -10.18376 -10.18363 -10.13367 -10.13311
  Beta  occ. eigenvalues --   -9.44508  -9.44495  -7.20915  -7.20902  -7.20044
  Beta  occ. eigenvalues --   -7.20030  -7.19972  -7.19958  -0.93636  -0.93100
  Beta  occ. eigenvalues --   -0.85600  -0.81709  -0.77797  -0.68756  -0.65658
  Beta  occ. eigenvalues --   -0.56207  -0.54060  -0.45616  -0.43818  -0.42118
  Beta  occ. eigenvalues --   -0.39133  -0.38797  -0.36459  -0.34509  -0.34177
  Beta  occ. eigenvalues --   -0.33541  -0.32044  -0.30357  -0.29868  -0.28179
  Beta  occ. eigenvalues --   -0.23037  -0.21519  -0.20323  -0.20276  -0.12920
  Beta virt. eigenvalues --    0.00024   0.01015   0.01164   0.02376   0.03777
  Beta virt. eigenvalues --    0.04230   0.05481   0.05618   0.06626   0.06851
  Beta virt. eigenvalues --    0.07436   0.08365   0.09001   0.09067   0.09697

 Mulliken charges and spin densities:
               1          2
     1  Cl   0.171343   0.000000
     2  C    0.544300  -0.000000
     3  C    0.564910  -0.000000
     4  Cl   0.170167   0.000000
     5  C   -1.074972  -0.000000
     6  O   -0.681435  -0.000000
     7  C   -0.115728   0.000000
     8  C   -0.112070  -0.000000
     9  C   -1.088981   0.000000
    10  O   -0.679546  -0.000000
    11  H    0.150912   0.000000
    12  H    0.151100  -0.000000
 Sum of Mulliken charges =  -2.00000  -0.00000

 Dipole moment (field-independent basis, Debye):
    X=             -4.1458    Y=              0.7280    Z=             -0.0311  Tot=              4.2094
 Quadrupole moment (field-independent basis, Debye-Ang):
   XX=            -93.5151   YY=           -142.4162   ZZ=            -79.4415
   XY=             -9.1286   XZ=              0.0395   YZ=              1.0463

  Exact polarizability: 206.468   2.678 221.172   0.833  -2.263  95.193
 Approx polarizability: 226.544   3.539 245.817   0.938  -2.556 102.661

                      1                      2                      3
                      A                      A                      A
 Frequencies --     67.5504               116.8338               210.6178
 Red. masses --     21.1071                 7.4076                31.5538
 Frc consts  --      0.0567                 0.0596                 0.8247
 IR Inten    --      0.3027                26.6785                 1.9414

                      4                      5                      6
                      A                      A                      A
 Frequencies --    223.3332               251.6011               322.0395
 Red. masses --      7.7443                19.1893                19.1264
 Frc consts  --      0.2276                 0.7157                 1.1687
 IR Inten    --      0.1087                 4.2270                 1.6419

                      7                      8                      9
                      A                      A                      A
 Frequencies --    334.0470               352.3036               469.3023
 Red. masses --      8.9842                20.3586                11.4820
 Frc consts  --      0.5907                 1.4888                 1.4900
 IR Inten    --      0.0146                 1.3903                 1.2606

                     10                     11                     12
                      A                      A                      A
 Frequencies --    470.4333               520.5048               584.4166
 Red. masses --      4.8057                11.8911                 5.0730
 Frc consts  --      0.6266                 1.8981                 1.0208
 IR Inten    --      0.0240                42.2426                 0.6957

                     13                     14                     15
                      A                      A                      A
 Frequencies --    615.9594               715.0630               732.9292
 Red. masses --      2.4516                 8.8027                 6.0498
 Frc consts  --      0.5480                 2.6519                 1.9148
 IR Inten    --      9.6728                 1.1408                 0.0183

                     16                     17                     18
                      A                      A                      A
 Frequencies --    800.0089               834.6123               901.1734
 Red. masses --      2.0384                10.9820                 1.3459
 Frc consts  --      0.7687                 4.5071                 0.6440
 IR Inten    --     75.8879               446.9718                 0.1134

                     19                     20                     21
                      A                      A                      A
 Frequencies --    919.1357              1060.3143              1108.7586
 Red. masses --      8.4775                 3.7965                 1.7676
 Frc consts  --      4.2196                 2.5148                 1.2803
 IR Inten    --    141.3006                33.6673                56.0363

                     22                     23                     24
                      A                      A                      A
 Frequencies --   1177.0738              1291.7764              1343.8028
 Red. masses --      2.8330                 2.3451                11.7309
 Frc consts  --      2.3126                 2.3056                12.4811
 IR Inten    --    254.6475               641.5259                 2.9695

                     25                     26                     27
                      A                      A                      A
 Frequencies --   1378.1166              1405.1540              1474.0298
 Red. masses --      5.6554                 7.4708                 3.6801
 Frc consts  --      6.3282                 8.6909                 4.7111
 IR Inten    --     14.8085              1558.3531               398.8562

                     28                     29                     30
                      A                      A                      A
 Frequencies --   1604.2299              3113.6097              3135.2476
 Red. masses --      7.6387                 1.0851                 1.0933
 Frc consts  --     11.5825                 6.1977                 6.3319
 IR Inten    --     78.1721                54.9901                85.8217

 - Thermochemistry -
 -------------------
 Temperature   298.150 Kelvin.  Pressure   1.00000 Atm.
 Atom     1 has atomic number 17 and mass  34.96885

 Molecular mass:   175.94318 amu.
 Principal axes and moments of inertia in atomic units:
                           1         2         3
     Eigenvalues --  1433.531421812.882563246.40678
           X            0.17621   0.98432  -0.00820
           Y            0.98421  -0.17604   0.01854
           Z           -0.01680   0.01133   0.99979
 This molecule is an asymmetric top.
 Rotational symmetry number  1.
 Warning -- assumption of classical behavior for rotation
           may cause significant error
 Rotational temperatures (Kelvin)      0.06042     0.04778     0.02668
 Rotational constants (GHZ):           1.25895     0.99551     0.55592
 Zero-point vibrational energy     164689.8 (Joules/Mol)
                                   39.36180 (Kcal/Mol)
 Warning -- explicit consideration of  13 degrees of freedom as
           vibrations may cause significant error
 Vibrational temperatures:     97.19   168.10   303.03   321.33   362.00
          (Kelvin)            463.34   480.62   506.89   675.22   676.85
                              748.89   840.85   886.23  1028.82  1054.52
                             1151.03  1200.82  1296.59  1322.43  1525.56
                             1595.26  1693.55  1858.58  1933.43  1982.80
                             2021.70  2120.80  2308.13  4479.79  4510.92

 Zero-point correction=                           0.062727 (Hartree/Particle)
 Thermal correction to Energy=                    0.071345
 Thermal correction to Enthalpy=                  0.072289
 Thermal correction to Gibbs Free Energy=         0.028024
 Sum of electronic and zero-point Energies=          -1301.024938
 Sum of electronic and thermal Energies=             -1301.016320
 Sum of electronic and thermal Enthalpies=           -1301.015376
 Sum of electronic and thermal Free Energies=        -1301.059641

                     E (Thermal)             CV                S
                      KCal/Mol        Cal/Mol-Kelvin    Cal/Mol-Kelvin
 Total                   44.770             31.196             93.163
 Electronic               0.000              0.000              0.000
 Translational            0.889              2.981             41.402
 Rotational               0.889              2.981             30.513
 Vibrational             42.992             25.234             21.249
 Vibration     1          0.598              1.970              4.223
 Vibration     2          0.608              1.935              3.152
 Vibration     3          0.643              1.825              2.038
 Vibration     4          0.649              1.806              1.932
 Vibration     5          0.664              1.760              1.719
 Vibration     6          0.707              1.631              1.300
 Vibration     7          0.716              1.608              1.240
 Vibration     8          0.729              1.571              1.156
 Vibration     9          0.826              1.318              0.740
 Vibration    10          0.827              1.316              0.736
 Vibration    11          0.875              1.205              0.609
 Vibration    12          0.941              1.065              0.477
 Vibration    13          0.976              0.998              0.423

 Optimization completed.
    -- Stationary point found.
 Normal termination of Gaussian 16 at Sat Feb 10 10:20:18 2024.
