 Q-Chem 5.4, Q-Chem, Inc., Pleasanton, CA (2021)
 Q-Chem 5.4.0 for Intel X86 EM64T Linux

User input:
--------------------------------------------------------------
$molecule
-2 1
C                 -4.0732120000      3.5795140000      1.5405380000
C                 -4.5644640000      3.8061190000      0.2740470000
C                 -3.9640610000      3.1583250000     -0.8278580000
C                 -2.8806200000      2.3059540000     -0.6427420000
C                 -2.3514480000      2.0189640000      0.6518070000
C                 -2.9792930000      2.7105880000      1.7667610000
C                 -2.5195140000      2.5449990000      3.1444720000
C                 -1.4179130000      1.6588690000      3.2935900000
C                 -0.8043450000      0.9771390000      2.2422930000
C                 -1.2344850000      1.0926780000      0.8736080000
O                 -3.0680870000      3.1597150000      4.1351670000
O                 -0.6558480000      0.4156810000     -0.0456490000
H                 -4.5027530000      4.0521100000      2.4173510000
H                 -4.3511640000      3.3145890000     -1.8359870000
O                 -2.3216530000      1.7201860000     -1.7634550000
C                  0.3576470000      0.0543520000      2.5048440000
H                 -5.4074860000      4.4744220000      0.1096700000
H                 -1.0467970000      1.5201880000      4.3103390000
H                 -2.7418370000      2.1434750000     -2.5228100000
H                  0.6560080000      0.0892270000      3.5601580000
H                  1.2208260000      0.3171840000      1.8780680000
H                  0.1168380000     -0.9864060000      2.2426100000
$end
$rem
MAX_SCF_CYCLES=200
BASIS  =  6-311++G(d,p)
GUI  =  2
JOB_TYPE  =  SP
METHOD  =  B3LYP
SOLVENT_METHOD = COSMO
$end
$solvent
dielectric 37.219
opticaldielectric 1.43
$end

--------------------------------------------------------------

             Standard Nuclear Orientation (Angstroms)
    I     Atom           X                Y                Z
 ----------------------------------------------------------------
    1      C       1.6869780817    -1.6866961867     0.0189851822
    2      C       2.8685620355    -0.9792097899     0.0193914771
    3      C       2.8305625537     0.4324283392     0.0071730637
    4      C       1.6143500905     1.1069631234    -0.0147067194
    5      C       0.3631944669     0.4197564500     0.0097876196
    6      C       0.4317401370    -1.0331551725     0.0075894525
    7      C      -0.7671497062    -1.8694318347    -0.0068512332
    8      C      -1.9894847152    -1.1436589810    -0.0186074618
    9      C      -2.0819834183     0.2483802682    -0.0077638337
   10      C      -0.9311088008     1.1120675862     0.0268792169
   11      O      -0.7122675214    -3.1567578565    -0.0148724192
   12      O      -1.0771173655     2.3828576008     0.0710763378
   13      H       1.6657100329    -2.7711622779     0.0305806170
   14      H       3.7573513710     1.0080949040     0.0233516072
   15      O       1.6434818736     2.4888044289    -0.0498041673
   16      C      -3.4284851740     0.9247909096    -0.0175591933
   17      H       3.8293562412    -1.4901799102     0.0302919700
   18      H      -2.9027680485    -1.7405783478    -0.0370155277
   19      H       2.5675503467     2.7322630839    -0.1882726757
   20      H      -4.2365761745     0.1893063308    -0.1174319111
   21      H      -3.4999985774     1.6515319242    -0.8383759398
   22      H      -3.5964543903     1.5080826368     0.8997684271
 ----------------------------------------------------------------

   13    -649.7916595311      9.39e-06  Convergence criterion met
 Total energy in the final basis set =     -649.7916595311
    6    -650.0898005427      4.24e-06  Convergence criterion met
 Total energy in the final basis set =     -650.0898005427

                    Orbital Energies (a.u.)
 --------------------------------------------------------------

 Alpha MOs
 -- Occupied --
-19.1329 -19.0203 -19.0157 -10.2150 -10.1724 -10.1698 -10.1493 -10.1451
-10.1449 -10.1384 -10.1379 -10.1371 -10.1258 -10.1183  -1.0422  -0.9388
 -0.9358  -0.8225  -0.7710  -0.7242  -0.7156  -0.6687  -0.6266  -0.5975
 -0.5652  -0.5403  -0.4917  -0.4773  -0.4472  -0.4369  -0.4194  -0.4050
 -0.4003  -0.3862  -0.3766  -0.3622  -0.3589  -0.3491  -0.3484  -0.3388
 -0.3178  -0.3145  -0.3136  -0.3033  -0.2280  -0.2137  -0.2086  -0.2018
 -0.1908  -0.1097

          Ground-State Mulliken Net Atomic Charges

     Atom                 Charge (a.u.)
  ----------------------------------------
      1 C                    -0.111611
      2 C                    -0.449995
      3 C                    -0.265345
      4 C                     0.032781
      5 C                    -0.169607
      6 C                     0.541472
      7 C                    -0.682603
      8 C                    -0.404940
      9 C                     0.595498
     10 C                    -0.307187
     11 O                    -0.755805
     12 O                    -0.710331
     13 H                     0.145509
     14 H                     0.158106
     15 O                    -0.277729
     16 C                    -0.368420
     17 H                     0.184000
     18 H                     0.109216
     19 H                     0.302011
     20 H                     0.142919
     21 H                     0.145750
     22 H                     0.146312
  ----------------------------------------
  Sum of atomic charges =    -2.000000

                    Cartesian Multipole Moments
 -----------------------------------------------------------------
    Charge (ESU x 10^10)
                -9.6064
    Dipole Moment (Debye)
         X       7.6079      Y       4.0020      Z      -0.4229
       Tot       8.6067
    Quadrupole Moments (Debye-Ang)
        XX     -94.6611     XY       5.5287     YY    -153.7961
        XZ      -0.5116     YZ      -1.6454     ZZ     -92.8316

 Total job time:  44.65s(wall), 335.23s(cpu)
        *  Thank you very much for using Q-Chem.  Have a nice day.  *
