 Q-Chem 5.4, Q-Chem, Inc., Pleasanton, CA (2021)
 Q-Chem 5.4.0 for Intel X86 EM64T Linux

User input:
--------------------------------------------------------------
$molecule
-2 1
C                  5.7332030000     -5.3525760000      1.3219410000
C                  6.6989220000     -5.1958990000      0.3457020000
C                  6.6070450000     -4.1667920000     -0.6212270000
C                  4.6038520000     -4.4614770000      1.3728490000
C                  4.5076800000     -3.3864590000      0.3623810000
C                  5.5478640000     -3.2789290000     -0.6268410000
C                  3.5801040000     -4.6252130000      2.4061190000
C                  2.5250580000     -3.6818280000      2.3404970000
C                  2.4340780000     -2.6662360000      1.3856110000
C                  3.3848810000     -2.4474220000      0.3582360000
O                  3.6113560000     -5.5509510000      3.3216130000
O                  3.2461010000     -1.4824640000     -0.5053090000
C                  5.9316670000     -6.4900040000      2.3080350000
H                  7.5475810000     -5.8796050000      0.3217280000
H                  1.5871900000     -1.9786810000      1.4037480000
C                  5.5499280000     -2.2142710000     -1.7094470000
H                  7.3861270000     -4.0709330000     -1.3775910000
H                  6.8641760000     -7.0228040000      2.0615660000
H                  5.0937250000     -7.1897490000      2.2938690000
H                  5.9735750000     -6.1307260000      3.3380270000
H                  1.7489860000     -3.7830680000      3.1005900000
H                  5.5369580000     -1.2072440000     -1.2879060000
H                  4.6529500000     -2.2652060000     -2.3295900000
H                  6.4452460000     -2.3415340000     -2.3390610000
$end

$rem
BASIS  =  6-311++G(d,p)
GUI  =  2
JOB_TYPE  =  SP
METHOD  =  B3LYP
SCF_CONVERGENCE  = 8
SOLVENT_METHOD = sm12
$end

$smx
solvent dimethylformamide
charges CM5
$end

--------------------------------------------------------------

             Standard Nuclear Orientation (Angstroms)
    I     Atom           X                Y                Z
 ----------------------------------------------------------------
    1      C       5.7332030000    -5.3525760000     1.3219410000
    2      C       6.6989220000    -5.1958990000     0.3457020000
    3      C       6.6070450000    -4.1667920000    -0.6212270000
    4      C       4.6038520000    -4.4614770000     1.3728490000
    5      C       4.5076800000    -3.3864590000     0.3623810000
    6      C       5.5478640000    -3.2789290000    -0.6268410000
    7      C       3.5801040000    -4.6252130000     2.4061190000
    8      C       2.5250580000    -3.6818280000     2.3404970000
    9      C       2.4340780000    -2.6662360000     1.3856110000
   10      C       3.3848810000    -2.4474220000     0.3582360000
   11      O       3.6113560000    -5.5509510000     3.3216130000
   12      O       3.2461010000    -1.4824640000    -0.5053090000
   13      C       5.9316670000    -6.4900040000     2.3080350000
   14      H       7.5475810000    -5.8796050000     0.3217280000
   15      H       1.5871900000    -1.9786810000     1.4037480000
   16      C       5.5499280000    -2.2142710000    -1.7094470000
   17      H       7.3861270000    -4.0709330000    -1.3775910000
   18      H       6.8641760000    -7.0228040000     2.0615660000
   19      H       5.0937250000    -7.1897490000     2.2938690000
   20      H       5.9735750000    -6.1307260000     3.3380270000
   21      H       1.7489860000    -3.7830680000     3.1005900000
   22      H       5.5369580000    -1.2072440000    -1.2879060000
   23      H       4.6529500000    -2.2652060000    -2.3295900000
   24      H       6.4452460000    -2.3415340000    -2.3390610000
 ----------------------------------------------------------------

   18    -613.8609624179      2.92e-09  Convergence criterion met
 Total energy in the final basis set =     -614.1547156539

                    Orbital Energies (a.u.)
 --------------------------------------------------------------

 Alpha MOs
 -- Occupied --
-19.0202 -19.0202 -10.1865 -10.1864 -10.1805 -10.1804 -10.1671 -10.1666
-10.1654 -10.1654 -10.1648 -10.1645 -10.1413 -10.1408  -0.9352  -0.9319
 -0.8471  -0.7827  -0.7822  -0.7231  -0.7101  -0.6695  -0.6413  -0.6024
 -0.5908  -0.5190  -0.4934  -0.4785  -0.4628  -0.4377  -0.4221  -0.4118
 -0.4106  -0.4019  -0.3920  -0.3809  -0.3752  -0.3662  -0.3586  -0.3473
 -0.3316  -0.3268  -0.3226  -0.3179  -0.2375  -0.2372  -0.2297  -0.1963
 -0.1958  -0.1219

          Ground-State Mulliken Net Atomic Charges

     Atom                 Charge (a.u.)
  ----------------------------------------
      1 C                     0.875921
      2 C                     0.207019
      3 C                     0.200862
      4 C                    -1.426851
      5 C                    -1.431018
      6 C                     0.876623
      7 C                    -2.069945
      8 C                    -0.754434
      9 C                    -0.752340
     10 C                    -2.071301
     11 O                    -0.313103
     12 O                    -0.314150
     13 C                     1.593943
     14 H                     0.291498
     15 H                     0.065459
     16 C                     1.588791
     17 H                     0.291151
     18 H                     0.304781
     19 H                     0.116848
     20 H                     0.117235
     21 H                     0.065672
     22 H                     0.116585
     23 H                     0.116541
     24 H                     0.304212
  ----------------------------------------
  Sum of atomic charges =    -2.000000

                    Cartesian Multipole Moments
 -----------------------------------------------------------------
    Charge (ESU x 10^10)
                -9.6064
    Dipole Moment (Debye)
         X     -36.4916      Y      35.0643      Z     -11.8197
       Tot      51.9697
    Quadrupole Moments (Debye-Ang)
        XX    -249.4980     XY     141.1534     YY    -254.3990
        XZ     -40.1730     YZ      67.5352     ZZ    -139.1342

 Total job time:  561.81s(wall), 3613.04s(cpu)
        *  Thank you very much for using Q-Chem.  Have a nice day.  *
