 Gaussian 16, Revision A.03,
 Gaussian 16:  ES64L-G16RevA.03 25-Dec-2016

 ----------------------------------------------------------------------
 #P UB3LYP/6-311++G(d,p) nosym opt freq SCRF=(PCM,Solvent=n,n-DiMethylF
 ormamide)
 ----------------------------------------------------------------------

 --------
 Oxidized
 --------
 Symbolic Z-matrix:
 Charge =  0 Multiplicity = 1

 SCF Done:  E(UB3LYP) =  -3393.14541006     A.U. after   16 cycles
 SCF Done:  E(UB3LYP) =  -3393.14548417     A.U. after   12 cycles
 SCF Done:  E(UB3LYP) =  -3393.14551701     A.U. after   11 cycles
 SCF Done:  E(UB3LYP) =  -3393.14553251     A.U. after   10 cycles
 SCF Done:  E(UB3LYP) =  -3393.14553309     A.U. after    8 cycles
 SCF Done:  E(UB3LYP) =  -3393.14553330     A.U. after    8 cycles
 Optimization completed.
    -- Stationary point found.
 Normal termination of Gaussian 16 at Sat Feb 10 22:33:59 2024.

 ----------------------------------------------------------------------
 #P Geom=AllCheck Guess=TCheck SCRF=Check GenChk UB3LYP/6-311++G(d,p) F
 req
 ----------------------------------------------------------------------

 Structure from the checkpoint file:  "183.chk"
 --------
 Oxidized
 --------
 Charge =  0 Multiplicity = 1

                          Input orientation:
 ---------------------------------------------------------------------
 Center     Atomic      Atomic             Coordinates (Angstroms)
 Number     Number       Type             X           Y           Z
 ---------------------------------------------------------------------
      1          6           0        4.879264   -2.851699   -0.358588
      2          6           0        5.608012   -1.955847   -1.129808
      3          6           0        5.020815   -0.758272   -1.551075
      4          6           0        3.557016   -2.558999   -0.001323
      5          6           0        2.965049   -1.355925   -0.423106
      6          6           0        3.709287   -0.460945   -1.199961
      7          6           0        2.790379   -3.515907    0.816643
      8          6           0        1.411670   -3.185096    1.175189
      9          6           0        0.799815   -1.960552    0.750649
     10          6           0        1.562278   -1.011033   -0.062035
     11          6           0        0.686311   -4.099322    1.953762
     12          6           0       -0.644939   -3.808075    2.315460
     13          6           0       -0.542649   -1.664826    1.115068
     14          6           0       -1.228479   -2.639898    1.910672
     15          8           0        3.315481   -4.584416    1.191902
     16          8           0        1.085383    0.064562   -0.458582
     17          8           0        1.192481   -5.264195    2.387549
     18         35           0       -3.038710   -2.303939    2.436042
     19          7           0       -1.165681   -0.527669    0.743072
     20          1           0        5.317872   -3.782897   -0.023982
     21          1           0        6.630794   -2.185076   -1.404629
     22          1           0        5.589397   -0.059157   -2.153126
     23          1           0        3.244777    0.462560   -1.519893
     24          1           0       -1.186519   -4.526834    2.915998
     25          1           0        2.125160   -5.303064    2.044977
     26          1           0       -0.647408    0.135957    0.180703
     27          1           0       -2.118186   -0.353407    1.019841
 ---------------------------------------------------------------------

 SCF Done:  E(UB3LYP) =  -3393.14553330     A.U. after    1 cycles

 Alpha  occ. eigenvalues -- -482.85360 -62.50641 -56.32678 -56.32290 -56.32273
 Alpha  occ. eigenvalues --  -19.16406 -19.13770 -19.12584 -14.34361 -10.28736
 Alpha  occ. eigenvalues --  -10.28021 -10.26997 -10.26406 -10.26226 -10.21216
 Alpha  occ. eigenvalues --  -10.21206 -10.21157 -10.20972 -10.20913 -10.19932
 Alpha  occ. eigenvalues --  -10.19907 -10.19815 -10.19708  -8.71613  -6.54755
 Alpha  occ. eigenvalues --   -6.53461  -6.53432  -2.65847  -2.65477  -2.65459
 Alpha  occ. eigenvalues --   -2.64431  -2.64428  -1.09277  -1.05847  -1.05712
 Alpha  occ. eigenvalues --   -0.96027  -0.89384  -0.87961  -0.84336  -0.80176
 Alpha  occ. eigenvalues --   -0.78060  -0.77052  -0.75635  -0.69688  -0.67106
 Alpha  occ. eigenvalues --   -0.65864  -0.63063  -0.60235  -0.58570  -0.56230
 Alpha  occ. eigenvalues --   -0.55037  -0.54113  -0.51320  -0.49641  -0.48792
 Alpha  occ. eigenvalues --   -0.48421  -0.46911  -0.46140  -0.45632  -0.45252
 Alpha  occ. eigenvalues --   -0.44441  -0.44241  -0.43015  -0.42723  -0.40713
 Alpha  occ. eigenvalues --   -0.39605  -0.39250  -0.38323  -0.37846  -0.36922
 Alpha  occ. eigenvalues --   -0.33995  -0.31789  -0.31743  -0.29441  -0.28688
 Alpha  occ. eigenvalues --   -0.27961  -0.27884  -0.27505  -0.22279
 Alpha virt. eigenvalues --   -0.12290  -0.07036  -0.04432  -0.03186  -0.01578
 Alpha virt. eigenvalues --   -0.00713   0.00089   0.00746   0.01669   0.02089
 Alpha virt. eigenvalues --    0.02647   0.03274   0.03731   0.03868   0.04046

  Beta  occ. eigenvalues -- -482.85360 -62.50641 -56.32678 -56.32290 -56.32273
  Beta  occ. eigenvalues --  -19.16406 -19.13770 -19.12584 -14.34361 -10.28736
  Beta  occ. eigenvalues --  -10.28021 -10.26997 -10.26406 -10.26226 -10.21216
  Beta  occ. eigenvalues --  -10.21206 -10.21157 -10.20972 -10.20913 -10.19932
  Beta  occ. eigenvalues --  -10.19907 -10.19815 -10.19708  -8.71613  -6.54755
  Beta  occ. eigenvalues --   -6.53461  -6.53432  -2.65847  -2.65477  -2.65459
  Beta  occ. eigenvalues --   -2.64431  -2.64428  -1.09277  -1.05847  -1.05712
  Beta  occ. eigenvalues --   -0.96027  -0.89384  -0.87961  -0.84336  -0.80176
  Beta  occ. eigenvalues --   -0.78060  -0.77052  -0.75635  -0.69688  -0.67106
  Beta  occ. eigenvalues --   -0.65864  -0.63063  -0.60235  -0.58570  -0.56230
  Beta  occ. eigenvalues --   -0.55037  -0.54113  -0.51320  -0.49641  -0.48792
  Beta  occ. eigenvalues --   -0.48421  -0.46911  -0.46140  -0.45632  -0.45252
  Beta  occ. eigenvalues --   -0.44441  -0.44241  -0.43015  -0.42723  -0.40713
  Beta  occ. eigenvalues --   -0.39605  -0.39250  -0.38323  -0.37846  -0.36922
  Beta  occ. eigenvalues --   -0.33995  -0.31789  -0.31743  -0.29441  -0.28688
  Beta  occ. eigenvalues --   -0.27961  -0.27884  -0.27505  -0.22279
  Beta virt. eigenvalues --   -0.12290  -0.07036  -0.04432  -0.03186  -0.01578
  Beta virt. eigenvalues --   -0.00713   0.00089   0.00746   0.01669   0.02089
  Beta virt. eigenvalues --    0.02647   0.03274   0.03731   0.03868   0.04046

 Mulliken charges and spin densities:
               1          2
     1  C    0.081792   0.000000
     2  C   -0.494439  -0.000000
     3  C   -0.530175   0.000000
     4  C    0.171566   0.000000
     5  C    0.001623  -0.000000
     6  C    0.148713  -0.000000
     7  C   -0.292861   0.000000
     8  C    0.641898   0.000000
     9  C    0.523023  -0.000000
    10  C   -0.222973  -0.000000
    11  C   -0.380442  -0.000000
    12  C    0.116095  -0.000000
    13  C   -0.599236   0.000000
    14  C    0.240135  -0.000000
    15  O   -0.340765  -0.000000
    16  O   -0.330488  -0.000000
    17  O   -0.329784   0.000000
    18  Br  -0.120157   0.000000
    19  N   -0.323061   0.000000
    20  H    0.192815  -0.000000
    21  H    0.205103   0.000000
    22  H    0.206020   0.000000
    23  H    0.190614   0.000000
    24  H    0.265839   0.000000
    25  H    0.353219   0.000000
    26  H    0.348081  -0.000000
    27  H    0.277846  -0.000000
 Sum of Mulliken charges =  -0.00000   0.00000

 Dipole moment (field-independent basis, Debye):
    X=             -0.1221    Y=              2.1925    Z=             -1.1443  Tot=              2.4762
 Quadrupole moment (field-independent basis, Debye-Ang):
   XX=            -99.1276   YY=           -139.6033   ZZ=           -122.8161
   XY=              5.4718   XZ=            -12.9270   YZ=              5.9921

  Exact polarizability: 463.501 -15.860 294.036-120.240 -80.698 224.408
 Approx polarizability: 505.559 -34.654 374.367-116.987-103.814 259.931

                      1                      2                      3
                      A                      A                      A
 Frequencies --     29.5309                68.1482                81.6697
 Red. masses --      9.0146                 6.8755                10.5850
 Frc consts  --      0.0046                 0.0188                 0.0416
 IR Inten    --      5.9945                19.0779                 0.8590

                      4                      5                      6
                      A                      A                      A
 Frequencies --    124.0249               143.3368               156.7572
 Red. masses --      4.6325                10.5664                 8.3106
 Frc consts  --      0.0420                 0.1279                 0.1203
 IR Inten    --     15.1173                 0.1964                 1.5072

                      7                      8                      9
                      A                      A                      A
 Frequencies --    165.9893               212.9978               220.2196
 Red. masses --      1.3334                 4.2815                12.3995
 Frc consts  --      0.0216                 0.1144                 0.3543
 IR Inten    --    198.2510                23.6843                 1.7707

                     10                     11                     12
                      A                      A                      A
 Frequencies --    247.0568               252.8185               331.3792
 Red. masses --      7.0510                 5.7582                 6.0691
 Frc consts  --      0.2536                 0.2168                 0.3927
 IR Inten    --      0.1953                12.1200                 8.6341

                     13                     14                     15
                      A                      A                      A
 Frequencies --    360.4846               381.4029               396.2684
 Red. masses --      4.8445                 6.6275                10.8885
 Frc consts  --      0.3709                 0.5680                 1.0074
 IR Inten    --      3.0542                11.4766                 0.8429

                     16                     17                     18
                      A                      A                      A
 Frequencies --    426.3020               436.1274               442.2735
 Red. masses --      3.4105                 7.6883                 5.5534
 Frc consts  --      0.3652                 0.8616                 0.6400
 IR Inten    --      1.9410                81.1601                 6.1157

                     19                     20                     21
                      A                      A                      A
 Frequencies --    451.6836               486.9703               496.0092
 Red. masses --     10.5417                 8.8914                 4.4945
 Frc consts  --      1.2672                 1.2423                 0.6515
 IR Inten    --      1.7984                48.0087                 7.3672

                     22                     23                     24
                      A                      A                      A
 Frequencies --    526.7829               536.1388               625.5255
 Red. masses --      5.6748                 7.2695                 3.6572
 Frc consts  --      0.9278                 1.2311                 0.8431
 IR Inten    --     11.1330                18.1308                18.5722

                     25                     26                     27
                      A                      A                      A
 Frequencies --    641.0896               645.6388               669.8458
 Red. masses --      5.3357                 1.2906                 6.1702
 Frc consts  --      1.2920                 0.3170                 1.6312
 IR Inten    --      1.6760                 3.4060                15.8390

                     28                     29                     30
                      A                      A                      A
 Frequencies --    674.5996               713.0670               727.0619
 Red. masses --      4.0652                 6.0174                 6.8055
 Frc consts  --      1.0900                 1.8027                 2.1196
 IR Inten    --      7.1678                 0.2841                24.5861

                     31                     32                     33
                      A                      A                      A
 Frequencies --    741.9666               783.5097               792.0785
 Red. masses --      2.0978                 7.0818                 4.3640
 Frc consts  --      0.6804                 2.5614                 1.6131
 IR Inten    --     81.3306                57.2524                16.9165

                     34                     35                     36
                      A                      A                      A
 Frequencies --    803.4796               816.6892               894.1839
 Red. masses --      1.1948                 2.1008                 1.3996
 Frc consts  --      0.4545                 0.8255                 0.6593
 IR Inten    --    186.3938                 2.4844                18.2038

                     37                     38                     39
                      A                      A                      A
 Frequencies --    902.4382               911.6543               912.3665
 Red. masses --      8.5680                 1.4129                 6.7436
 Frc consts  --      4.1112                 0.6919                 3.3074
 IR Inten    --     44.3989                 0.1467                23.3759

                     40                     41                     42
                      A                      A                      A
 Frequencies --    996.7739              1001.4929              1022.5191
 Red. masses --      5.5508                 1.3835                 1.3289
 Frc consts  --      3.2493                 0.8176                 0.8186
 IR Inten    --     50.9453                 1.8760                 0.0335

                     43                     44                     45
                      A                      A                      A
 Frequencies --   1034.0775              1056.8616              1114.2189
 Red. masses --      2.7810                 1.8909                 2.2450
 Frc consts  --      1.7521                 1.2444                 1.6421
 IR Inten    --    464.3538                24.0583                 7.6680

                     46                     47                     48
                      A                      A                      A
 Frequencies --   1137.4261              1180.3510              1187.6772
 Red. masses --      2.4487                 1.1364                 2.1375
 Frc consts  --      1.8665                 0.9328                 1.7765
 IR Inten    --    144.2445                51.0858                14.5850

                     49                     50                     51
                      A                      A                      A
 Frequencies --   1237.2135              1259.7967              1276.1523
 Red. masses --      2.0926                 3.0191                 2.4813
 Frc consts  --      1.8872                 2.8231                 2.3808
 IR Inten    --    653.1644              1049.2668                95.9408

                     52                     53                     54
                      A                      A                      A
 Frequencies --   1303.7026              1339.9535              1357.2074
 Red. masses --      2.3899                 3.3272                 7.6233
 Frc consts  --      2.3932                 3.5198                 8.2735
 IR Inten    --    245.1097               381.3435                 2.0966

                     55                     56                     57
                      A                      A                      A
 Frequencies --   1380.0774              1415.3105              1426.0752
 Red. masses --      3.4910                 7.2922                 3.7235
 Frc consts  --      3.9175                 8.6063                 4.4616
 IR Inten    --    340.5970                98.0186               232.7420

                     58                     59                     60
                      A                      A                      A
 Frequencies --   1461.6055              1483.9851              1504.6017
 Red. masses --      3.6980                 2.5569                 2.6624
 Frc consts  --      4.6546                 3.3176                 3.5511
 IR Inten    --    211.9042                 7.8975                 6.3235

                     61                     62                     63
                      A                      A                      A
 Frequencies --   1546.1598              1585.8236              1600.1005
 Red. masses --      4.2897                 2.1184                 3.3050
 Frc consts  --      6.0421                 3.1389                 4.9855
 IR Inten    --    415.6067               521.9523               365.2372

                     64                     65                     66
                      A                      A                      A
 Frequencies --   1607.8708              1617.3751              1648.9275
 Red. masses --      6.1096                 3.4274                 6.9059
 Frc consts  --      9.3060                 5.2824                11.0630
 IR Inten    --    366.2735               211.5474               261.6776

                     67                     68                     69
                      A                      A                      A
 Frequencies --   1660.5870              3178.3432              3191.1079
 Red. masses --      9.1101                 1.0876                 1.0919
 Frc consts  --     14.8012                 6.4732                 6.5512
 IR Inten    --     15.1293                 4.1881                29.8167

                     70                     71                     72
                      A                      A                      A
 Frequencies --   3195.5467              3206.4253              3209.1913
 Red. masses --      1.0697                 1.0927                 1.0944
 Frc consts  --      6.4358                 6.6188                 6.6409
 IR Inten    --    327.3208                 5.6029                19.4160

                     73                     74                     75
                      A                      A                      A
 Frequencies --   3210.3003              3501.4909              3672.8827
 Red. masses --      1.0925                 1.0521                 1.0997
 Frc consts  --      6.6340                 7.5999                 8.7402
 IR Inten    --      0.5688               135.2913               257.6337

 - Thermochemistry -
 -------------------
 Temperature   298.150 Kelvin.  Pressure   1.00000 Atm.
 Atom     1 has atomic number  6 and mass  12.00000

 Molecular mass:   316.96875 amu.
 Principal axes and moments of inertia in atomic units:
                           1         2         3
     Eigenvalues --  2665.40088********************
           X            0.91878  -0.22446   0.32476
           Y            0.05828   0.89074   0.45076
           Z           -0.39045  -0.39522   0.83147
 This molecule is an asymmetric top.
 Rotational symmetry number  1.
 Warning -- assumption of classical behavior for rotation
           may cause significant error
 Rotational temperatures (Kelvin)      0.03250     0.00827     0.00659
 Rotational constants (GHZ):           0.67710     0.17228     0.13734
 Zero-point vibrational energy     496682.2 (Joules/Mol)
                                  118.70989 (Kcal/Mol)
 Warning -- explicit consideration of  23 degrees of freedom as
           vibrations may cause significant error
 Vibrational temperatures:     42.49    98.05   117.50   178.44   206.23
          (Kelvin)            225.54   238.82   306.46   316.85   355.46
                              363.75   476.78   518.66   548.75   570.14
                              613.35   627.49   636.33   649.87   700.64
                              713.65   757.92   771.38   899.99   922.38
                              928.93   963.76   970.60  1025.94  1046.08
                             1067.52  1127.30  1139.62  1156.03  1175.03
                             1286.53  1298.41  1311.67  1312.69  1434.14
                             1440.92  1471.18  1487.81  1520.59  1603.11
                             1636.50  1698.26  1708.80  1780.07  1812.57
                             1836.10  1875.74  1927.89  1952.72  1985.62
                             2036.32  2051.80  2102.92  2135.12  2164.79
                             2224.58  2281.65  2302.19  2313.37  2327.04
                             2372.44  2389.21  4572.93  4591.29  4597.68
                             4613.33  4617.31  4618.91  5037.86  5284.46

 Zero-point correction=                           0.189176 (Hartree/Particle)
 Thermal correction to Energy=                    0.204305
 Thermal correction to Enthalpy=                  0.205249
 Thermal correction to Gibbs Free Energy=         0.145921
 Sum of electronic and zero-point Energies=          -3392.956357
 Sum of electronic and thermal Energies=             -3392.941228
 Sum of electronic and thermal Enthalpies=           -3392.940284
 Sum of electronic and thermal Free Energies=        -3392.999613

                     E (Thermal)             CV                S
                      KCal/Mol        Cal/Mol-Kelvin    Cal/Mol-Kelvin
 Total                  128.204             59.325            124.868
 Electronic               0.000              0.000              0.000
 Translational            0.889              2.981             43.157
 Rotational               0.889              2.981             34.261
 Vibrational            126.426             53.363             47.451
 Vibration     1          0.593              1.984              5.861
 Vibration     2          0.598              1.969              4.206
 Vibration     3          0.600              1.962              3.850
 Vibration     4          0.610              1.929              3.037
 Vibration     5          0.616              1.910              2.759
 Vibration     6          0.620              1.895              2.589
 Vibration     7          0.624              1.884              2.480
 Vibration     8          0.644              1.821              2.018
 Vibration     9          0.647              1.810              1.957
 Vibration    10          0.661              1.768              1.751
 Vibration    11          0.664              1.758              1.711
 Vibration    12          0.714              1.613              1.253
 Vibration    13          0.735              1.554              1.120
 Vibration    14          0.751              1.510              1.034
 Vibration    15          0.763              1.478              0.976
 Vibration    16          0.788              1.413              0.871
 Vibration    17          0.797              1.391              0.839
 Vibration    18          0.802              1.378              0.819
 Vibration    19          0.810              1.357              0.791
 Vibration    20          0.843              1.279              0.692
 Vibration    21          0.852              1.259              0.668
 Vibration    22          0.882              1.191              0.594
 Vibration    23          0.891              1.170              0.574

                           ! Non-Optimized Parameters !
 Normal termination of Gaussian 16 at Sat Feb 10 23:47:04 2024.
