 Q-Chem 5.4, Q-Chem, Inc., Pleasanton, CA (2021)
 Q-Chem 5.4.0 for Intel X86 EM64T Linux

User input:
--------------------------------------------------------------
$molecule
-3 2
O                 -6.0357430000      0.3386830000     -1.2298600000
S                 -5.4113760000      0.5802900000      0.1079000000
O                 -5.2906750000      2.0227580000      0.4554000000
O                 -6.0450560000     -0.2421660000      1.1847950000
C                 -3.7060410000     -0.0599270000     -0.0398440000
C                 -3.5401440000     -1.4238740000     -0.3747090000
C                 -2.2746820000     -1.9534850000     -0.4965930000
C                 -1.1159490000     -1.1645860000     -0.2943940000
C                  0.2020350000     -1.7790060000     -0.4368880000
O                  0.3410250000     -3.0024320000     -0.7372520000
C                  1.3508780000     -0.9042170000     -0.2137190000
C                  2.6592170000     -1.4327810000     -0.3352380000
C                  3.7758720000     -0.6518220000     -0.1354530000
C                  3.6317090000      0.7143870000      0.2001480000
C                  2.3692360000      1.2593490000      0.3260220000
C                  1.2045740000      0.4732700000      0.1246440000
C                 -0.1239700000      1.0912270000      0.2679670000
O                 -0.2614900000      2.3019940000      0.5653210000
C                 -1.2823030000      0.2107970000      0.0432730000
C                 -2.5957810000      0.7353800000      0.1636520000
S                  5.1529600000      1.6955180000      0.4515450000
O                  5.8931940000      1.6065250000     -0.8453380000
O                  4.7119990000      3.0763910000      0.7902970000
O                  5.8791990000      1.0105950000      1.5656200000
H                 -4.4191670000     -2.0389030000     -0.5326190000
H                 -2.1246560000     -2.9968170000     -0.7526900000
H                  2.7468360000     -2.4827280000     -0.5932520000
H                  4.7721300000     -1.0690980000     -0.2315680000
H                  2.2500810000      2.3042540000      0.5826520000
H                 -2.7139090000      1.7804250000      0.4201830000
$end

$rem
BASIS  =  6-311++G(d,p)
GUI  =  2
JOB_TYPE  =  SP
METHOD  =  B3LYP
SCF_CONVERGENCE  = 8
SOLVENT_METHOD = sm12
$end

$smx
solvent dimethylformamide
charges CM5
$end

--------------------------------------------------------------

             Standard Nuclear Orientation (Angstroms)
    I     Atom           X                Y                Z
 ----------------------------------------------------------------
    1      O      -6.0357430000     0.3386830000    -1.2298600000
    2      S      -5.4113760000     0.5802900000     0.1079000000
    3      O      -5.2906750000     2.0227580000     0.4554000000
    4      O      -6.0450560000    -0.2421660000     1.1847950000
    5      C      -3.7060410000    -0.0599270000    -0.0398440000
    6      C      -3.5401440000    -1.4238740000    -0.3747090000
    7      C      -2.2746820000    -1.9534850000    -0.4965930000
    8      C      -1.1159490000    -1.1645860000    -0.2943940000
    9      C       0.2020350000    -1.7790060000    -0.4368880000
   10      O       0.3410250000    -3.0024320000    -0.7372520000
   11      C       1.3508780000    -0.9042170000    -0.2137190000
   12      C       2.6592170000    -1.4327810000    -0.3352380000
   13      C       3.7758720000    -0.6518220000    -0.1354530000
   14      C       3.6317090000     0.7143870000     0.2001480000
   15      C       2.3692360000     1.2593490000     0.3260220000
   16      C       1.2045740000     0.4732700000     0.1246440000
   17      C      -0.1239700000     1.0912270000     0.2679670000
   18      O      -0.2614900000     2.3019940000     0.5653210000
   19      C      -1.2823030000     0.2107970000     0.0432730000
   20      C      -2.5957810000     0.7353800000     0.1636520000
   21      S       5.1529600000     1.6955180000     0.4515450000
   22      O       5.8931940000     1.6065250000    -0.8453380000
   23      O       4.7119990000     3.0763910000     0.7902970000
   24      O       5.8791990000     1.0105950000     1.5656200000
   25      H      -4.4191670000    -2.0389030000    -0.5326190000
   26      H      -2.1246560000    -2.9968170000    -0.7526900000
   27      H       2.7468360000    -2.4827280000    -0.5932520000
   28      H       4.7721300000    -1.0690980000    -0.2315680000
   29      H       2.2500810000     2.3042540000     0.5826520000
   30      H      -2.7139090000     1.7804250000     0.4201830000
 ----------------------------------------------------------------

   19   -1935.5708802574      5.03e-09  Convergence criterion met
 Total energy in the final basis set =    -1936.0367678913

                    Orbital Energies (a.u.)
 --------------------------------------------------------------

 Alpha MOs
 -- Occupied --
-89.0289 -89.0289 -19.0814 -19.0811 -19.0731 -19.0731 -19.0715 -19.0715
-19.0715 -19.0715 -10.2328 -10.2294 -10.1966 -10.1966 -10.1865 -10.1865
-10.1851 -10.1851 -10.1832 -10.1832 -10.1827 -10.1827 -10.1825 -10.1824
 -8.0874  -8.0874  -6.0501  -6.0501  -6.0500  -6.0500  -6.0494  -6.0493
 -1.0869  -1.0869  -1.0074  -1.0014  -0.9523  -0.9522  -0.9475  -0.9475
 -0.8713  -0.8627  -0.7978  -0.7629  -0.7619  -0.7534  -0.6807  -0.6596
 -0.6412  -0.6065  -0.5903  -0.5741  -0.5651  -0.5233  -0.5217  -0.4847
 -0.4801  -0.4745  -0.4676  -0.4397  -0.4359  -0.4350  -0.4343  -0.4327
 -0.4311  -0.4265  -0.4226  -0.4187  -0.4128  -0.4002  -0.3832  -0.3798
 -0.3791  -0.3573  -0.3517  -0.3457  -0.3129  -0.3126  -0.3126  -0.3125
 -0.2903  -0.2896  -0.2784  -0.2775  -0.2750  -0.2749  -0.2678  -0.2678
 -0.2550  -0.2484  -0.2452  -0.2402  -0.2337  -0.2336  -0.1496

 Beta MOs
 -- Occupied --
-89.0289 -89.0289 -19.0756 -19.0749 -19.0731 -19.0730 -19.0715 -19.0715
-19.0714 -19.0714 -10.2315 -10.2279 -10.1960 -10.1960 -10.1861 -10.1861
-10.1841 -10.1841 -10.1829 -10.1829 -10.1827 -10.1827 -10.1822 -10.1822
 -8.0874  -8.0874  -6.0501  -6.0501  -6.0500  -6.0500  -6.0494  -6.0494
 -1.0869  -1.0868  -0.9974  -0.9907  -0.9522  -0.9522  -0.9474  -0.9474
 -0.8687  -0.8616  -0.7938  -0.7607  -0.7604  -0.7516  -0.6743  -0.6574
 -0.6394  -0.6056  -0.5890  -0.5733  -0.5626  -0.5222  -0.5200  -0.4835
 -0.4780  -0.4738  -0.4666  -0.4392  -0.4353  -0.4337  -0.4331  -0.4324
 -0.4301  -0.4211  -0.4180  -0.4160  -0.4080  -0.3968  -0.3786  -0.3761
 -0.3599  -0.3566  -0.3437  -0.3414  -0.3128  -0.3125  -0.3125  -0.3121
 -0.2883  -0.2793  -0.2781  -0.2771  -0.2748  -0.2746  -0.2644  -0.2552
 -0.2431  -0.2429  -0.2414  -0.2348  -0.2335  -0.2335

          Ground-State Mulliken Net Atomic Charges

     Atom                 Charge (a.u.)    Spin (a.u.)
  --------------------------------------------------------
      1 O                    -0.241853       0.000386
      2 S                     0.903534      -0.001305
      3 O                    -0.350042       0.000498
      4 O                    -0.240280       0.000412
      5 C                    -1.835123       0.031368
      6 C                     0.365217       0.035529
      7 C                     0.614882       0.035784
      8 C                     0.724035       0.036672
      9 C                    -0.792076       0.074394
     10 O                    -0.167402       0.232221
     11 C                     0.719785       0.036495
     12 C                     0.615424       0.035886
     13 C                     0.369967       0.035452
     14 C                    -1.836273       0.031436
     15 C                    -0.301977       0.006770
     16 C                    -0.690118       0.067912
     17 C                    -1.020083       0.059986
     18 O                    -0.292895       0.217543
     19 C                    -0.690962       0.067830
     20 C                    -0.298412       0.006765
     21 S                     0.904092      -0.001295
     22 O                    -0.241724       0.000398
     23 O                    -0.349749       0.000498
     24 O                    -0.241460       0.000389
     25 H                     0.287950      -0.002940
     26 H                     0.274985      -0.001811
     27 H                     0.274922      -0.001816
     28 H                     0.288262      -0.002935
     29 H                     0.123841      -0.001260
     30 H                     0.123529      -0.001261
  --------------------------------------------------------
  Sum of atomic charges =    -3.000000

                    Cartesian Multipole Moments
 -----------------------------------------------------------------
    Charge (ESU x 10^10)
               -14.4096
    Dipole Moment (Debye)
         X       1.3136      Y     -11.5637      Z      -2.8442
       Tot      11.9805
    Quadrupole Moments (Debye-Ang)
        XX    -510.0889     XY     -30.0520     YY    -225.2881
        XZ      -9.5539     YZ     -11.6012     ZZ    -181.9545

 Total job time:  1076.03s(wall), 8272.53s(cpu)
        *  Thank you very much for using Q-Chem.  Have a nice day.  *
