 Q-Chem 5.4, Q-Chem, Inc., Pleasanton, CA (2021)
 Q-Chem 5.4.0 for Intel X86 EM64T Linux

User input:
--------------------------------------------------------------
$molecule
-1 2
C                 -1.4090370000      0.2450410000     -0.1991740000
C                 -0.9546180000     -1.0432780000     -0.3424880000
C                  0.4234470000     -1.3918150000     -0.0218640000
C                  1.3243140000     -0.3091630000      0.3517780000
C                  0.9122000000      1.0004070000      0.3061610000
C                 -0.4871750000      1.3382280000      0.0806760000
O                 -0.8885340000      2.5410660000      0.1261250000
O                  0.8245620000     -2.5947630000     -0.0664710000
C                  1.8787580000      2.1539730000      0.4654580000
C                  2.7140070000     -0.6997520000      0.8061610000
C                  3.6649480000      0.4665930000      0.9804000000
C                  3.2715690000      1.7463580000      0.9000450000
C                 -2.8773110000      0.5964420000     -0.3033800000
C                 -3.7564630000     -0.5335990000     -0.7983990000
C                 -3.3057860000     -1.7846770000     -0.9737270000
C                 -1.8421980000     -2.1570640000     -0.8543850000
H                  1.4617610000      2.8468940000      1.2097340000
C                  1.9644190000      2.9555190000     -0.8642290000
H                  3.1326350000     -1.3928050000      0.0629320000
C                  2.6267430000     -1.5005560000      2.1360920000
C                  5.0966590000      0.0817760000      1.3058100000
C                  4.2139580000      2.8997040000      1.1919170000
C                 -5.2078200000     -0.1583740000     -1.0356890000
C                 -4.2273180000     -2.9274600000     -1.3591030000
C                 -1.3200860000     -2.6542170000     -2.2320640000
H                  2.3835160000      2.3238480000     -1.6541680000
H                  2.6016170000      3.8398950000     -0.7585030000
H                  0.9667690000      3.2831820000     -1.1547580000
H                  2.2221910000     -0.8635010000      2.9292870000
H                  3.6118280000     -1.8587600000      2.4533180000
H                  1.9752630000     -2.3628270000      1.9977170000
H                  5.3356830000     -0.8936380000      0.8706660000
H                  5.2721700000     -0.0033540000      2.3860630000
H                  5.8179320000      0.8022520000      0.9136000000
H                  4.9497540000      2.6487010000      1.9591780000
H                  3.6512770000      3.7687710000      1.5469950000
H                  4.7666200000      3.2245850000      0.3008480000
H                 -5.2858380000      0.8965560000     -1.3167260000
H                 -5.8269000000     -0.2924080000     -0.1391630000
H                 -5.6612900000     -0.7463800000     -1.8367650000
H                 -5.2292870000     -2.8100650000     -0.9403110000
H                 -3.8266130000     -3.8779270000     -0.9930300000
H                 -4.3359350000     -3.0291410000     -2.4466900000
C                 -3.3981550000      1.0927650000      1.0750640000
H                 -2.9748920000      1.4501820000     -0.9886230000
H                 -1.7464370000     -3.0107790000     -0.1688370000
H                 -1.3948340000     -1.8501780000     -2.9713850000
H                 -1.9002570000     -3.5089930000     -2.5955450000
H                 -0.2790630000     -2.9609630000     -2.1358970000
H                 -3.3372080000      0.2836110000      1.8100680000
H                 -4.4406660000      1.4226980000      1.0143280000
H                 -2.7906520000      1.9325120000      1.4110200000
$end
$rem
MAX_SCF_CYCLES=200
BASIS  =  6-311++G(d,p)
GUI  =  2
JOB_TYPE  =  SP
METHOD  =  B3LYP
SOLVENT_METHOD = COSMO
$end
$solvent
dielectric 37.219
opticaldielectric 1.43
$end

--------------------------------------------------------------

             Standard Nuclear Orientation (Angstroms)
    I     Atom           X                Y                Z
 ----------------------------------------------------------------
    1      C       1.2454878854    -0.6847915644     0.0500516685
    2      C       1.2454260758     0.6853512643    -0.0474675664
    3      C      -0.0001504982     1.4400017449     0.0013441581
    4      C      -1.2455700064     0.6850727088     0.0494840370
    5      C      -1.2453981979    -0.6851222656    -0.0477689693
    6      C       0.0001335695    -1.4397346241     0.0015028146
    7      O       0.0003276637    -2.7085820312     0.0018667961
    8      O      -0.0002893009     2.7088463496     0.0018619559
    9      C      -2.5210197056    -1.4788898300    -0.2295579704
   10      C      -2.5215468766     1.4785076790     0.2300782965
   11      C      -3.7901672759     0.6671565783     0.0647896173
   12      C      -3.7900175515    -0.6676233537    -0.0669864418
   13      C       2.5213582364    -1.4783732717     0.2304762055
   14      C       3.7901351929    -0.6673341726     0.0650515231
   15      C       3.7901134159     0.6674582697    -0.0667626011
   16      C       2.5211944448     1.4789160200    -0.2291984000
   17      H      -2.5223874912    -2.2941145464     0.5075848687
   18      C      -2.5192569585    -2.1644126804    -1.6252429740
   19      H      -2.5218979595     2.2943358707    -0.5063899296
   20      C      -2.5221099813     2.1628116617     1.6262682044
   21      C      -5.0755906547     1.4729904324     0.1105139610
   22      C      -5.0752010816    -1.4735392283    -0.1149049612
   23      C       5.0753326400    -1.4734197831     0.1101181028
   24      C       5.0754118015     1.4732797052    -0.1152264832
   25      C       2.5196201315     2.1643055167    -1.6249061890
   26      H      -2.5271296590    -1.4049678363    -2.4138085836
   27      H      -3.3973995809    -2.8051830143    -1.7579045792
   28      H      -1.6259616721    -2.7800896691    -1.7254479676
   29      H      -2.5300613857     1.4027445333     2.4142367554
   30      H      -3.4011088237     2.8025213709     1.7584325746
   31      H      -1.6295185767     2.7792721023     1.7279649016
   32      H      -4.8999522726     2.4887757380    -0.2572449499
   33      H      -5.4725085593     1.5707467695     1.1292865792
   34      H      -5.8624044065     1.0318988635    -0.5055310366
   35      H      -5.8644871275    -1.0302768353     0.4963508692
   36      H      -4.9009071996    -2.4879658074     0.2572886748
   37      H      -5.4678974583    -1.5751374504    -1.1349315639
   38      H       4.8998307745    -2.4882141642    -0.2604724636
   39      H       5.4710095924    -1.5739446078     1.1290972670
   40      H       5.8628056931    -1.0308061740    -0.5039570053
   41      H       5.8646163673     1.0303467570     0.4963916648
   42      H       4.9012425460     2.4880180412     0.2561663496
   43      H       5.4681557418     1.5740373192    -1.1353158232
   44      C       2.5218254118    -2.1626022681     1.6267402622
   45      H       2.5214415019    -2.2942320912    -0.5059519227
   46      H       2.5227107684     2.2941649594     0.5079192285
   47      H       2.5265032318     1.4047077286    -2.4133383936
   48      H       3.3983673564     2.8042108381    -1.7578848762
   49      H       1.6268571285     2.7807778424    -1.7249370793
   50      H       2.5302546884    -1.4023642854     2.4145491028
   51      H       3.4004957275    -2.8027880520     1.7589312975
   52      H       1.6289640466    -2.7786399808     1.7287082578
 ----------------------------------------------------------------

    9   -1005.9685453989      9.27e-06  Convergence criterion met
 Total energy in the final basis set =    -1005.9685453989
    4   -1006.0453550215      3.80e-06  Convergence criterion met
 Total energy in the final basis set =    -1006.0453550215

                    Orbital Energies (a.u.)
 --------------------------------------------------------------

 Alpha MOs
 -- Occupied --
-19.0678 -19.0674 -10.2088 -10.2088 -10.1660 -10.1660 -10.1660 -10.1660
-10.1587 -10.1587 -10.1579 -10.1579 -10.1573 -10.1573 -10.1566 -10.1566
-10.1527 -10.1527 -10.1527 -10.1527 -10.1451 -10.1451 -10.1451 -10.1451
 -0.9919  -0.9891  -0.8474  -0.8395  -0.7949  -0.7772  -0.7756  -0.7617
 -0.7197  -0.7009  -0.6995  -0.6929  -0.6634  -0.6618  -0.6506  -0.6336
 -0.6041  -0.5925  -0.5711  -0.5614  -0.5356  -0.4954  -0.4879  -0.4735
 -0.4583  -0.4510  -0.4468  -0.4436  -0.4351  -0.4193  -0.4165  -0.4142
 -0.4048  -0.4018  -0.4007  -0.4000  -0.3967  -0.3930  -0.3924  -0.3862
 -0.3827  -0.3819  -0.3787  -0.3722  -0.3640  -0.3636  -0.3616  -0.3538
 -0.3515  -0.3421  -0.3421  -0.3402  -0.3365  -0.3317  -0.3181  -0.3119
 -0.3091  -0.2986  -0.2647  -0.2365  -0.2328  -0.2241  -0.2156  -0.2138
 -0.1509

 Beta MOs
 -- Occupied --
-19.0614 -19.0611 -10.2070 -10.2069 -10.1661 -10.1661 -10.1661 -10.1661
-10.1587 -10.1587 -10.1579 -10.1579 -10.1563 -10.1562 -10.1556 -10.1556
-10.1527 -10.1527 -10.1527 -10.1527 -10.1450 -10.1450 -10.1450 -10.1450
 -0.9807  -0.9777  -0.8449  -0.8390  -0.7915  -0.7768  -0.7746  -0.7606
 -0.7188  -0.6997  -0.6993  -0.6921  -0.6613  -0.6564  -0.6502  -0.6324
 -0.6015  -0.5917  -0.5708  -0.5593  -0.5320  -0.4941  -0.4867  -0.4721
 -0.4570  -0.4503  -0.4461  -0.4415  -0.4321  -0.4168  -0.4161  -0.4133
 -0.4000  -0.3997  -0.3992  -0.3961  -0.3939  -0.3929  -0.3903  -0.3819
 -0.3816  -0.3816  -0.3769  -0.3712  -0.3637  -0.3613  -0.3590  -0.3530
 -0.3445  -0.3414  -0.3396  -0.3390  -0.3276  -0.3263  -0.3126  -0.3108
 -0.3087  -0.2967  -0.2374  -0.2307  -0.2283  -0.2212  -0.2122  -0.2112

          Ground-State Mulliken Net Atomic Charges

     Atom                 Charge (a.u.)    Spin (a.u.)
  --------------------------------------------------------
      1 C                     0.322062       0.058546
      2 C                     0.321066       0.058432
      3 C                    -0.556419       0.118667
      4 C                     0.320551       0.058440
      5 C                     0.321290       0.058556
      6 C                    -0.556510       0.118453
      7 O                    -0.463800       0.237366
      8 O                    -0.464447       0.237166
      9 C                     0.076120      -0.005149
     10 C                     0.075074      -0.005213
     11 C                     0.144317       0.005406
     12 C                     0.144279       0.005384
     13 C                     0.076471      -0.005174
     14 C                     0.144401       0.005442
     15 C                     0.144161       0.005364
     16 C                     0.075572      -0.005176
     17 H                     0.208182       0.002551
     18 C                    -0.835156       0.011049
     19 H                     0.207809       0.002545
     20 C                    -0.834188       0.011012
     21 C                    -0.675348       0.000335
     22 C                    -0.676404       0.000337
     23 C                    -0.676976       0.000316
     24 C                    -0.676039       0.000354
     25 C                    -0.834545       0.011028
     26 H                     0.151079      -0.000489
     27 H                     0.151885       0.002094
     28 H                     0.189318      -0.002047
     29 H                     0.150871      -0.000484
     30 H                     0.152052       0.002088
     31 H                     0.189490      -0.002047
     32 H                     0.167525      -0.000242
     33 H                     0.197616       0.000154
     34 H                     0.164442      -0.000014
     35 H                     0.164448      -0.000016
     36 H                     0.167515      -0.000241
     37 H                     0.197417       0.000153
     38 H                     0.167589      -0.000242
     39 H                     0.197586       0.000156
     40 H                     0.164342      -0.000016
     41 H                     0.164379      -0.000014
     42 H                     0.167665      -0.000244
     43 H                     0.197421       0.000154
     44 C                    -0.834278       0.011054
     45 H                     0.207906       0.002550
     46 H                     0.207936       0.002554
     47 H                     0.150980      -0.000484
     48 H                     0.151836       0.002092
     49 H                     0.189364      -0.002054
     50 H                     0.150916      -0.000486
     51 H                     0.151794       0.002092
     52 H                     0.189371      -0.002054
  --------------------------------------------------------
  Sum of atomic charges =    -1.000008

                    Cartesian Multipole Moments
 -----------------------------------------------------------------
    Charge (ESU x 10^10)
                -4.8032
    Dipole Moment (Debye)
         X      -0.0003      Y      -0.0073      Z      -0.0098
       Tot       0.0123
    Quadrupole Moments (Debye-Ang)
        XX    -146.7362     XY      -0.0004     YY    -187.5900
        XZ      -0.0013     YZ      -0.0037     ZZ    -154.8522

 Total job time:  321.76s(wall), 2362.38s(cpu)
        *  Thank you very much for using Q-Chem.  Have a nice day.  *
