 Gaussian 16, Revision A.03,
 Gaussian 16:  ES64L-G16RevA.03 25-Dec-2016

 ----------------------------------------------------------------
 #P UB3LYP/6-311++G(d,p) SCRF=(PCM,Solvent=n,n-DiMethylFormamide)
 ----------------------------------------------------------------

 ------------------
 Radical PCM in DMF
 ------------------
 Symbolic Z-matrix:
 Charge = -1 Multiplicity = 2

                         Standard orientation:
 ---------------------------------------------------------------------
 Center     Atomic      Atomic             Coordinates (Angstroms)
 Number     Number       Type             X           Y           Z
 ---------------------------------------------------------------------
      1          6           0       -0.274533    1.337235    0.067556
      2          6           0        1.187495    1.395010    0.049264
      3          6           0        2.009407    0.310157   -0.000603
      4          6           0        1.437214   -1.037788   -0.042498
      5          6           0        0.004054   -1.112971   -0.037687
      6          6           0       -0.850912   -0.015689   -0.010373
      7          8           0       -0.935073    2.389807    0.180754
      8          8           0        2.171230   -2.068083   -0.085255
      9          6           0       -2.313438   -0.229382   -0.072259
     10          6           0       -2.848900   -1.623036    0.294347
     11          8           0       -3.122491    0.623605   -0.411075
     12          1           0        1.599659    2.400525    0.093812
     13          1           0       -2.413025   -2.003450    1.221609
     14          1           0       -2.621791   -2.345574   -0.496455
     15          1           0       -3.932072   -1.547224    0.393829
     16          6           0        3.508639    0.429765   -0.008918
     17          1           0       -0.392816   -2.120930   -0.086313
     18          1           0        3.821421    1.477014    0.020166
     19          1           0        3.930240   -0.045250   -0.900875
     20          1           0        3.944901   -0.097561    0.845869
 ---------------------------------------------------------------------

 SCF Done:  E(UB3LYP) =  -573.744580882     A.U. after   19 cycles

 The electronic state is 2-A.
 Alpha  occ. eigenvalues --  -19.10373 -19.08381 -19.08273 -10.25638 -10.23282
 Alpha  occ. eigenvalues --  -10.22315 -10.18085 -10.17526 -10.17376 -10.16444
 Alpha  occ. eigenvalues --  -10.16353 -10.16132  -1.03751  -1.00917  -1.00356
 Alpha  occ. eigenvalues --   -0.83346  -0.78389  -0.72946  -0.69981  -0.68041
 Alpha  occ. eigenvalues --   -0.60327  -0.58298  -0.52010  -0.48999  -0.47336
 Alpha  occ. eigenvalues --   -0.44751  -0.44154  -0.43273  -0.42508  -0.42218
 Alpha  occ. eigenvalues --   -0.40890  -0.39375  -0.39355  -0.38280  -0.37542
 Alpha  occ. eigenvalues --   -0.37247  -0.36244  -0.35316  -0.28665  -0.26744
 Alpha  occ. eigenvalues --   -0.25862  -0.24821  -0.22718  -0.16951
 Alpha virt. eigenvalues --   -0.05063  -0.00245   0.00654   0.00924   0.01793
 Alpha virt. eigenvalues --    0.02896   0.03353   0.03626   0.03857   0.05091
 Alpha virt. eigenvalues --    0.05546   0.05754   0.06059   0.07163   0.07929

  Beta  occ. eigenvalues --  -19.10272 -19.07712 -19.07630 -10.25631 -10.23213
  Beta  occ. eigenvalues --  -10.22187 -10.18063 -10.17397 -10.17126 -10.16355
  Beta  occ. eigenvalues --  -10.16350 -10.16135  -1.03553  -0.99964  -0.99037
  Beta  occ. eigenvalues --   -0.82780  -0.78157  -0.72827  -0.69517  -0.67300
  Beta  occ. eigenvalues --   -0.59958  -0.57995  -0.51678  -0.48793  -0.47102
  Beta  occ. eigenvalues --   -0.44432  -0.43739  -0.43042  -0.42101  -0.41952
  Beta  occ. eigenvalues --   -0.40287  -0.39258  -0.38450  -0.37928  -0.37019
  Beta  occ. eigenvalues --   -0.35915  -0.35100  -0.34685  -0.26450  -0.25541
  Beta  occ. eigenvalues --   -0.25000  -0.24142  -0.22315
  Beta virt. eigenvalues --   -0.09955  -0.03798  -0.00220   0.00663   0.01824
  Beta virt. eigenvalues --    0.02142   0.02933   0.03591   0.03662   0.04464
  Beta virt. eigenvalues --    0.05176   0.05745   0.06073   0.06516   0.07251

 Mulliken charges and spin densities:
               1          2
     1  C   -0.608360   0.039068
     2  C   -0.642950   0.052278
     3  C    1.169660   0.015121
     4  C   -0.761113   0.103745
     5  C   -0.835328   0.174691
     6  C    1.505623   0.096906
     7  O   -0.443506   0.202240
     8  O   -0.467949   0.270725
     9  C    0.028679   0.014967
    10  C   -0.583086   0.001582
    11  O   -0.364463   0.036686
    12  H    0.161470  -0.006579
    13  H    0.160752  -0.000209
    14  H    0.177624   0.000750
    15  H    0.183603  -0.000354
    16  C   -0.349272   0.009716
    17  H    0.171824  -0.013110
    18  H    0.152856  -0.000389
    19  H    0.171572   0.001233
    20  H    0.172363   0.000932
 Sum of Mulliken charges =  -1.00000   1.00000

 Dipole moment (field-independent basis, Debye):
    X=              2.0583    Y=             -2.9263    Z=              0.8021  Tot=              3.6665
 Quadrupole moment (field-independent basis, Debye-Ang):
   XX=            -98.0633   YY=            -97.7257   ZZ=            -73.4180
   XY=             26.8497   XZ=             -2.4380   YZ=             -0.7339

 Normal termination of Gaussian 16 at Sun Jan 21 07:27:14 2024.
