 Gaussian 16, Revision A.03,
 Gaussian 16:  ES64L-G16RevA.03 25-Dec-2016

 ----------------------------------------------------------------------
 #P UB3LYP/6-311++G(d,p) nosym opt freq SCRF=(PCM,Solvent=n,n-DiMethylF
 ormamide)
 ----------------------------------------------------------------------

 -------
 Radical
 -------
 Symbolic Z-matrix:
 Charge = -1 Multiplicity = 2

 SCF Done:  E(UB3LYP) =  -3577.46498463     A.U. after   20 cycles
 SCF Done:  E(UB3LYP) =  -3577.46528662     A.U. after   15 cycles
 SCF Done:  E(UB3LYP) =  -3577.46532449     A.U. after   16 cycles
 SCF Done:  E(UB3LYP) =  -3577.46535416     A.U. after   15 cycles
 SCF Done:  E(UB3LYP) =  -3577.46536188     A.U. after   13 cycles
 SCF Done:  E(UB3LYP) =  -3577.46536441     A.U. after   12 cycles
 SCF Done:  E(UB3LYP) =  -3577.46536485     A.U. after   10 cycles
 SCF Done:  E(UB3LYP) =  -3577.46536503     A.U. after   10 cycles
 SCF Done:  E(UB3LYP) =  -3577.46536505     A.U. after   10 cycles
 Optimization completed.
    -- Stationary point found.
 Normal termination of Gaussian 16 at Sun Feb 11 16:33:34 2024.

 ----------------------------------------------------------------------
 #P Geom=AllCheck Guess=TCheck SCRF=Check GenChk UB3LYP/6-311++G(d,p) F
 req
 ----------------------------------------------------------------------

 Structure from the checkpoint file:  "295-rad.chk"
 -------
 Radical
 -------
 Charge = -1 Multiplicity = 2

                          Input orientation:
 ---------------------------------------------------------------------
 Center     Atomic      Atomic             Coordinates (Angstroms)
 Number     Number       Type             X           Y           Z
 ---------------------------------------------------------------------
      1          6           0       -0.950874    2.113106   -0.274672
      2          6           0       -1.427747    2.202050    1.020836
      3          6           0       -0.840698    1.429637    2.041098
      4          6           0        0.123035    1.253887   -0.593872
      5          6           0        0.718778    0.471991    0.436135
      6          6           0        0.214550    0.581579    1.745396
      7          6           0        0.622828    1.157759   -1.950147
      8          6           0        1.721719    0.253333   -2.179288
      9          6           0        2.320254   -0.523527   -1.206664
     10          6           0        1.844832   -0.441542    0.153951
     11          8           0        0.160507    1.811863   -2.946416
     12          8           0        2.362695   -1.126913    1.083138
     13          1           0       -1.394327    2.702009   -1.068972
     14          1           0       -2.253646    2.866404    1.251522
     15          1           0       -1.214635    1.499265    3.056824
     16          1           0        0.676072   -0.018158    2.520633
     17          8           0        2.145178    0.209082   -3.476116
     18          6           0        3.471745   -1.438872   -1.538896
     19          6           0        4.852835   -0.763782   -1.414616
     20          6           0        6.013930   -1.705568   -1.751393
     21          6           0        7.392756   -1.046186   -1.632812
     22          6           0        8.554616   -1.985272   -1.976934
     23          6           0        9.933153   -1.325893   -1.854843
     24          6           0       11.093251   -2.265273   -2.202965
     25          6           0       12.470349   -1.602071   -2.077110
     26          6           0       13.623233   -2.555734   -2.432773
     27          6           0       14.965201   -1.862530   -2.293955
     28         35           0       16.485835   -3.080438   -2.750251
     29          1           0        1.546484    0.839274   -3.928797
     30          1           0        3.355135   -1.816766   -2.559410
     31          1           0        3.439307   -2.297508   -0.862426
     32          1           0        4.973404   -0.384669   -0.393366
     33          1           0        4.887120    0.108891   -2.077489
     34          1           0        5.883627   -2.088859   -2.772057
     35          1           0        5.973481   -2.580377   -1.089204
     36          1           0        7.525138   -0.667337   -0.611017
     37          1           0        7.431082   -0.168657   -2.291335
     38          1           0        8.423729   -2.361789   -2.999778
     39          1           0        8.515462   -2.864143   -1.320324
     40          1           0       10.065543   -0.952116   -0.831333
     41          1           0        9.972112   -0.445836   -2.509677
     42          1           0       10.963982   -2.636833   -3.227296
     43          1           0       11.055802   -3.145690   -1.549156
     44          1           0       12.603934   -1.235011   -1.052326
     45          1           0       12.510461   -0.722249   -2.730580
     46          1           0       13.499506   -2.915703   -3.458770
     47          1           0       13.591908   -3.431199   -1.776959
     48          1           0       15.172611   -1.544191   -1.275024
     49          1           0       15.079558   -1.023206   -2.975882
 ---------------------------------------------------------------------

 SCF Done:  E(UB3LYP) =  -3577.46536505     A.U. after    1 cycles

 Alpha  occ. eigenvalues -- -482.81993 -62.47291 -56.29302 -56.28946 -56.28943
 Alpha  occ. eigenvalues --  -19.14337 -19.08418 -19.07224 -10.22645 -10.22212
 Alpha  occ. eigenvalues --  -10.22081 -10.21994 -10.17711 -10.17449 -10.17248
 Alpha  occ. eigenvalues --  -10.17231 -10.17115 -10.17082 -10.16940 -10.16893
 Alpha  occ. eigenvalues --  -10.16293 -10.16215 -10.15985 -10.15845 -10.15765
 Alpha  occ. eigenvalues --  -10.15759 -10.15680 -10.15659  -8.68241  -6.51295
 Alpha  occ. eigenvalues --   -6.50129  -6.50119  -2.62396  -2.62069  -2.62061
 Alpha  occ. eigenvalues --   -2.61135  -2.61135  -1.06224  -0.99497  -0.99300
 Alpha  occ. eigenvalues --   -0.85802  -0.82817  -0.81403  -0.80437  -0.78699
 Alpha  occ. eigenvalues --   -0.76652  -0.75034  -0.74534  -0.72042  -0.69079
 Alpha  occ. eigenvalues --   -0.66851  -0.64451  -0.62006  -0.61086  -0.59343
 Alpha  occ. eigenvalues --   -0.58178  -0.57371  -0.57168  -0.56812  -0.53581
 Alpha  occ. eigenvalues --   -0.50457  -0.49373  -0.48358  -0.47663  -0.46244
 Alpha  occ. eigenvalues --   -0.45348  -0.45069  -0.43732  -0.43390  -0.42921
 Alpha  occ. eigenvalues --   -0.42751  -0.42621  -0.41606  -0.41015  -0.40424
 Alpha  occ. eigenvalues --   -0.40202  -0.39063  -0.38662  -0.38498  -0.37677
 Alpha  occ. eigenvalues --   -0.37499  -0.36460  -0.36063  -0.35542  -0.34545
 Alpha  occ. eigenvalues --   -0.34296  -0.34197  -0.33961  -0.33578  -0.32973
 Alpha  occ. eigenvalues --   -0.32810  -0.32202  -0.32055  -0.31730  -0.30477
 Alpha  occ. eigenvalues --   -0.28446  -0.28323  -0.26631  -0.25763  -0.25702
 Alpha  occ. eigenvalues --   -0.23814  -0.22724  -0.15079
 Alpha virt. eigenvalues --   -0.03270  -0.02389  -0.00834  -0.00474  -0.00223
 Alpha virt. eigenvalues --    0.00433   0.00754   0.00812   0.01207   0.01518
 Alpha virt. eigenvalues --    0.02023   0.02405   0.02533   0.03331   0.03534

  Beta  occ. eigenvalues -- -482.81993 -62.47291 -56.29302 -56.28946 -56.28943
  Beta  occ. eigenvalues --  -19.14288 -19.07782 -19.06681 -10.22645 -10.22078
  Beta  occ. eigenvalues --  -10.21978 -10.21709 -10.17711 -10.17434 -10.17227
  Beta  occ. eigenvalues --  -10.17139 -10.17039 -10.17031 -10.16960 -10.16893
  Beta  occ. eigenvalues --  -10.16293 -10.16136 -10.15985 -10.15845 -10.15771
  Beta  occ. eigenvalues --  -10.15759 -10.15677 -10.15653  -8.68241  -6.51295
  Beta  occ. eigenvalues --   -6.50129  -6.50119  -2.62396  -2.62069  -2.62061
  Beta  occ. eigenvalues --   -2.61135  -2.61135  -1.06017  -0.98545  -0.98215
  Beta  occ. eigenvalues --   -0.85569  -0.82817  -0.81237  -0.80308  -0.78598
  Beta  occ. eigenvalues --   -0.76543  -0.74817  -0.74449  -0.71969  -0.68862
  Beta  occ. eigenvalues --   -0.66222  -0.64294  -0.61874  -0.60949  -0.59248
  Beta  occ. eigenvalues --   -0.58110  -0.57346  -0.57115  -0.56602  -0.53408
  Beta  occ. eigenvalues --   -0.50229  -0.49372  -0.48172  -0.47555  -0.46122
  Beta  occ. eigenvalues --   -0.45280  -0.45000  -0.43379  -0.43315  -0.42726
  Beta  occ. eigenvalues --   -0.42549  -0.42224  -0.41356  -0.40603  -0.40152
  Beta  occ. eigenvalues --   -0.40049  -0.38904  -0.38460  -0.37709  -0.37495
  Beta  occ. eigenvalues --   -0.37124  -0.36412  -0.35518  -0.35005  -0.34443
  Beta  occ. eigenvalues --   -0.34022  -0.33831  -0.33462  -0.32906  -0.32893
  Beta  occ. eigenvalues --   -0.32579  -0.32185  -0.32027  -0.31677  -0.30407
  Beta  occ. eigenvalues --   -0.28446  -0.28319  -0.25200  -0.25001  -0.24643
  Beta  occ. eigenvalues --   -0.23300  -0.21790
  Beta virt. eigenvalues --   -0.08521  -0.02522  -0.02389  -0.00496  -0.00217
  Beta virt. eigenvalues --    0.00243   0.00482   0.00764   0.00818   0.01214
  Beta virt. eigenvalues --    0.01530   0.02031   0.02409   0.02544   0.03344

 Mulliken charges and spin densities:
               1          2
     1  C    0.002875   0.071574
     2  C   -0.371066  -0.000777
     3  C   -0.437969   0.069234
     4  C    0.541135  -0.002901
     5  C   -0.116360   0.057637
     6  C    0.050621   0.003055
     7  C   -0.908849   0.163368
     8  C   -0.628815   0.061266
     9  C    2.017923   0.058796
    10  C   -0.715510   0.074716
    11  O   -0.528970   0.232403
    12  O   -0.465522   0.201273
    13  H    0.166186  -0.004093
    14  H    0.182470  -0.000614
    15  H    0.178088  -0.004977
    16  H    0.167391  -0.000402
    17  O   -0.278517   0.016363
    18  C   -0.371313   0.013012
    19  C   -0.847914  -0.002200
    20  C   -0.302431   0.000081
    21  C   -0.007696  -0.004327
    22  C    0.041721  -0.001490
    23  C   -0.006313  -0.000182
    24  C   -0.149895   0.000370
    25  C   -0.324701   0.000013
    26  C   -0.364993   0.000019
    27  C   -0.639204  -0.000012
    28  Br  -0.199202   0.000001
    29  H    0.289706  -0.003634
    30  H    0.213424  -0.000333
    31  H    0.204473   0.002077
    32  H    0.175668  -0.001663
    33  H    0.168040   0.002561
    34  H    0.114617  -0.000491
    35  H    0.114701   0.000417
    36  H    0.125780  -0.000016
    37  H    0.127107  -0.000114
    38  H    0.131671  -0.000003
    39  H    0.132698  -0.000005
    40  H    0.132225   0.000004
    41  H    0.132276  -0.000004
    42  H    0.133070  -0.000009
    43  H    0.133337   0.000007
    44  H    0.138494  -0.000002
    45  H    0.138444   0.000002
    46  H    0.148959   0.000001
    47  H    0.149159  -0.000001
    48  H    0.206351  -0.000001
    49  H    0.206630   0.000002
 Sum of Mulliken charges =  -1.00000   1.00000

 Dipole moment (field-independent basis, Debye):
    X=             -9.5882    Y=              0.7492    Z=              5.1674  Tot=             10.9177
 Quadrupole moment (field-independent basis, Debye-Ang):
   XX=           -263.5253   YY=           -182.6182   ZZ=           -187.8326
   XY=             36.8242   XZ=             14.4296   YZ=              6.4997

  Exact polarizability: 431.117-105.101 352.851 -32.430 -18.727 434.033
 Approx polarizability: 428.086-107.731 394.496 -19.125 -35.997 499.459

                      1                      2                      3
                      A                      A                      A
 Frequencies --     11.0589                15.0872                18.1408
 Red. masses --      6.1458                 4.7691                 2.8010
 Frc consts  --      0.0004                 0.0006                 0.0005
 IR Inten    --      0.7847                 0.5662                 1.8245

                      4                      5                      6
                      A                      A                      A
 Frequencies --     28.8330                36.8526                52.8352
 Red. masses --      3.3990                 6.5227                 3.0133
 Frc consts  --      0.0017                 0.0052                 0.0050
 IR Inten    --      0.5479                 3.8351                 0.1123

                      7                      8                      9
                      A                      A                      A
 Frequencies --     73.6048                75.7266                95.6709
 Red. masses --      7.0089                 1.9000                 2.9130
 Frc consts  --      0.0224                 0.0064                 0.0157
 IR Inten    --      5.6692                 1.0830                 2.0306

                     10                     11                     12
                      A                      A                      A
 Frequencies --    100.1178               103.1571               122.3022
 Red. masses --      4.9358                 6.6182                 1.9041
 Frc consts  --      0.0291                 0.0415                 0.0168
 IR Inten    --      3.7202                 1.7212                 0.0232

                     13                     14                     15
                      A                      A                      A
 Frequencies --    132.9767               139.2500               157.5600
 Red. masses --      4.8800                 2.1796                 6.0936
 Frc consts  --      0.0508                 0.0249                 0.0891
 IR Inten    --      2.3168                 0.1242                 1.2023

                     16                     17                     18
                      A                      A                      A
 Frequencies --    160.5767               167.7918               181.3234
 Red. masses --      2.0088                 2.0468                 6.7994
 Frc consts  --      0.0305                 0.0340                 0.1317
 IR Inten    --      0.1542                 0.1411                 1.0973

                     19                     20                     21
                      A                      A                      A
 Frequencies --    216.5272               240.0867               256.0084
 Red. masses --      5.1844                 4.5089                 4.3763
 Frc consts  --      0.1432                 0.1531                 0.1690
 IR Inten    --      1.7561                 1.4405                 6.4424

                     22                     23                     24
                      A                      A                      A
 Frequencies --    301.1714               316.5461               327.7294
 Red. masses --      2.8755                 4.7430                 5.2314
 Frc consts  --      0.1537                 0.2800                 0.3311
 IR Inten    --      5.3789                 0.9874                24.5638

                     25                     26                     27
                      A                      A                      A
 Frequencies --    358.8878               378.4808               379.5009
 Red. masses --      4.8461                 9.4423                 4.0829
 Frc consts  --      0.3678                 0.7969                 0.3465
 IR Inten    --     11.5202                23.6040                 0.3337

                     28                     29                     30
                      A                      A                      A
 Frequencies --    427.7681               431.2334               448.7924
 Red. masses --      6.1831                 7.7085                 3.7790
 Frc consts  --      0.6666                 0.8446                 0.4485
 IR Inten    --      2.3009                 3.0022                 4.3632

                     31                     32                     33
                      A                      A                      A
 Frequencies --    459.8468               486.7771               496.4306
 Red. masses --      4.2882                 3.2842                 5.2375
 Frc consts  --      0.5343                 0.4585                 0.7605
 IR Inten    --     16.1872                 1.2153                 1.5278

                     34                     35                     36
                      A                      A                      A
 Frequencies --    533.8082               574.3994               620.4336
 Red. masses --      6.3471                 5.3225                 4.7354
 Frc consts  --      1.0656                 1.0347                 1.0740
 IR Inten    --      1.1065                 4.8026                67.5375

                     37                     38                     39
                      A                      A                      A
 Frequencies --    644.2636               655.1438               674.7754
 Red. masses --      6.1762                 1.1121                 5.7341
 Frc consts  --      1.5104                 0.2812                 1.5383
 IR Inten    --     32.7225               137.4675                10.1132

                     40                     41                     42
                      A                      A                      A
 Frequencies --    697.1870               707.1003               713.4652
 Red. masses --      3.1217                 3.5032                 5.0133
 Frc consts  --      0.8940                 1.0320                 1.5036
 IR Inten    --      3.1517                66.5414                26.8669

                     43                     44                     45
                      A                      A                      A
 Frequencies --    729.0049               732.0567               739.7674
 Red. masses --      1.0845                 1.1119                 1.1338
 Frc consts  --      0.3396                 0.3511                 0.3656
 IR Inten    --     14.5111                 0.9247                 6.4820

                     46                     47                     48
                      A                      A                      A
 Frequencies --    753.4532               764.0791               781.9101
 Red. masses --      1.1854                 3.4052                 1.2760
 Frc consts  --      0.3965                 1.1713                 0.4596
 IR Inten    --      0.7318                28.2345                 0.2870

                     49                     50                     51
                      A                      A                      A
 Frequencies --    787.1841               825.8965               868.8247
 Red. masses --      2.1273                 1.4502                 1.9468
 Frc consts  --      0.7767                 0.5828                 0.8658
 IR Inten    --     26.1172                 8.4507                25.4637

                     52                     53                     54
                      A                      A                      A
 Frequencies --    881.0670               910.6632               939.3660
 Red. masses --      1.3828                 1.5966                 5.7260
 Frc consts  --      0.6324                 0.7801                 2.9769
 IR Inten    --      0.0680                22.3328                42.3561

                     55                     56                     57
                      A                      A                      A
 Frequencies --    967.7084               981.3250               981.7690
 Red. masses --      1.4110                 2.2693                 2.0407
 Frc consts  --      0.7785                 1.2875                 1.1589
 IR Inten    --      1.4272                 6.3759                 1.7191

                     58                     59                     60
                      A                      A                      A
 Frequencies --    987.6096               996.2844              1012.8366
 Red. masses --      4.8903                 1.2804                 4.0037
 Frc consts  --      2.8103                 0.7488                 2.4198
 IR Inten    --      5.6998                 0.0119                23.9411

                     61                     62                     63
                      A                      A                      A
 Frequencies --   1023.8494              1028.0150              1040.3422
 Red. masses --      1.7467                 2.4648                 2.1530
 Frc consts  --      1.0788                 1.5347                 1.3729
 IR Inten    --      3.8822                 4.9127                37.7533

                     64                     65                     66
                      A                      A                      A
 Frequencies --   1047.3261              1055.2804              1061.1232
 Red. masses --      2.7262                 2.3946                 2.7828
 Frc consts  --      1.7619                 1.5712                 1.8462
 IR Inten    --      2.4477                86.8157                 2.6065

                     67                     68                     69
                      A                      A                      A
 Frequencies --   1061.6640              1064.6330              1083.3420
 Red. masses --      2.7162                 2.3191                 1.0842
 Frc consts  --      1.8038                 1.5487                 0.7497
 IR Inten    --      2.2771                 1.2717                 4.2097

                     70                     71                     72
                      A                      A                      A
 Frequencies --   1108.8941              1111.3595              1127.9017
 Red. masses --      2.6611                 3.1721                 1.6718
 Frc consts  --      1.9279                 2.3083                 1.2531
 IR Inten    --      3.7670                 7.9801               134.8860

                     73                     74                     75
                      A                      A                      A
 Frequencies --   1153.4748              1193.8922              1202.4142
 Red. masses --      1.3248                 2.5149                 2.1352
 Frc consts  --      1.0385                 2.1121                 1.8188
 IR Inten    --      3.2815                39.6127                21.8234

                     76                     77                     78
                      A                      A                      A
 Frequencies --   1214.4098              1215.7378              1238.8502
 Red. masses --      1.7533                 1.1734                 1.2309
 Frc consts  --      1.5235                 1.0218                 1.1130
 IR Inten    --     21.1101                 8.1813                27.8492

                     79                     80                     81
                      A                      A                      A
 Frequencies --   1244.3071              1256.8947              1270.3158
 Red. masses --      1.7959                 1.9622                 1.2874
 Frc consts  --      1.6383                 1.8264                 1.2240
 IR Inten    --      7.2165               115.6435                29.2641

                     82                     83                     84
                      A                      A                      A
 Frequencies --   1280.4396              1291.0480              1304.0340
 Red. masses --      1.6072                 1.7351                 1.3379
 Frc consts  --      1.5525                 1.7039                 1.3404
 IR Inten    --     72.3683                 5.9432                38.5801

                     85                     86                     87
                      A                      A                      A
 Frequencies --   1310.3137              1321.9945              1324.5665
 Red. masses --      1.3078                 1.3264                 1.1270
 Frc consts  --      1.3230                 1.3658                 1.1650
 IR Inten    --     50.4914               151.0512                37.5139

                     88                     89                     90
                      A                      A                      A
 Frequencies --   1326.8295              1330.5273              1334.9577
 Red. masses --      1.2029                 1.1010                 1.1593
 Frc consts  --      1.2477                 1.1484                 1.2173
 IR Inten    --     20.1863                 0.4641                 4.4300

                     91                     92                     93
                      A                      A                      A
 Frequencies --   1335.4142              1336.0129              1350.2214
 Red. masses --      1.3070                 1.1204                 8.7629
 Frc consts  --      1.3733                 1.1783                 9.4126
 IR Inten    --      7.2828                 0.1625                45.5107

                     94                     95                     96
                      A                      A                      A
 Frequencies --   1358.6994              1374.6601              1387.1284
 Red. masses --      1.4254                 1.4578                 1.5171
 Frc consts  --      1.5504                 1.6231                 1.7199
 IR Inten    --     19.8663                 1.0360                 1.5972

                     97                     98                     99
                      A                      A                      A
 Frequencies --   1394.9978              1397.0912              1422.9723
 Red. masses --      1.5862                 1.6335                 2.7728
 Frc consts  --      1.8187                 1.8785                 3.3079
 IR Inten    --      0.3289                 0.2230               734.7842

                    100                    101                    102
                      A                      A                      A
 Frequencies --   1454.1032              1458.9275              1471.1426
 Red. masses --      1.7925                 2.3066                 1.0718
 Frc consts  --      2.2331                 2.8926                 1.3667
 IR Inten    --    363.4390                50.2966                 0.0904

                    103                    104                    105
                      A                      A                      A
 Frequencies --   1472.6428              1474.1594              1475.9190
 Red. masses --      1.0860                 1.1075                 1.2439
 Frc consts  --      1.3876                 1.4180                 1.5964
 IR Inten    --      7.6625                 3.2972                41.3991

                    106                    107                    108
                      A                      A                      A
 Frequencies --   1478.2821              1482.7490              1489.8080
 Red. masses --      1.6485                 1.1351                 1.1041
 Frc consts  --      2.1226                 1.4704                 1.4438
 IR Inten    --     95.8636                 4.6005                 1.6230

                    109                    110                    111
                      A                      A                      A
 Frequencies --   1497.5507              1499.7773              1504.1746
 Red. masses --      1.1160                 4.0403                 1.1015
 Frc consts  --      1.4746                 5.3545                 1.4684
 IR Inten    --     23.2142               959.4179                 1.1130

                    112                    113                    114
                      A                      A                      A
 Frequencies --   1508.2918              1529.2831              1572.0336
 Red. masses --      1.0998                 5.2514                 5.3505
 Frc consts  --      1.4741                 7.2360                 7.7906
 IR Inten    --     27.5207                19.2324                16.7282

                    115                    116                    117
                      A                      A                      A
 Frequencies --   1622.7460              1631.4097              2988.4230
 Red. masses --      5.9027                 6.5749                 1.0574
 Frc consts  --      9.1580                10.3102                 5.5638
 IR Inten    --      8.1721                 6.5686                 6.3931

                    118                    119                    120
                      A                      A                      A
 Frequencies --   2989.8893              2992.7426              2996.3437
 Red. masses --      1.0574                 1.0581                 1.0584
 Frc consts  --      5.5694                 5.5836                 5.5989
 IR Inten    --      0.6214                 7.4963                35.7229

                    121                    122                    123
                      A                      A                      A
 Frequencies --   3000.2544              3004.9733              3006.6176
 Red. masses --      1.0587                 1.0981                 1.0587
 Frc consts  --      5.6149                 5.8424                 5.6385
 IR Inten    --    122.1898                 0.6795               152.5930

                    124                    125                    126
                      A                      A                      A
 Frequencies --   3008.8888              3010.2912              3018.0175
 Red. masses --      1.0646                 1.0940                 1.1019
 Frc consts  --      5.6786                 5.8412                 5.9131
 IR Inten    --     75.0684                11.3490                 1.2311

                    127                    128                    129
                      A                      A                      A
 Frequencies --   3027.1127              3029.0036              3031.2044
 Red. masses --      1.0970                 1.0669                 1.0585
 Frc consts  --      5.9226                 5.7671                 5.7303
 IR Inten    --     19.4295                99.6968                46.7120

                    130                    131                    132
                      A                      A                      A
 Frequencies --   3037.4019              3045.2559              3048.4609
 Red. masses --      1.1044                 1.1042                 1.1054
 Frc consts  --      6.0033                 6.0332                 6.0524
 IR Inten    --     14.0478                13.4096               337.8440

                    133                    134                    135
                      A                      A                      A
 Frequencies --   3072.0460              3074.1198              3098.7186
 Red. masses --      1.1057                 1.1044                 1.0563
 Frc consts  --      6.1484                 6.1492                 5.9756
 IR Inten    --     85.5150                72.5282                22.2031

                    136                    137                    138
                      A                      A                      A
 Frequencies --   3158.6378              3164.2715              3172.3719
 Red. masses --      1.0858                 1.1123                 1.0899
 Frc consts  --      6.3828                 6.5616                 6.4626
 IR Inten    --      8.9886                 9.8194                20.5745

                    139                    140                    141
                      A                      A                      A
 Frequencies --   3186.7549              3191.0712              3532.3205
 Red. masses --      1.0922                 1.0945                 1.0640
 Frc consts  --      6.5348                 6.5664                 7.8216
 IR Inten    --     21.8008                34.3831               195.3017

 - Thermochemistry -
 -------------------
 Temperature   298.150 Kelvin.  Pressure   1.00000 Atm.
 Atom     1 has atomic number  6 and mass  12.00000

 Molecular mass:   392.09871 amu.
 Principal axes and moments of inertia in atomic units:
                           1         2         3
     Eigenvalues --  2625.62181********************
           X            0.96250   0.10975   0.24810
           Y           -0.23128  -0.14606   0.96186
           Z           -0.14180   0.98317   0.11520
 This molecule is an asymmetric top.
 Rotational symmetry number  1.
 Warning -- assumption of classical behavior for rotation
           may cause significant error
 Rotational temperatures (Kelvin)      0.03299     0.00133     0.00130
 Rotational constants (GHZ):           0.68736     0.02764     0.02710
 Zero-point vibrational energy    1071579.9 (Joules/Mol)
                                  256.11374 (Kcal/Mol)
 Warning -- explicit consideration of  36 degrees of freedom as
           vibrations may cause significant error
 Vibrational temperatures:     15.91    21.71    26.10    41.48    53.02
          (Kelvin)             76.02   105.90   108.95   137.65   144.05
                              148.42   175.97   191.32   200.35   226.69
                              231.03   241.41   260.88   311.53   345.43
                              368.34   433.32   455.44   471.53   516.36
                              544.55   546.02   615.46   620.45   645.71
                              661.62   700.36   714.25   768.03   826.43
                              892.67   926.95   942.61   970.85  1003.10
                             1017.36  1026.52  1048.88  1053.27  1064.36
                             1084.05  1099.34  1124.99  1132.58  1188.28
                             1250.04  1267.66  1310.24  1351.54  1392.32
                             1411.91  1412.55  1420.95  1433.43  1457.25
                             1473.09  1479.08  1496.82  1506.87  1518.31
                             1526.72  1527.50  1531.77  1558.69  1595.45
                             1599.00  1622.80  1659.59  1717.74  1730.01
                             1747.26  1749.18  1782.43  1790.28  1808.39
                             1827.70  1842.27  1857.53  1876.21  1885.25
                             1902.06  1905.76  1909.01  1914.33  1920.71
                             1921.36  1922.22  1942.67  1954.87  1977.83
                             1995.77  2007.09  2010.10  2047.34  2092.13
                             2099.07  2116.65  2118.80  2120.99  2123.52
                             2126.92  2133.35  2143.50  2154.64  2157.85
                             2164.17  2170.10  2200.30  2261.81  2334.77
                             2347.23  4299.67  4301.78  4305.89  4311.07
                             4316.70  4323.49  4325.85  4329.12  4331.14
                             4342.25  4355.34  4358.06  4361.23  4370.14
                             4381.44  4386.06  4419.99  4422.97  4458.36
                             4544.58  4552.68  4564.34  4585.03  4591.24
                             5082.22

 Zero-point correction=                           0.408143 (Hartree/Particle)
 Thermal correction to Energy=                    0.432969
 Thermal correction to Enthalpy=                  0.433914
 Thermal correction to Gibbs Free Energy=         0.346708
 Sum of electronic and zero-point Energies=          -3577.057222
 Sum of electronic and thermal Energies=             -3577.032396
 Sum of electronic and thermal Enthalpies=           -3577.031452
 Sum of electronic and thermal Free Energies=        -3577.118657

                     E (Thermal)             CV                S
                      KCal/Mol        Cal/Mol-Kelvin    Cal/Mol-Kelvin
 Total                  271.692             91.389            183.540
 Electronic               0.000              0.000              1.377
 Translational            0.889              2.981             43.791
 Rotational               0.889              2.981             37.676
 Vibrational            269.915             85.428            100.695
 Vibration     1          0.593              1.987              7.811
 Vibration     2          0.593              1.986              7.194
 Vibration     3          0.593              1.986              6.828
 Vibration     4          0.593              1.984              5.908
 Vibration     5          0.594              1.982              5.421
 Vibration     6          0.596              1.976              4.708
 Vibration     7          0.599              1.966              4.055
 Vibration     8          0.599              1.965              3.999
 Vibration     9          0.603              1.952              3.541
 Vibration    10          0.604              1.949              3.452
 Vibration    11          0.605              1.947              3.394
 Vibration    12          0.610              1.931              3.064
 Vibration    13          0.613              1.920              2.903
 Vibration    14          0.615              1.914              2.814
 Vibration    15          0.621              1.894              2.579
 Vibration    16          0.622              1.891              2.543
 Vibration    17          0.625              1.882              2.460
 Vibration    18          0.630              1.865              2.315
 Vibration    19          0.645              1.816              1.988
 Vibration    20          0.657              1.779              1.802
 Vibration    21          0.666              1.753              1.689
 Vibration    22          0.693              1.671              1.410
 Vibration    23          0.703              1.642              1.328
 Vibration    24          0.711              1.620              1.271
 Vibration    25          0.734              1.557              1.127
 Vibration    26          0.749              1.516              1.045
 Vibration    27          0.750              1.514              1.041
 Vibration    28          0.789              1.410              0.866
 Vibration    29          0.792              1.402              0.855
 Vibration    30          0.808              1.364              0.799
 Vibration    31          0.818              1.339              0.767
 Vibration    32          0.843              1.279              0.692
 Vibration    33          0.852              1.258              0.667
 Vibration    34          0.889              1.175              0.579
 Vibration    35          0.931              1.087              0.496
 Vibration    36          0.980              0.989              0.416

                           ! Non-Optimized Parameters !
 Normal termination of Gaussian 16 at Sun Feb 11 19:15:48 2024.
