 Gaussian 16, Revision A.03,
 Gaussian 16:  ES64L-G16RevA.03 25-Dec-2016

 ----------------------------------------------------------------------
 #P UB3LYP/6-311++G(d,p) nosym opt freq SCRF=(PCM,Solvent=n,n-DiMethylF
 ormamide)
 ----------------------------------------------------------------------

 -------
 Reduced
 -------
 Symbolic Z-matrix:
 Charge = -2 Multiplicity = 1

 SCF Done:  E(UB3LYP) =  -973.054446209     A.U. after   18 cycles
 SCF Done:  E(UB3LYP) =  -973.055656235     A.U. after   14 cycles
 SCF Done:  E(UB3LYP) =  -973.055582696     A.U. after   14 cycles
 SCF Done:  E(UB3LYP) =  -973.055962217     A.U. after   12 cycles
 SCF Done:  E(UB3LYP) =  -973.055972133     A.U. after   12 cycles
 SCF Done:  E(UB3LYP) =  -973.055977247     A.U. after   11 cycles
 SCF Done:  E(UB3LYP) =  -973.055977528     A.U. after   10 cycles
 SCF Done:  E(UB3LYP) =  -973.055977602     A.U. after   10 cycles
 Optimization completed.
    -- Stationary point found.
 Normal termination of Gaussian 16 at Sun Feb 11 02:41:32 2024.

 ----------------------------------------------------------------------
 #P Geom=AllCheck Guess=TCheck SCRF=Check GenChk UB3LYP/6-311++G(d,p) F
 req
 ----------------------------------------------------------------------

 Structure from the checkpoint file:  "276-an.chk"
 -------
 Reduced
 -------
 Charge = -2 Multiplicity = 1

                          Input orientation:
 ---------------------------------------------------------------------
 Center     Atomic      Atomic             Coordinates (Angstroms)
 Number     Number       Type             X           Y           Z
 ---------------------------------------------------------------------
      1          6           0        4.251846   -0.002971   -0.146441
      2         16           0        3.026916   -1.348348   -0.310179
      3          6           0        1.441862   -0.503984   -0.141167
      4          6           0        1.328530    0.892481    0.059695
      5          6           0        0.093591    1.555856    0.197159
      6          8           0       -0.008755    2.847068    0.382284
      7          6           0       -1.076757    0.695429    0.120822
      8          6           0       -2.376824    1.244572    0.247778
      9          6           0       -3.514788    0.464357    0.184208
     10          6           0       -3.392636   -0.933262   -0.012231
     11          6           0       -2.142079   -1.501916   -0.141383
     12          6           0       -0.950932   -0.728884   -0.084053
     13          6           0        0.336829   -1.374908   -0.228429
     14          8           0        0.466647   -2.664741   -0.423211
     15          1           0        4.147376    0.738870   -0.939378
     16          1           0        5.228327   -0.480936   -0.236772
     17          1           0        4.187288    0.487039    0.826027
     18          1           0        2.220925    1.506999    0.114929
     19          1           0       -2.451046    2.316374    0.398104
     20          1           0       -4.496963    0.916114    0.284461
     21          1           0       -4.282223   -1.554328   -0.060494
     22          1           0       -2.037134   -2.570879   -0.289860
 ---------------------------------------------------------------------

 SCF Done:  E(UB3LYP) =  -973.055977602     A.U. after    1 cycles

 Alpha  occ. eigenvalues --  -88.82802 -19.01654 -19.01492 -10.17911 -10.17199
 Alpha  occ. eigenvalues --  -10.16963 -10.15563 -10.15034 -10.14870 -10.14679
 Alpha  occ. eigenvalues --  -10.14635 -10.14113 -10.13871 -10.12283  -7.91326
 Alpha  occ. eigenvalues --   -5.87721  -5.87317  -5.86757  -0.92658  -0.92159
 Alpha  occ. eigenvalues --   -0.82585  -0.79018  -0.75061  -0.72303  -0.70190
 Alpha  occ. eigenvalues --   -0.65655  -0.62028  -0.58616  -0.56041  -0.52496
 Alpha  occ. eigenvalues --   -0.47642  -0.46537  -0.43737  -0.42452  -0.41653
 Alpha  occ. eigenvalues --   -0.41065  -0.40075  -0.37665  -0.37374  -0.36276
 Alpha  occ. eigenvalues --   -0.35280  -0.35117  -0.32312  -0.31744  -0.31512
 Alpha  occ. eigenvalues --   -0.30936  -0.29480  -0.25253  -0.22915  -0.22157
 Alpha  occ. eigenvalues --   -0.19802  -0.19419  -0.19244  -0.11419
 Alpha virt. eigenvalues --   -0.00734   0.00025   0.00584   0.00905   0.01699
 Alpha virt. eigenvalues --    0.02393   0.02823   0.03760   0.04479   0.05124
 Alpha virt. eigenvalues --    0.05610   0.05852   0.06779   0.06819   0.07166

  Beta  occ. eigenvalues --  -88.82802 -19.01654 -19.01492 -10.17911 -10.17199
  Beta  occ. eigenvalues --  -10.16963 -10.15563 -10.15034 -10.14870 -10.14679
  Beta  occ. eigenvalues --  -10.14635 -10.14113 -10.13871 -10.12283  -7.91326
  Beta  occ. eigenvalues --   -5.87721  -5.87317  -5.86757  -0.92658  -0.92159
  Beta  occ. eigenvalues --   -0.82585  -0.79018  -0.75061  -0.72303  -0.70190
  Beta  occ. eigenvalues --   -0.65655  -0.62028  -0.58616  -0.56041  -0.52496
  Beta  occ. eigenvalues --   -0.47642  -0.46537  -0.43737  -0.42452  -0.41653
  Beta  occ. eigenvalues --   -0.41065  -0.40075  -0.37665  -0.37374  -0.36276
  Beta  occ. eigenvalues --   -0.35280  -0.35117  -0.32312  -0.31744  -0.31512
  Beta  occ. eigenvalues --   -0.30936  -0.29480  -0.25253  -0.22915  -0.22157
  Beta  occ. eigenvalues --   -0.19802  -0.19419  -0.19244  -0.11419
  Beta virt. eigenvalues --   -0.00734   0.00025   0.00584   0.00905   0.01699
  Beta virt. eigenvalues --    0.02393   0.02823   0.03760   0.04479   0.05124
  Beta virt. eigenvalues --    0.05610   0.05852   0.06779   0.06819   0.07166

 Mulliken charges and spin densities:
               1          2
     1  C   -0.491928  -0.000000
     2  S   -0.675734  -0.000000
     3  C    1.016128   0.000000
     4  C    0.388331   0.000000
     5  C   -0.552568  -0.000000
     6  O   -0.714030   0.000000
     7  C    0.394314   0.000000
     8  C    0.103359   0.000000
     9  C   -0.396345  -0.000000
    10  C   -0.430815   0.000000
    11  C    0.184811   0.000000
    12  C    0.136726  -0.000000
    13  C   -1.592303  -0.000000
    14  O   -0.666277   0.000000
    15  H    0.180025   0.000000
    16  H    0.181001  -0.000000
    17  H    0.180003   0.000000
    18  H    0.145832  -0.000000
    19  H    0.143126  -0.000000
    20  H    0.159034   0.000000
    21  H    0.156529   0.000000
    22  H    0.150778  -0.000000
 Sum of Mulliken charges =  -2.00000  -0.00000

 Dipole moment (field-independent basis, Debye):
    X=             -0.9538    Y=              1.3301    Z=              0.4511  Tot=              1.6978
 Quadrupole moment (field-independent basis, Debye-Ang):
   XX=           -104.8309   YY=           -159.3745   ZZ=           -103.1077
   XY=             11.6246   XZ=              1.8681   YZ=             -8.6931

  Exact polarizability: 410.554  -5.982 304.559 -10.517  21.839 155.153
 Approx polarizability: 436.642  -1.647 350.693 -10.501  26.579 167.491

                      1                      2                      3
                      A                      A                      A
 Frequencies --     42.3918                95.4715               142.4075
 Red. masses --      3.7798                 5.7138                 4.6294
 Frc consts  --      0.0040                 0.0307                 0.0553
 IR Inten    --     20.7413                 2.1207                 0.7723

                      4                      5                      6
                      A                      A                      A
 Frequencies --    158.4282               162.3078               209.4531
 Red. masses --      5.3399                 4.6699                 1.5098
 Frc consts  --      0.0790                 0.0725                 0.0390
 IR Inten    --     12.1087                12.8234                 0.5486

                      7                      8                      9
                      A                      A                      A
 Frequencies --    246.8842               248.5599               261.3542
 Red. masses --      2.4732                 4.4363                 7.1462
 Frc consts  --      0.0888                 0.1615                 0.2876
 IR Inten    --      0.6660                11.6261                 7.6272

                     10                     11                     12
                      A                      A                      A
 Frequencies --    340.5322               362.3462               372.4921
 Red. masses --      9.5374                 8.4587                 8.1796
 Frc consts  --      0.6516                 0.6543                 0.6687
 IR Inten    --      4.2616                17.1753                 0.1901

                     13                     14                     15
                      A                      A                      A
 Frequencies --    441.2234               476.0453               502.9386
 Red. masses --      3.2197                10.2042                 3.9505
 Frc consts  --      0.3693                 1.3625                 0.5888
 IR Inten    --      8.4940                 0.6918                 1.3842

                     16                     17                     18
                      A                      A                      A
 Frequencies --    508.6602               600.9399               639.2501
 Red. masses --      8.5681                 7.3375                 2.7321
 Frc consts  --      1.3061                 1.5612                 0.6578
 IR Inten    --      6.7757                14.9637                 2.5469

                     19                     20                     21
                      A                      A                      A
 Frequencies --    653.2794               685.4410               702.3334
 Red. masses --      5.9437                 3.4973                 6.0154
 Frc consts  --      1.4945                 0.9681                 1.7482
 IR Inten    --      2.1366                35.1130                 3.1932

                     22                     23                     24
                      A                      A                      A
 Frequencies --    721.1898               767.5918               787.9323
 Red. masses --      6.2709                 1.4676                 3.2064
 Frc consts  --      1.9217                 0.5095                 1.1728
 IR Inten    --     48.6473               128.4608                 0.4481

                     25                     26                     27
                      A                      A                      A
 Frequencies --    813.2841               825.0496               843.6051
 Red. masses --      1.9107                 5.9294                 6.9569
 Frc consts  --      0.7446                 2.3781                 2.9171
 IR Inten    --     28.1360               195.6061                99.2910

                     28                     29                     30
                      A                      A                      A
 Frequencies --    863.2157               964.0891               970.5306
 Red. masses --      1.6431                 1.1893                 1.3577
 Frc consts  --      0.7214                 0.6513                 0.7535
 IR Inten    --      0.4825                 9.9706                 3.3183

                     31                     32                     33
                      A                      A                      A
 Frequencies --    982.0652               984.2640              1016.2010
 Red. masses --      1.3062                 1.2586                 2.1753
 Frc consts  --      0.7422                 0.7184                 1.3235
 IR Inten    --      6.2521                 1.0508                63.9626

                     34                     35                     36
                      A                      A                      A
 Frequencies --   1076.8699              1085.5163              1133.1284
 Red. masses --      3.4700                 3.0344                 1.5113
 Frc consts  --      2.3708                 2.1067                 1.1433
 IR Inten    --     10.7102               124.4412               179.1404

                     37                     38                     39
                      A                      A                      A
 Frequencies --   1149.8158              1201.0841              1227.0962
 Red. masses --      1.6148                 1.7450                 3.1785
 Frc consts  --      1.2579                 1.4831                 2.8198
 IR Inten    --     24.9837               423.0759               239.2573

                     40                     41                     42
                      A                      A                      A
 Frequencies --   1262.9046              1312.6603              1346.7920
 Red. masses --      2.3646                 5.6933                 1.5404
 Frc consts  --      2.2220                 5.7798                 1.6462
 IR Inten    --     45.0927               380.6777               453.0272

                     43                     44                     45
                      A                      A                      A
 Frequencies --   1356.9110              1371.3041              1421.0395
 Red. masses --      3.1719                 4.6166                 2.8787
 Frc consts  --      3.4409                 5.1149                 3.4250
 IR Inten    --    649.6071               726.7603               147.9376

                     46                     47                     48
                      A                      A                      A
 Frequencies --   1438.9074              1455.9884              1477.5302
 Red. masses --      2.6455                 1.0526                 1.0652
 Frc consts  --      3.2272                 1.3147                 1.3701
 IR Inten    --    107.5243                10.2591                42.9978

                     49                     50                     51
                      A                      A                      A
 Frequencies --   1503.5263              1515.0788              1582.4753
 Red. masses --      3.8292                 4.6040                 7.4668
 Frc consts  --      5.1001                 6.2267                11.0169
 IR Inten    --     76.1288               363.9404                21.4424

                     52                     53                     54
                      A                      A                      A
 Frequencies --   1608.4907              3033.2368              3111.0142
 Red. masses --      5.5400                 1.0298                 1.1075
 Frc consts  --      8.4450                 5.5821                 6.3153
 IR Inten    --     19.6037                62.4074                20.3821

                     55                     56                     57
                      A                      A                      A
 Frequencies --   3121.3063              3138.1804              3152.8424
 Red. masses --      1.1033                 1.0845                 1.0885
 Frc consts  --      6.3333                 6.2928                 6.3749
 IR Inten    --     17.2899                17.1895                22.5477

                     58                     59                     60
                      A                      A                      A
 Frequencies --   3155.8636              3167.5053              3173.6969
 Red. masses --      1.0867                 1.0922                 1.0939
 Frc consts  --      6.3768                 6.4561                 6.4919
 IR Inten    --     69.9321                56.7887                64.5389

 - Thermochemistry -
 -------------------
 Temperature   298.150 Kelvin.  Pressure   1.00000 Atm.
 Atom     1 has atomic number  6 and mass  12.00000

 Molecular mass:   204.02450 amu.
 Principal axes and moments of inertia in atomic units:
                           1         2         3
     Eigenvalues --  1561.157404035.768295585.35678
           X            0.98379   0.17583   0.03529
           Y           -0.16934   0.97558  -0.13986
           Z           -0.05902   0.13161   0.98954
 This molecule is an asymmetric top.
 Rotational symmetry number  1.
 Warning -- assumption of classical behavior for rotation
           may cause significant error
 Rotational temperatures (Kelvin)      0.05548     0.02146     0.01551
 Rotational constants (GHZ):           1.15603     0.44719     0.32312
 Zero-point vibrational energy     412547.3 (Joules/Mol)
                                   98.60117 (Kcal/Mol)
 Warning -- explicit consideration of  17 degrees of freedom as
           vibrations may cause significant error
 Vibrational temperatures:     60.99   137.36   204.89   227.94   233.52
          (Kelvin)            301.36   355.21   357.62   376.03   489.95
                              521.34   535.93   634.82   684.92   723.62
                              731.85   864.62   919.74   939.92   986.20
                             1010.50  1037.63  1104.39  1133.66  1170.13
                             1187.06  1213.76  1241.97  1387.11  1396.38
                             1412.97  1416.14  1462.09  1549.38  1561.82
                             1630.32  1654.33  1728.09  1765.52  1817.04
                             1888.63  1937.73  1952.29  1973.00  2044.56
                             2070.27  2094.84  2125.84  2163.24  2179.86
                             2276.83  2314.26  4364.15  4476.06  4490.86
                             4515.14  4536.24  4540.58  4557.33  4566.24

 Zero-point correction=                           0.157131 (Hartree/Particle)
 Thermal correction to Energy=                    0.169099
 Thermal correction to Enthalpy=                  0.170043
 Thermal correction to Gibbs Free Energy=         0.118698
 Sum of electronic and zero-point Energies=           -972.898847
 Sum of electronic and thermal Energies=              -972.886879
 Sum of electronic and thermal Enthalpies=            -972.885934
 Sum of electronic and thermal Free Energies=         -972.937280

                     E (Thermal)             CV                S
                      KCal/Mol        Cal/Mol-Kelvin    Cal/Mol-Kelvin
 Total                  106.111             46.388            108.066
 Electronic               0.000              0.000              0.000
 Translational            0.889              2.981             41.844
 Rotational               0.889              2.981             31.932
 Vibrational            104.334             40.427             34.291
 Vibration     1          0.595              1.980              5.144
 Vibration     2          0.603              1.952              3.545
 Vibration     3          0.616              1.911              2.771
 Vibration     4          0.621              1.893              2.568
 Vibration     5          0.622              1.889              2.523
 Vibration     6          0.642              1.826              2.048
 Vibration     7          0.661              1.768              1.753
 Vibration     8          0.662              1.765              1.741
 Vibration     9          0.669              1.743              1.653
 Vibration    10          0.720              1.594              1.210
 Vibration    11          0.736              1.550              1.112
 Vibration    12          0.744              1.529              1.070
 Vibration    13          0.801              1.380              0.823
 Vibration    14          0.833              1.303              0.721
 Vibration    15          0.858              1.243              0.651
 Vibration    16          0.864              1.231              0.637
 Vibration    17          0.959              1.030              0.448

                           ! Non-Optimized Parameters !
 Normal termination of Gaussian 16 at Sun Feb 11 02:58:35 2024.
