 Q-Chem 5.4, Q-Chem, Inc., Pleasanton, CA (2021)
 Q-Chem 5.4.0 for Intel X86 EM64T Linux

User input:
--------------------------------------------------------------
$molecule
0 1
C                 -2.2268610000     -0.3778130000      0.0028140000
C                 -0.7635490000     -0.0594980000     -0.0013940000
C                 -0.2652740000      1.1898920000     -0.0392200000
C                  1.1862910000      1.4735550000     -0.0419660000
O                  1.6120890000      2.6177340000     -0.0764900000
C                  2.1125580000      0.3131340000     -0.0009770000
C                  1.6419300000     -0.9390110000      0.0369490000
C                  0.1844950000     -1.2213880000      0.0393630000
O                 -0.2278710000     -2.3689990000      0.0735650000
H                 -2.4926560000     -0.9508690000      0.8954290000
H                 -2.4854370000     -1.0075590000     -0.8529500000
H                 -2.8261820000      0.5326290000     -0.0291370000
H                 -0.9095570000      2.0627010000     -0.0697640000
H                  3.1719020000      0.5449180000     -0.0037360000
H                  2.2881230000     -1.8094240000      0.0675150000
$end
$rem
MAX_SCF_CYCLES=200
BASIS  =  6-311++G(d,p)
GUI  =  2
JOB_TYPE  =  SP
METHOD  =  B3LYP
SOLVENT_METHOD = PCM
$end
$pcm
theory = CPCM
$end
$solvent
dielectric 37.219
opticaldielectric 1.43
$end

--------------------------------------------------------------

             Standard Nuclear Orientation (Angstroms)
    I     Atom           X                Y                Z
 ----------------------------------------------------------------
    1      C      -2.2268610000    -0.3778130000     0.0028140000
    2      C      -0.7635490000    -0.0594980000    -0.0013940000
    3      C      -0.2652740000     1.1898920000    -0.0392200000
    4      C       1.1862910000     1.4735550000    -0.0419660000
    5      O       1.6120890000     2.6177340000    -0.0764900000
    6      C       2.1125580000     0.3131340000    -0.0009770000
    7      C       1.6419300000    -0.9390110000     0.0369490000
    8      C       0.1844950000    -1.2213880000     0.0393630000
    9      O      -0.2278710000    -2.3689990000     0.0735650000
   10      H      -2.4926560000    -0.9508690000     0.8954290000
   11      H      -2.4854370000    -1.0075590000    -0.8529500000
   12      H      -2.8261820000     0.5326290000    -0.0291370000
   13      H      -0.9095570000     2.0627010000    -0.0697640000
   14      H       3.1719020000     0.5449180000    -0.0037360000
   15      H       2.2881230000    -1.8094240000     0.0675150000
 ----------------------------------------------------------------

    9    -420.9068120224      2.07e-06  Convergence criterion met
 Total energy in the final basis set =     -420.9068120224

                    Orbital Energies (a.u.)
 --------------------------------------------------------------

 Alpha MOs
 -- Occupied --
-19.1456 -19.1425 -10.2883 -10.2862 -10.2205 -10.2109 -10.2101 -10.2022
-10.1753  -1.0763  -1.0720  -0.8657  -0.8072  -0.7297  -0.6937  -0.6291
 -0.5940  -0.5270  -0.5103  -0.4850  -0.4593  -0.4541  -0.4434  -0.4292
 -0.4271  -0.4086  -0.4031  -0.3905  -0.3130  -0.2935  -0.2913  -0.2812

          Ground-State Mulliken Net Atomic Charges

     Atom                 Charge (a.u.)
  ----------------------------------------
      1 C                    -0.410591
      2 C                     1.436439
      3 C                    -0.891665
      4 C                    -0.297764
      5 O                    -0.317579
      6 C                     0.112778
      7 C                     0.184624
      8 C                    -0.846376
      9 O                    -0.283823
     10 H                     0.194635
     11 H                     0.194437
     12 H                     0.178516
     13 H                     0.229162
     14 H                     0.259305
     15 H                     0.257900
  ----------------------------------------
  Sum of atomic charges =     0.000000

                    Cartesian Multipole Moments
 -----------------------------------------------------------------
    Charge (ESU x 10^10)
                 0.0000
    Dipole Moment (Debye)
         X      -0.8728      Y      -0.5882      Z       0.0170
       Tot       1.0526
    Quadrupole Moments (Debye-Ang)
        XX     -45.2114     XY      -9.9469     YY     -71.0779
        XZ       0.3440     YZ       0.5569     ZZ     -52.1019

 Total job time:  28.46s(wall), 66.55s(cpu)
        *  Thank you very much for using Q-Chem.  Have a nice day.  *
