 Gaussian 16, Revision A.03,
 Gaussian 16:  ES64L-G16RevA.03 25-Dec-2016

 ----------------------------------------------------------------
 #P UB3LYP/6-311++G(d,p) SCRF=(PCM,Solvent=n,n-DiMethylFormamide)
 ----------------------------------------------------------------

 ------------------
 Radical PCM in DMF
 ------------------
 Symbolic Z-matrix:
 Charge = -1 Multiplicity = 2

                         Standard orientation:
 ---------------------------------------------------------------------
 Center     Atomic      Atomic             Coordinates (Angstroms)
 Number     Number       Type             X           Y           Z
 ---------------------------------------------------------------------
      1          9           0       -2.388454    1.343991   -0.000003
      2          6           0       -1.207964    0.682339    0.000008
      3          6           0       -1.207856   -0.682747    0.000008
      4          9           0       -2.387965   -1.344690   -0.000007
      5          6           0        0.000274   -1.484610    0.000010
      6          8           0        0.000410   -2.736592    0.000000
      7          6           0        1.208001   -0.682227   -0.000005
      8          6           0        1.207846    0.682676   -0.000004
      9          9           0        2.387885    1.344681    0.000001
     10          6           0       -0.000243    1.484496    0.000004
     11          8           0       -0.000385    2.736652   -0.000001
     12          9           0        2.388473   -1.343987   -0.000003
 ---------------------------------------------------------------------

 SCF Done:  E(UB3LYP) =  -778.785096254     A.U. after   15 cycles

 The electronic state is 2-A.
 Alpha  occ. eigenvalues --  -24.70615 -24.70614 -24.70610 -24.70609 -19.10524
 Alpha  occ. eigenvalues --  -19.10522 -10.27069 -10.27067 -10.27004 -10.27003
 Alpha  occ. eigenvalues --  -10.25709 -10.25707  -1.25055  -1.24982  -1.23670
 Alpha  occ. eigenvalues --   -1.23612  -1.03071  -1.02867  -0.86290  -0.77103
 Alpha  occ. eigenvalues --   -0.72602  -0.64723  -0.63795  -0.57694  -0.56397
 Alpha  occ. eigenvalues --   -0.56376  -0.53783  -0.51257  -0.50483  -0.49330
 Alpha  occ. eigenvalues --   -0.47326  -0.46539  -0.46060  -0.44392  -0.43632
 Alpha  occ. eigenvalues --   -0.41481  -0.40607  -0.40203  -0.39776  -0.39517
 Alpha  occ. eigenvalues --   -0.29938  -0.27540  -0.27375  -0.26020  -0.18656
 Alpha virt. eigenvalues --   -0.02057  -0.00934   0.00912   0.02081   0.02738
 Alpha virt. eigenvalues --    0.05500   0.05615   0.05693   0.07309   0.08216
 Alpha virt. eigenvalues --    0.08790   0.09121   0.09190   0.11179   0.12020

  Beta  occ. eigenvalues --  -24.70587 -24.70587 -24.70582 -24.70582 -19.09804
  Beta  occ. eigenvalues --  -19.09802 -10.26967 -10.26965 -10.26901 -10.26899
  Beta  occ. eigenvalues --  -10.25564 -10.25561  -1.24984  -1.24917  -1.23599
  Beta  occ. eigenvalues --   -1.23546  -1.01832  -1.01602  -0.85695  -0.76895
  Beta  occ. eigenvalues --   -0.71543  -0.64420  -0.63450  -0.57541  -0.56232
  Beta  occ. eigenvalues --   -0.56185  -0.53699  -0.50631  -0.50329  -0.49050
  Beta  occ. eigenvalues --   -0.46860  -0.46300  -0.45534  -0.44120  -0.43046
  Beta  occ. eigenvalues --   -0.41368  -0.40078  -0.39447  -0.38649  -0.36641
  Beta  occ. eigenvalues --   -0.26821  -0.26819  -0.26727  -0.25326
  Beta virt. eigenvalues --   -0.11257  -0.01929   0.00589   0.02115   0.02806
  Beta virt. eigenvalues --    0.03571   0.05557   0.05635   0.05817   0.07433
  Beta virt. eigenvalues --    0.08268   0.08895   0.09213   0.09269   0.11188

 Mulliken charges and spin densities:
               1          2
     1  F   -0.229522   0.002710
     2  C    0.156737   0.085523
     3  C    0.157834   0.085739
     4  F   -0.229411   0.002725
     5  C    0.129315   0.058651
     6  O   -0.485265   0.264616
     7  C    0.157602   0.085581
     8  C    0.157112   0.085586
     9  F   -0.229412   0.002717
    10  C    0.129976   0.058701
    11  O   -0.485418   0.264740
    12  F   -0.229548   0.002710
 Sum of Mulliken charges =  -1.00000   1.00000

 Dipole moment (field-independent basis, Debye):
    X=              0.0002    Y=             -0.0018    Z=              0.0000  Tot=              0.0018
 Quadrupole moment (field-independent basis, Debye-Ang):
   XX=            -81.9797   YY=           -107.1567   ZZ=            -63.9727
   XY=              0.0094   XZ=             -0.0000   YZ=             -0.0000

 Normal termination of Gaussian 16 at Sun Jan 21 07:12:17 2024.
