 Gaussian 16, Revision A.03,
 Gaussian 16:  ES64L-G16RevA.03 25-Dec-2016

 --------------------------------------
 #P UB3LYP/6-311++G(d,p) nosym opt freq
 --------------------------------------

 --------
 Oxidized
 --------
 Symbolic Z-matrix:
 Charge =  0 Multiplicity = 1

 SCF Done:  E(UB3LYP) =  -728.464834768     A.U. after   16 cycles
 SCF Done:  E(UB3LYP) =  -728.474898084     A.U. after   14 cycles
 SCF Done:  E(UB3LYP) =  -728.476086768     A.U. after   13 cycles
 SCF Done:  E(UB3LYP) =  -728.475980412     A.U. after   14 cycles
 SCF Done:  E(UB3LYP) =  -728.476294930     A.U. after   13 cycles
 SCF Done:  E(UB3LYP) =  -728.476479882     A.U. after   12 cycles
 SCF Done:  E(UB3LYP) =  -728.476496485     A.U. after   12 cycles
 SCF Done:  E(UB3LYP) =  -728.476503854     A.U. after   12 cycles
 SCF Done:  E(UB3LYP) =  -728.476505968     A.U. after   11 cycles
 SCF Done:  E(UB3LYP) =  -728.476506375     A.U. after    9 cycles
 Optimization completed.
    -- Stationary point found.
 Normal termination of Gaussian 16 at Tue Dec 26 20:46:17 2023.

 ----------------------------------------------------------------------
 #P Geom=AllCheck Guess=TCheck SCRF=Check GenChk UB3LYP/6-311++G(d,p) F
 req
 ----------------------------------------------------------------------

 Structure from the checkpoint file:  "267.chk"
 --------
 Oxidized
 --------
 Charge =  0 Multiplicity = 1

                          Input orientation:
 ---------------------------------------------------------------------
 Center     Atomic      Atomic             Coordinates (Angstroms)
 Number     Number       Type             X           Y           Z
 ---------------------------------------------------------------------
      1          6           0       -1.250566    2.749021   -0.513591
      2          6           0       -2.540452    2.236253   -0.427995
      3          6           0       -2.748161    0.937359    0.042265
      4          6           0       -0.160036    1.964051   -0.128013
      5          6           0       -0.369488    0.658599    0.344338
      6          6           0       -1.666358    0.150798    0.427146
      7          6           0        1.212994    2.532059   -0.227283
      8          6           0        2.356385    1.643034    0.211228
      9          6           0        2.131950    0.382148    0.655755
     10          6           0        0.789824   -0.191497    0.759631
     11          8           0        1.426328    3.654095   -0.638237
     12          8           0        0.623647   -1.332192    1.172611
     13          1           0       -1.066978    3.753205   -0.875420
     14          1           0       -1.803657   -0.858836    0.794373
     15          8           0        3.529523    2.263111    0.101725
     16          1           0       -3.385128    2.846376   -0.726956
     17          1           0       -3.754777    0.540085    0.107846
     18          1           0        2.932045   -0.278186    0.962328
     19          6           0        4.769186    1.595540    0.470663
     20          6           0        5.747873    2.710791    0.803531
     21          6           0        5.240832    0.704849   -0.674058
     22          1           0        4.577257    0.998876    1.368292
     23          1           0        6.707264    2.285782    1.108897
     24          1           0        5.366598    3.329575    1.617756
     25          1           0        5.910773    3.348634   -0.068279
     26          1           0        6.168220    0.199469   -0.392259
     27          1           0        5.433401    1.308347   -1.564417
     28          1           0        4.503710   -0.059033   -0.927526
 ---------------------------------------------------------------------

 SCF Done:  E(UB3LYP) =  -728.476506375     A.U. after    2 cycles

 Alpha  occ. eigenvalues --  -19.18222 -19.13372 -19.11807 -10.28406 -10.27381
 Alpha  occ. eigenvalues --  -10.27259 -10.25615 -10.20805 -10.20625 -10.20100
 Alpha  occ. eigenvalues --  -10.20010 -10.19906 -10.19675 -10.19446 -10.18194
 Alpha  occ. eigenvalues --  -10.17852  -1.10517  -1.06327  -1.05035  -0.89015
 Alpha  occ. eigenvalues --   -0.84091  -0.81030  -0.77846  -0.77004  -0.71445
 Alpha  occ. eigenvalues --   -0.70035  -0.65700  -0.65109  -0.60528  -0.59243
 Alpha  occ. eigenvalues --   -0.55475  -0.54867  -0.52545  -0.49481  -0.48729
 Alpha  occ. eigenvalues --   -0.47394  -0.46755  -0.45463  -0.45114  -0.44568
 Alpha  occ. eigenvalues --   -0.43777  -0.43474  -0.41754  -0.41358  -0.40854
 Alpha  occ. eigenvalues --   -0.40071  -0.39008  -0.38158  -0.37806  -0.37071
 Alpha  occ. eigenvalues --   -0.35566  -0.35021  -0.28587  -0.28204  -0.27813
 Alpha  occ. eigenvalues --   -0.26911  -0.26373
 Alpha virt. eigenvalues --   -0.11664  -0.05450  -0.02722  -0.01377  -0.00655
 Alpha virt. eigenvalues --    0.00847   0.00940   0.01447   0.01611   0.02890
 Alpha virt. eigenvalues --    0.03065   0.03817   0.03822   0.04441   0.04650

  Beta  occ. eigenvalues --  -19.18222 -19.13372 -19.11807 -10.28406 -10.27381
  Beta  occ. eigenvalues --  -10.27259 -10.25615 -10.20805 -10.20625 -10.20100
  Beta  occ. eigenvalues --  -10.20010 -10.19906 -10.19675 -10.19446 -10.18194
  Beta  occ. eigenvalues --  -10.17852  -1.10517  -1.06327  -1.05035  -0.89015
  Beta  occ. eigenvalues --   -0.84091  -0.81030  -0.77846  -0.77004  -0.71445
  Beta  occ. eigenvalues --   -0.70035  -0.65700  -0.65109  -0.60528  -0.59243
  Beta  occ. eigenvalues --   -0.55475  -0.54867  -0.52545  -0.49481  -0.48729
  Beta  occ. eigenvalues --   -0.47394  -0.46755  -0.45463  -0.45114  -0.44568
  Beta  occ. eigenvalues --   -0.43777  -0.43474  -0.41754  -0.41358  -0.40854
  Beta  occ. eigenvalues --   -0.40071  -0.39008  -0.38158  -0.37806  -0.37071
  Beta  occ. eigenvalues --   -0.35566  -0.35021  -0.28587  -0.28204  -0.27813
  Beta  occ. eigenvalues --   -0.26911  -0.26373
  Beta virt. eigenvalues --   -0.11664  -0.05450  -0.02722  -0.01377  -0.00655
  Beta virt. eigenvalues --    0.00847   0.00940   0.01447   0.01611   0.02890
  Beta virt. eigenvalues --    0.03065   0.03817   0.03822   0.04441   0.04650

 Mulliken charges and spin densities:
               1          2
     1  C    0.243296   0.000000
     2  C   -0.369159  -0.000000
     3  C   -0.283936  -0.000000
     4  C    0.117954   0.000000
     5  C    0.585531  -0.000000
     6  C    0.178270  -0.000000
     7  C   -0.430388  -0.000000
     8  C   -0.375557  -0.000000
     9  C   -0.004069   0.000000
    10  C   -0.362118   0.000000
    11  O   -0.210835   0.000000
    12  O   -0.239193  -0.000000
    13  H    0.178820   0.000000
    14  H    0.178767   0.000000
    15  O    0.045135   0.000000
    16  H    0.176358   0.000000
    17  H    0.178862  -0.000000
    18  H    0.239873   0.000000
    19  C   -0.063033   0.000000
    20  C   -0.474353   0.000000
    21  C   -0.381532  -0.000000
    22  H    0.133966   0.000000
    23  H    0.154613   0.000000
    24  H    0.160371   0.000000
    25  H    0.157637  -0.000000
    26  H    0.149328   0.000000
    27  H    0.175736   0.000000
    28  H    0.139658  -0.000000
 Sum of Mulliken charges =  -0.00000   0.00000

 Dipole moment (field-independent basis, Debye):
    X=              0.9122    Y=              0.2319    Z=             -0.0921  Tot=              0.9457
 Quadrupole moment (field-independent basis, Debye-Ang):
   XX=            -64.8683   YY=           -107.6308   ZZ=            -96.1578
   XY=             -3.3502   XZ=              3.9221   YZ=              4.7774

  Exact polarizability: 222.656  12.416 170.887   4.510 -25.433 104.672
 Approx polarizability: 295.033  32.042 331.857   0.217 -67.612 170.273

                      1                      2                      3
                      A                      A                      A
 Frequencies --     34.6053                62.3203                78.5942
 Red. masses --      5.2256                 2.8570                 5.7205
 Frc consts  --      0.0037                 0.0065                 0.0208
 IR Inten    --      4.2988                 0.3120                 1.9622

                      4                      5                      6
                      A                      A                      A
 Frequencies --    116.2649               118.5492               163.5914
 Red. masses --      3.9226                 4.4370                 6.7576
 Frc consts  --      0.0312                 0.0367                 0.1066
 IR Inten    --      1.1987                 0.5825                 2.5937

                      7                      8                      9
                      A                      A                      A
 Frequencies --    200.2776               204.3258               236.2056
 Red. masses --      4.8419                 1.0285                 1.4178
 Frc consts  --      0.1144                 0.0253                 0.0466
 IR Inten    --      0.5429                 0.0707                 0.6787

                     10                     11                     12
                      A                      A                      A
 Frequencies --    246.3390               270.2895               344.5229
 Red. masses --      2.4608                 4.7592                 3.7634
 Frc consts  --      0.0880                 0.2049                 0.2632
 IR Inten    --      1.8390                 0.1478                 0.9985

                     13                     14                     15
                      A                      A                      A
 Frequencies --    378.4785               394.6441               405.2519
 Red. masses --      9.3715                 2.9374                 3.4762
 Frc consts  --      0.7909                 0.2695                 0.3364
 IR Inten    --     15.8986                 3.9968                 0.6323

                     16                     17                     18
                      A                      A                      A
 Frequencies --    439.4450               457.6031               466.0717
 Red. masses --      3.7995                 8.7577                 4.6738
 Frc consts  --      0.4323                 1.0805                 0.5982
 IR Inten    --      0.8601                 4.8531                 4.8911

                     19                     20                     21
                      A                      A                      A
 Frequencies --    476.8081               510.1356               570.7456
 Red. masses --      4.4808                 3.7857                 5.9665
 Frc consts  --      0.6002                 0.5804                 1.1451
 IR Inten    --      1.4278                 6.7575                 3.3453

                     22                     23                     24
                      A                      A                      A
 Frequencies --    661.5071               681.0123               707.1585
 Red. masses --      5.9557                 3.9464                 6.1924
 Frc consts  --      1.5355                 1.0783                 1.8245
 IR Inten    --      1.7499                 2.6630                 5.9145

                     25                     26                     27
                      A                      A                      A
 Frequencies --    713.8748               737.0653               780.0201
 Red. masses --      6.4075                 2.8317                 2.5564
 Frc consts  --      1.9239                 0.9064                 0.9164
 IR Inten    --      1.3526                27.6404                24.6817

                     28                     29                     30
                      A                      A                      A
 Frequencies --    810.7108               813.1918               845.9657
 Red. masses --      2.7638                 3.7209                 3.1532
 Frc consts  --      1.0703                 1.4497                 1.3295
 IR Inten    --     20.3421                11.3438                 2.2753

                     31                     32                     33
                      A                      A                      A
 Frequencies --    867.9123               908.6241               913.6662
 Red. masses --      1.5406                 2.7935                 1.3442
 Frc consts  --      0.6837                 1.3588                 0.6611
 IR Inten    --     21.9544                 3.9572                 0.0423

                     34                     35                     36
                      A                      A                      A
 Frequencies --    941.4719               952.0636              1000.0106
 Red. masses --      1.3276                 1.3118                 1.3810
 Frc consts  --      0.6933                 0.7005                 0.8137
 IR Inten    --      0.3578                 0.5176                 1.4630

                     37                     38                     39
                      A                      A                      A
 Frequencies --   1014.1439              1016.6388              1056.6934
 Red. masses --      6.0405                 1.3232                 2.1290
 Frc consts  --      3.6604                 0.8057                 1.4006
 IR Inten    --    153.9487                 0.0508                 4.1557

                     40                     41                     42
                      A                      A                      A
 Frequencies --   1101.3261              1130.9592              1139.3624
 Red. masses --      2.8818                 1.8654                 1.8421
 Frc consts  --      2.0594                 1.4058                 1.4089
 IR Inten    --     14.0734               134.8738                 8.9691

                     43                     44                     45
                      A                      A                      A
 Frequencies --   1156.5489              1182.7714              1199.9411
 Red. masses --      2.0916                 1.1359                 1.9012
 Frc consts  --      1.6484                 0.9362                 1.6129
 IR Inten    --      8.5835                17.8269                11.6482

                     46                     47                     48
                      A                      A                      A
 Frequencies --   1231.3502              1265.2678              1282.8943
 Red. masses --      2.7554                 2.5056                 2.0233
 Frc consts  --      2.4615                 2.3633                 1.9619
 IR Inten    --    210.8872               383.4244                63.4321

                     49                     50                     51
                      A                      A                      A
 Frequencies --   1323.8914              1354.3003              1361.3766
 Red. masses --      4.2518                 1.9200                 4.2469
 Frc consts  --      4.3906                 2.0749                 4.6374
 IR Inten    --     89.8219                37.6552                 7.9963

                     52                     53                     54
                      A                      A                      A
 Frequencies --   1370.5653              1389.6027              1408.2422
 Red. masses --      1.6196                 1.4454                 1.3368
 Frc consts  --      1.7925                 1.6445                 1.5620
 IR Inten    --     12.3363                 1.9409                18.2468

                     55                     56                     57
                      A                      A                      A
 Frequencies --   1424.0705              1480.9736              1482.6936
 Red. masses --      1.2576                 1.0490                 2.3962
 Frc consts  --      1.5026                 1.3556                 3.1036
 IR Inten    --     12.3488                 2.5708                 0.0979

                     58                     59                     60
                      A                      A                      A
 Frequencies --   1488.4544              1495.6537              1505.5169
 Red. masses --      1.0442                 1.0518                 2.5969
 Frc consts  --      1.3630                 1.3862                 3.4679
 IR Inten    --      0.8280                 6.2074                 9.1668

                     61                     62                     63
                      A                      A                      A
 Frequencies --   1511.4163              1610.5198              1629.2880
 Red. masses --      1.0575                 6.6199                 5.9543
 Frc consts  --      1.4233                10.1166                 9.3127
 IR Inten    --      7.7216                78.4189                47.0462

                     64                     65                     66
                      A                      A                      A
 Frequencies --   1642.3538              1703.0586              1744.7573
 Red. masses --      8.1240                11.1169                12.8284
 Frc consts  --     12.9108                18.9974                23.0087
 IR Inten    --    343.6792               223.4085               216.4927

                     67                     68                     69
                      A                      A                      A
 Frequencies --   3034.4783              3036.0157              3040.4383
 Red. masses --      1.0790                 1.0402                 1.0355
 Frc consts  --      5.8539                 5.6492                 5.6399
 IR Inten    --      7.2664                13.7806                17.3742

                     70                     71                     72
                      A                      A                      A
 Frequencies --   3101.9678              3110.0924              3112.8770
 Red. masses --      1.1023                 1.1017                 1.1023
 Frc consts  --      6.2492                 6.2785                 6.2933
 IR Inten    --      2.9550                33.2587                14.4196

                     73                     74                     75
                      A                      A                      A
 Frequencies --   3116.0368              3169.8957              3184.2166
 Red. masses --      1.1028                 1.0869                 1.0916
 Frc consts  --      6.3089                 6.4348                 6.5210
 IR Inten    --     23.9556                 3.4053                 9.4839

                     76                     77                     78
                      A                      A                      A
 Frequencies --   3198.8362              3201.5305              3204.5413
 Red. masses --      1.0925                 1.0951                 1.0905
 Frc consts  --      6.5868                 6.6135                 6.5980
 IR Inten    --      0.4796                11.7735                 5.7920

 - Thermochemistry -
 -------------------
 Temperature   298.150 Kelvin.  Pressure   1.00000 Atm.
 Atom     1 has atomic number  6 and mass  12.00000

 Molecular mass:   216.07864 amu.
 Principal axes and moments of inertia in atomic units:
                           1         2         3
     Eigenvalues --  1611.403005509.783796842.93243
           X            0.99512  -0.08275  -0.05382
           Y            0.09513   0.94944   0.29920
           Z            0.02634  -0.30286   0.95267
 This molecule is an asymmetric top.
 Rotational symmetry number  1.
 Warning -- assumption of classical behavior for rotation
           may cause significant error
 Rotational temperatures (Kelvin)      0.05375     0.01572     0.01266
 Rotational constants (GHZ):           1.11998     0.32755     0.26374
 Zero-point vibrational energy     578543.3 (Joules/Mol)
                                  138.27516 (Kcal/Mol)
 Warning -- explicit consideration of  21 degrees of freedom as
           vibrations may cause significant error
 Vibrational temperatures:     49.79    89.67   113.08   167.28   170.57
          (Kelvin)            235.37   288.15   293.98   339.85   354.43
                              388.89   495.69   544.55   567.80   583.07
                              632.26   658.39   670.57   686.02   733.97
                              821.18   951.76   979.82  1017.44  1027.11
                             1060.47  1122.27  1166.43  1170.00  1217.16
                             1248.73  1307.31  1314.56  1354.57  1369.81
                             1438.79  1459.13  1462.72  1520.35  1584.56
                             1627.20  1639.29  1664.02  1701.74  1726.45
                             1771.64  1820.44  1845.80  1904.78  1948.54
                             1958.72  1971.94  1999.33  2026.15  2048.92
                             2130.79  2133.27  2141.55  2151.91  2166.10
                             2174.59  2317.18  2344.18  2362.98  2450.32
                             2510.32  4365.94  4368.15  4374.51  4463.04
                             4474.73  4478.74  4483.28  4560.77  4581.38
                             4602.41  4606.29  4610.62

 Zero-point correction=                           0.220355 (Hartree/Particle)
 Thermal correction to Energy=                    0.234489
 Thermal correction to Enthalpy=                  0.235433
 Thermal correction to Gibbs Free Energy=         0.178946
 Sum of electronic and zero-point Energies=           -728.256151
 Sum of electronic and thermal Energies=              -728.242018
 Sum of electronic and thermal Enthalpies=            -728.241073
 Sum of electronic and thermal Free Energies=         -728.297560

                     E (Thermal)             CV                S
                      KCal/Mol        Cal/Mol-Kelvin    Cal/Mol-Kelvin
 Total                  147.144             54.222            118.887
 Electronic               0.000              0.000              0.000
 Translational            0.889              2.981             42.015
 Rotational               0.889              2.981             32.474
 Vibrational            145.366             48.260             44.398
 Vibration     1          0.594              1.983              5.546
 Vibration     2          0.597              1.972              4.382
 Vibration     3          0.600              1.964              3.926
 Vibration     4          0.608              1.936              3.162
 Vibration     5          0.609              1.934              3.124
 Vibration     6          0.623              1.887              2.508
 Vibration     7          0.638              1.839              2.131
 Vibration     8          0.640              1.834              2.094
 Vibration     9          0.655              1.785              1.831
 Vibration    10          0.661              1.769              1.757
 Vibration    11          0.674              1.728              1.594
 Vibration    12          0.723              1.586              1.191
 Vibration    13          0.749              1.516              1.045
 Vibration    14          0.762              1.482              0.983
 Vibration    15          0.770              1.459              0.944
 Vibration    16          0.799              1.384              0.828
 Vibration    17          0.816              1.344              0.773
 Vibration    18          0.823              1.325              0.749
 Vibration    19          0.833              1.301              0.719
 Vibration    20          0.865              1.228              0.633
 Vibration    21          0.927              1.095              0.503

                           ! Non-Optimized Parameters !
 Normal termination of Gaussian 16 at Tue Dec 26 21:26:16 2023.
