 Q-Chem 5.4, Q-Chem, Inc., Pleasanton, CA (2021)
 Q-Chem 5.4.0 for Intel X86 EM64T Linux

User input:
--------------------------------------------------------------
$molecule
-1 2
C                 -4.1215740000      3.6362520000      1.5170260000
C                 -4.6078390000      3.8606720000      0.2461050000
C                 -4.0145570000      3.2134960000     -0.8461240000
C                 -2.9409150000      2.3468760000     -0.6668420000
C                 -2.4132960000      2.0917750000      0.6296840000
C                 -3.0365200000      2.7642460000      1.7249650000
C                 -2.5719820000      2.5744840000      3.1135850000
C                 -1.4649880000      1.6797470000      3.2905620000
C                 -0.8760090000      1.0408640000      2.2311360000
C                 -1.2676740000      1.1698860000      0.8401040000
O                 -3.1182670000      3.1649200000      4.0824800000
O                 -0.6916420000      0.5610780000     -0.0817840000
H                 -4.5486520000      4.1143090000      2.3897380000
H                 -4.3904520000      3.3834000000     -1.8533740000
O                 -2.3903720000      1.7345720000     -1.7627730000
Br                 0.6126660000     -0.1454200000      2.5872700000
H                 -5.4447150000      4.5327960000      0.0828770000
H                 -1.1120690000      1.5295430000      4.3034040000
H                 -2.8830140000      2.0345660000     -2.5342430000
$end
$rem
MAX_SCF_CYCLES=200
BASIS  =  6-311++G(d,p)
GUI  =  2
JOB_TYPE  =  SP
METHOD  =  B3LYP
SOLVENT_METHOD = COSMO
$end
$solvent
dielectric 37.219
opticaldielectric 1.43
$end

--------------------------------------------------------------

             Standard Nuclear Orientation (Angstroms)
    I     Atom           X                Y                Z
 ----------------------------------------------------------------
    1      C       2.8493413144    -1.3565363242    -0.0000696497
    2      C       3.8545329076    -0.4122651577    -0.0000710626
    3      C       3.5245948656     0.9496912961    -0.0000363745
    4      C       2.1962294827     1.3636053108     0.0000094259
    5      C       1.1335608179     0.4174693241    -0.0000314350
    6      C       1.4978073794    -0.9636861018    -0.0000590627
    7      C       0.4783316600    -2.0317403757    -0.0000448887
    8      C      -0.8886731169    -1.5974492276     0.0000663450
    9      C      -1.2246121975    -0.2690682081     0.0000361938
   10      C      -0.2902757445     0.8409018600    -0.0000827715
   11      O       0.7944717650    -3.2506968535     0.0001324690
   12      O      -0.6576441937     2.0314386928    -0.0000299820
   13      H       3.0575028326    -2.4191882572    -0.0000712286
   14      H       4.3100031596     1.7032500472     0.0000203526
   15      O       1.9179445759     2.7058556737     0.0001272953
   16      Br     -3.1028782630     0.2024940835    -0.0000146352
   17      H       4.8978883770    -0.7125397901    -0.0000557694
   18      H      -1.6489495358    -2.3687738932     0.0001444377
   19      H       2.7610929824     3.1716444909     0.0003358592
 ----------------------------------------------------------------

   10   -3184.1145713115      7.45e-06  Convergence criterion met
 Total energy in the final basis set =    -3184.1145713115
    5   -3184.2062345088      5.42e-06  Convergence criterion met
 Total energy in the final basis set =    -3184.2062345088

                    Orbital Energies (a.u.)
 --------------------------------------------------------------

 Alpha MOs
 -- Occupied --
******** -62.4775 -56.2978 -56.2943 -56.2940 -19.1543 -19.0858 -19.0852
-10.2452 -10.2424 -10.2321 -10.2216 -10.1880 -10.1829 -10.1783 -10.1747
-10.1734 -10.1671  -8.6863  -6.5171  -6.5053  -6.5046  -2.6282  -2.6248
 -2.6244  -2.6149  -2.6149  -1.0675  -1.0176  -1.0099  -0.8636  -0.8330
 -0.7808  -0.7503  -0.7361  -0.6803  -0.6366  -0.6112  -0.5795  -0.5326
 -0.5163  -0.4851  -0.4770  -0.4587  -0.4413  -0.4369  -0.4251  -0.4050
 -0.4030  -0.3976  -0.3898  -0.3790  -0.3611  -0.3574  -0.3398  -0.3238
 -0.2897  -0.2766  -0.2541  -0.2528  -0.2457  -0.2387  -0.1612

 Beta MOs
 -- Occupied --
******** -62.4775 -56.2979 -56.2943 -56.2940 -19.1542 -19.0798 -19.0790
-10.2452 -10.2411 -10.2305 -10.2194 -10.1878 -10.1824 -10.1780 -10.1742
-10.1720 -10.1669  -8.6862  -6.5172  -6.5052  -6.5046  -2.6282  -2.6248
 -2.6244  -2.6148  -2.6148  -1.0671  -1.0072  -0.9991  -0.8612  -0.8292
 -0.7786  -0.7481  -0.7340  -0.6717  -0.6346  -0.6086  -0.5773  -0.5298
 -0.5141  -0.4828  -0.4753  -0.4574  -0.4389  -0.4283  -0.4194  -0.4027
 -0.3963  -0.3921  -0.3770  -0.3665  -0.3600  -0.3559  -0.3336  -0.3123
 -0.2893  -0.2571  -0.2484  -0.2458  -0.2403  -0.2316

          Ground-State Mulliken Net Atomic Charges

     Atom                 Charge (a.u.)    Spin (a.u.)
  --------------------------------------------------------
      1 C                     0.183495       0.047634
      2 C                    -0.429428       0.023677
      3 C                    -0.196601       0.042350
      4 C                     0.073619       0.033086
      5 C                     0.080246      -0.018990
      6 C                     0.274979       0.035234
      7 C                    -0.639883       0.085380
      8 C                    -0.024623       0.115982
      9 C                     0.651054       0.129123
     10 C                    -0.699905       0.074180
     11 O                    -0.506632       0.218297
     12 O                    -0.428714       0.223990
     13 H                     0.171237      -0.003443
     14 H                     0.188729      -0.003515
     15 O                    -0.247967       0.001740
     16 Br                   -0.219075       0.007079
     17 H                     0.220251      -0.001728
     18 H                     0.233448      -0.009771
     19 H                     0.315771      -0.000305
  --------------------------------------------------------
  Sum of atomic charges =    -1.000000

                    Cartesian Multipole Moments
 -----------------------------------------------------------------
    Charge (ESU x 10^10)
                -4.8032
    Dipole Moment (Debye)
         X       4.6245      Y       3.1392      Z      -0.0003
       Tot       5.5894
    Quadrupole Moments (Debye-Ang)
        XX     -88.6565     XY      18.6797     YY    -129.0661
        XZ      -0.0028     YZ       0.0026     ZZ     -98.2460

 Total job time:  45.57s(wall), 338.80s(cpu)
        *  Thank you very much for using Q-Chem.  Have a nice day.  *
