 Gaussian 16, Revision A.03,
 Gaussian 16:  ES64L-G16RevA.03 25-Dec-2016

 ----------------------------------------------------------------------
 #P UB3LYP/6-311++G(d,p) nosym opt freq SCRF=(PCM,Solvent=n,n-DiMethylF
 ormamide)
 ----------------------------------------------------------------------

 -------
 Reduced
 -------
 Symbolic Z-matrix:
 Charge = -2 Multiplicity = 1

 SCF Done:  E(UB3LYP) =  -878.569588479     A.U. after   16 cycles
 SCF Done:  E(UB3LYP) =  -878.570101613     A.U. after   13 cycles
 SCF Done:  E(UB3LYP) =  -878.570828414     A.U. after   12 cycles
 SCF Done:  E(UB3LYP) =  -878.570889617     A.U. after   11 cycles
 SCF Done:  E(UB3LYP) =  -878.570910414     A.U. after   12 cycles
 SCF Done:  E(UB3LYP) =  -878.570931942     A.U. after   10 cycles
 SCF Done:  E(UB3LYP) =  -878.570940922     A.U. after   11 cycles
 SCF Done:  E(UB3LYP) =  -878.570944192     A.U. after   10 cycles
 SCF Done:  E(UB3LYP) =  -878.570945096     A.U. after   10 cycles
 SCF Done:  E(UB3LYP) =  -878.570945625     A.U. after    9 cycles
 SCF Done:  E(UB3LYP) =  -878.570945868     A.U. after    9 cycles
 SCF Done:  E(UB3LYP) =  -878.570945873     A.U. after    8 cycles
 Optimization completed.
    -- Stationary point found.
 Normal termination of Gaussian 16 at Sat Feb 10 19:50:54 2024.

 ----------------------------------------------------------------------
 #P Geom=AllCheck Guess=TCheck SCRF=Check GenChk UB3LYP/6-311++G(d,p) F
 req
 ----------------------------------------------------------------------

 Structure from the checkpoint file:  "172-an.chk"
 -------
 Reduced
 -------
 Charge = -2 Multiplicity = 1

                          Input orientation:
 ---------------------------------------------------------------------
 Center     Atomic      Atomic             Coordinates (Angstroms)
 Number     Number       Type             X           Y           Z
 ---------------------------------------------------------------------
      1          6           0       -1.382311    2.014947   -4.721804
      2          6           0       -1.426251    0.668292   -5.003036
      3          6           0       -1.329369   -0.275703   -3.943740
      4          6           0       -1.249134    2.508562   -3.391990
      5          6           0       -1.153025    1.552749   -2.319951
      6          6           0       -1.193850    0.167221   -2.647677
      7          6           0       -1.191532    3.922578   -3.151495
      8          6           0       -0.996764    1.961861   -0.953062
      9          6           0       -1.112706    4.348930   -1.779723
     10          6           0       -1.013311    3.375545   -0.688519
     11          6           0       -1.079192    5.771704   -1.449703
     12          6           0       -0.836719    6.169322   -0.150175
     13          6           0       -0.737228    5.225335    0.907721
     14          6           0       -0.881335    3.871288    0.679481
     15          8           0       -1.193689    4.752468   -4.175481
     16          8           0       -0.830883    1.045831   -0.020656
     17          1           0       -1.451517    2.744830   -5.519771
     18          1           0       -1.534712    0.325752   -6.027752
     19          1           0       -1.363362   -1.339427   -4.159271
     20          1           0       -1.116053   -0.539073   -1.829335
     21          1           0       -0.603250    5.593168    1.918231
     22          1           0       -0.775909    7.224142    0.090946
     23          7           0       -1.332176    6.707798   -2.458639
     24          7           0       -0.939798    2.959901    1.738710
     25          6           0       -0.902474    8.080920   -2.313754
     26          6           0       -0.413570    3.304108    3.040378
     27          1           0       -1.227002    6.262670   -3.378902
     28          1           0       -0.787784    2.005766    1.388335
     29          1           0        0.157935    8.177748   -2.022810
     30          1           0       -1.491702    8.617768   -1.560019
     31          1           0       -1.043563    8.596217   -3.266398
     32          1           0       -1.029629    4.058517    3.545457
     33          1           0        0.616094    3.700339    3.004281
     34          1           0       -0.413128    2.409705    3.667252
 ---------------------------------------------------------------------

 SCF Done:  E(UB3LYP) =  -878.570945873     A.U. after    2 cycles

 Alpha  occ. eigenvalues --  -19.02135 -19.02133 -14.27575 -14.27567 -10.17674
 Alpha  occ. eigenvalues --  -10.17660 -10.17558 -10.17555 -10.17314 -10.17286
 Alpha  occ. eigenvalues --  -10.14878 -10.14834 -10.14593 -10.14582 -10.14146
 Alpha  occ. eigenvalues --  -10.14112 -10.13629 -10.13586 -10.12818 -10.12773
 Alpha  occ. eigenvalues --   -0.93793  -0.93367  -0.89203  -0.88742  -0.82523
 Alpha  occ. eigenvalues --   -0.79567  -0.74873  -0.72254  -0.71284  -0.70569
 Alpha  occ. eigenvalues --   -0.66633  -0.64402  -0.63192  -0.59725  -0.58672
 Alpha  occ. eigenvalues --   -0.54659  -0.53235  -0.50439  -0.49219  -0.46888
 Alpha  occ. eigenvalues --   -0.46804  -0.44421  -0.43216  -0.43103  -0.42689
 Alpha  occ. eigenvalues --   -0.41884  -0.41325  -0.39836  -0.39807  -0.38025
 Alpha  occ. eigenvalues --   -0.37792  -0.37485  -0.37084  -0.35399  -0.35238
 Alpha  occ. eigenvalues --   -0.34277  -0.33949  -0.33125  -0.32612  -0.31493
 Alpha  occ. eigenvalues --   -0.30320  -0.29906  -0.28112  -0.22989  -0.22847
 Alpha  occ. eigenvalues --   -0.21900  -0.21162  -0.20154  -0.19737  -0.15701
 Alpha  occ. eigenvalues --   -0.10429
 Alpha virt. eigenvalues --   -0.01723  -0.00147   0.00441   0.00548   0.00744
 Alpha virt. eigenvalues --    0.02099   0.02173   0.03080   0.03173   0.03855
 Alpha virt. eigenvalues --    0.03965   0.04539   0.04890   0.05278   0.05615

  Beta  occ. eigenvalues --  -19.02135 -19.02133 -14.27575 -14.27567 -10.17674
  Beta  occ. eigenvalues --  -10.17660 -10.17558 -10.17555 -10.17314 -10.17286
  Beta  occ. eigenvalues --  -10.14878 -10.14834 -10.14593 -10.14582 -10.14146
  Beta  occ. eigenvalues --  -10.14112 -10.13629 -10.13586 -10.12818 -10.12773
  Beta  occ. eigenvalues --   -0.93793  -0.93367  -0.89203  -0.88742  -0.82523
  Beta  occ. eigenvalues --   -0.79567  -0.74873  -0.72254  -0.71284  -0.70569
  Beta  occ. eigenvalues --   -0.66633  -0.64402  -0.63192  -0.59725  -0.58672
  Beta  occ. eigenvalues --   -0.54659  -0.53235  -0.50439  -0.49219  -0.46888
  Beta  occ. eigenvalues --   -0.46804  -0.44421  -0.43216  -0.43103  -0.42689
  Beta  occ. eigenvalues --   -0.41884  -0.41325  -0.39836  -0.39807  -0.38025
  Beta  occ. eigenvalues --   -0.37792  -0.37485  -0.37084  -0.35399  -0.35238
  Beta  occ. eigenvalues --   -0.34277  -0.33949  -0.33125  -0.32612  -0.31493
  Beta  occ. eigenvalues --   -0.30320  -0.29906  -0.28112  -0.22989  -0.22847
  Beta  occ. eigenvalues --   -0.21900  -0.21162  -0.20154  -0.19737  -0.15701
  Beta  occ. eigenvalues --   -0.10429
  Beta virt. eigenvalues --   -0.01723  -0.00147   0.00441   0.00548   0.00744
  Beta virt. eigenvalues --    0.02099   0.02173   0.03080   0.03173   0.03855
  Beta virt. eigenvalues --    0.03965   0.04539   0.04890   0.05278   0.05615

 Mulliken charges and spin densities:
               1          2
     1  C   -0.066457   0.000000
     2  C   -0.541729  -0.000000
     3  C   -0.541344  -0.000000
     4  C    0.143587  -0.000000
     5  C    0.153048  -0.000000
     6  C   -0.069067   0.000000
     7  C   -0.338985   0.000000
     8  C   -0.324628   0.000000
     9  C    0.283648   0.000000
    10  C    0.273983   0.000000
    11  C   -0.109157  -0.000000
    12  C   -0.281758   0.000000
    13  C   -0.275852  -0.000000
    14  C   -0.106998  -0.000000
    15  O   -0.641830   0.000000
    16  O   -0.639432   0.000000
    17  H    0.146032  -0.000000
    18  H    0.156370   0.000000
    19  H    0.156546   0.000000
    20  H    0.146163  -0.000000
    21  H    0.147918  -0.000000
    22  H    0.148051   0.000000
    23  N   -0.271596  -0.000000
    24  N   -0.275564   0.000000
    25  C   -0.409136   0.000000
    26  C   -0.407821   0.000000
    27  H    0.359802   0.000000
    28  H    0.361596   0.000000
    29  H    0.129700   0.000000
    30  H    0.136606  -0.000000
    31  H    0.146087  -0.000000
    32  H    0.136047   0.000000
    33  H    0.130084   0.000000
    34  H    0.146083   0.000000
 Sum of Mulliken charges =  -2.00000  -0.00000

 Dipole moment (field-independent basis, Debye):
    X=             11.2327    Y=            -29.8270    Z=             18.3211  Tot=             36.7625
 Quadrupole moment (field-independent basis, Debye-Ang):
   XX=           -147.7421   YY=           -252.9889   ZZ=           -197.8723
   XY=             37.6066   XZ=            -22.2987   YZ=             67.6443

  Exact polarizability: 207.774  18.254 544.982  39.385  70.715 523.747
 Approx polarizability: 227.203  16.103 600.190  41.760  60.394 581.232

                      1                      2                      3
                      A                      A                      A
 Frequencies --     44.4343                47.5767                75.1897
 Red. masses --      5.1755                 5.1923                 3.8233
 Frc consts  --      0.0060                 0.0069                 0.0127
 IR Inten    --      0.1038                22.8289                 0.5341

                      4                      5                      6
                      A                      A                      A
 Frequencies --    112.5558               130.7817               138.4740
 Red. masses --      3.2523                 3.3259                 4.1753
 Frc consts  --      0.0243                 0.0335                 0.0472
 IR Inten    --     32.5928                 2.6681                 2.9100

                      7                      8                      9
                      A                      A                      A
 Frequencies --    173.3355               184.4678               196.0000
 Red. masses --      5.3518                 4.1253                 3.3651
 Frc consts  --      0.0947                 0.0827                 0.0762
 IR Inten    --      6.4766                22.7451                16.4033

                     10                     11                     12
                      A                      A                      A
 Frequencies --    219.4778               240.7866               281.0672
 Red. masses --      1.1168                 1.2213                 4.6031
 Frc consts  --      0.0317                 0.0417                 0.2142
 IR Inten    --      0.1894                 4.4656                 2.3949

                     13                     14                     15
                      A                      A                      A
 Frequencies --    293.6934               321.8299               333.5408
 Red. masses --      3.8525                 4.3454                 4.6989
 Frc consts  --      0.1958                 0.2652                 0.3080
 IR Inten    --      8.3654                12.5151                 6.3496

                     16                     17                     18
                      A                      A                      A
 Frequencies --    383.0937               386.1811               390.8647
 Red. masses --      5.2946                 7.4737                 6.5781
 Frc consts  --      0.4578                 0.6567                 0.5921
 IR Inten    --      1.1626                 5.3624                20.6466

                     19                     20                     21
                      A                      A                      A
 Frequencies --    405.7859               431.3429               445.7384
 Red. masses --      8.3268                11.6008                 3.2919
 Frc consts  --      0.8078                 1.2717                 0.3853
 IR Inten    --      0.0493                26.4245                 4.9781

                     22                     23                     24
                      A                      A                      A
 Frequencies --    495.5959               500.0161               513.4369
 Red. masses --     10.3958                 4.2602                 6.0867
 Frc consts  --      1.5044                 0.6275                 0.9454
 IR Inten    --      2.0353                 3.2068                24.0491

                     25                     26                     27
                      A                      A                      A
 Frequencies --    566.4935               614.1750               618.8177
 Red. masses --      4.3122                 3.2047                 5.0542
 Frc consts  --      0.8153                 0.7122                 1.1403
 IR Inten    --     32.5933                51.7444                43.0885

                     28                     29                     30
                      A                      A                      A
 Frequencies --    629.4510               659.3349               710.3025
 Red. masses --      4.2510                 5.6173                 3.0536
 Frc consts  --      0.9923                 1.4388                 0.9077
 IR Inten    --      6.6447                10.5218               238.1263

                     31                     32                     33
                      A                      A                      A
 Frequencies --    716.1018               723.4936               740.5720
 Red. masses --      2.0800                 5.6478                 5.0506
 Frc consts  --      0.6284                 1.7418                 1.6320
 IR Inten    --     23.8116                88.0162                18.9883

                     34                     35                     36
                      A                      A                      A
 Frequencies --    765.1174               780.7011               799.5410
 Red. masses --      1.6042                 2.3852                 4.1840
 Frc consts  --      0.5533                 0.8565                 1.5759
 IR Inten    --    236.0869                 3.8274                 1.8939

                     37                     38                     39
                      A                      A                      A
 Frequencies --    811.9276               825.1478               836.7253
 Red. masses --      1.6162                 1.5167                 2.0598
 Frc consts  --      0.6278                 0.6084                 0.8497
 IR Inten    --    145.5769                 0.3826               175.0676

                     40                     41                     42
                      A                      A                      A
 Frequencies --    853.5962               860.3190               882.2391
 Red. masses --      1.6556                 2.2621                 2.4990
 Frc consts  --      0.7107                 0.9865                 1.1460
 IR Inten    --      2.1472               212.4138                80.7754

                     43                     44                     45
                      A                      A                      A
 Frequencies --    938.8317               975.5008               983.5869
 Red. masses --      5.4523                 1.3402                 1.2555
 Frc consts  --      2.8314                 0.7514                 0.7156
 IR Inten    --     54.5139                 2.9228                 0.8876

                     46                     47                     48
                      A                      A                      A
 Frequencies --   1008.2689              1023.9871              1083.8961
 Red. masses --      3.6989                 2.0887                 2.1737
 Frc consts  --      2.2155                 1.2904                 1.5046
 IR Inten    --     87.2320                36.8068               194.3936

                     49                     50                     51
                      A                      A                      A
 Frequencies --   1090.6090              1102.8562              1127.8419
 Red. masses --      3.4207                 2.3768                 1.4928
 Frc consts  --      2.3972                 1.7033                 1.1188
 IR Inten    --    546.0147                 1.4364               314.3866

                     52                     53                     54
                      A                      A                      A
 Frequencies --   1139.0523              1139.4547              1149.5026
 Red. masses --      1.3913                 1.3329                 2.6121
 Frc consts  --      1.0635                 1.0196                 2.0336
 IR Inten    --    109.8760                 9.1785                33.3585

                     55                     56                     57
                      A                      A                      A
 Frequencies --   1164.4403              1172.9615              1186.3370
 Red. masses --      1.5458                 1.7266                 1.4201
 Frc consts  --      1.2349                 1.3996                 1.1776
 IR Inten    --    420.5196                 3.0843               144.1644

                     58                     59                     60
                      A                      A                      A
 Frequencies --   1216.5996              1240.8681              1262.6434
 Red. masses --      2.7671                 2.2823                 3.4553
 Frc consts  --      2.4131                 2.0705                 3.2457
 IR Inten    --    345.1350                23.8718                35.4718

                     61                     62                     63
                      A                      A                      A
 Frequencies --   1264.3306              1268.7304              1329.4991
 Red. masses --      3.6282                 7.9468                 2.1822
 Frc consts  --      3.4172                 7.5367                 2.2725
 IR Inten    --    272.7131                34.5352              1243.8078

                     64                     65                     66
                      A                      A                      A
 Frequencies --   1343.8927              1364.0409              1368.7635
 Red. masses --      7.6003                 2.8446                 2.8466
 Frc consts  --      8.0874                 3.1184                 3.1422
 IR Inten    --    356.2256                10.1068              1171.7809

                     67                     68                     69
                      A                      A                      A
 Frequencies --   1424.6233              1436.7831              1451.9821
 Red. masses --      8.2929                 2.6514                 1.2949
 Frc consts  --      9.9164                 3.2249                 1.6085
 IR Inten    --     44.9000               411.0582                18.6959

                     70                     71                     72
                      A                      A                      A
 Frequencies --   1453.1665              1470.0290              1470.1891
 Red. masses --      1.2218                 1.0485                 1.0509
 Frc consts  --      1.5202                 1.3350                 1.3383
 IR Inten    --     26.2284                 9.0471                 7.3717

                     73                     74                     75
                      A                      A                      A
 Frequencies --   1472.8496              1494.1012              1506.8591
 Red. masses --      2.4482                 4.8921                 1.0692
 Frc consts  --      3.1291                 6.4344                 1.4304
 IR Inten    --      6.1994                31.8167                24.9661

                     76                     77                     78
                      A                      A                      A
 Frequencies --   1508.2185              1536.8491              1542.9298
 Red. masses --      1.0522                 1.6890                 4.0427
 Frc consts  --      1.4102                 2.3504                 5.6704
 IR Inten    --     15.3343               410.2365                36.1573

                     79                     80                     81
                      A                      A                      A
 Frequencies --   1568.4770              1605.7644              1606.8449
 Red. masses --      1.8008                 5.8604                 5.2917
 Frc consts  --      2.6102                 8.9030                 8.0499
 IR Inten    --    548.2646                 3.4558                10.2487

                     82                     83                     84
                      A                      A                      A
 Frequencies --   1621.3007              2916.9334              2919.5941
 Red. masses --      3.0960                 1.0613                 1.0616
 Frc consts  --      4.7949                 5.3203                 5.3315
 IR Inten    --    200.4556               190.3520               444.5303

                     85                     86                     87
                      A                      A                      A
 Frequencies --   2997.8998              2999.6935              3083.7226
 Red. masses --      1.0785                 1.0781                 1.0936
 Frc consts  --      5.7107                 5.7156                 6.1274
 IR Inten    --    138.8285               180.0761                99.7512

                     88                     89                     90
                      A                      A                      A
 Frequencies --   3083.8374              3138.7075              3154.8744
 Red. masses --      1.0935                 1.0849                 1.0902
 Frc consts  --      6.1271                 6.2973                 6.3930
 IR Inten    --     16.9704                28.3661                47.6290

                     91                     92                     93
                      A                      A                      A
 Frequencies --   3161.9486              3176.8370              3179.5121
 Red. masses --      1.0850                 1.0919                 1.0914
 Frc consts  --      6.3913                 6.4924                 6.5004
 IR Inten    --     70.3983                51.4366                65.6923

                     94                     95                     96
                      A                      A                      A
 Frequencies --   3183.7456              3238.1362              3245.7814
 Red. masses --      1.0918                 1.0827                 1.0824
 Frc consts  --      6.5204                 6.6888                 6.7186
 IR Inten    --     57.4094               187.8063              1084.7966

 - Thermochemistry -
 -------------------
 Temperature   298.150 Kelvin.  Pressure   1.00000 Atm.
 Atom     1 has atomic number  6 and mass  12.00000

 Molecular mass:   266.10553 amu.
 Principal axes and moments of inertia in atomic units:
                           1         2         3
     Eigenvalues --  3982.492025745.910739685.51048
           X            0.07685   0.06761   0.99475
           Y            0.74765  -0.66397  -0.01263
           Z            0.65963   0.74469  -0.10157
 This molecule is an asymmetric top.
 Rotational symmetry number  1.
 Warning -- assumption of classical behavior for rotation
           may cause significant error
 Rotational temperatures (Kelvin)      0.02175     0.01507     0.00894
 Rotational constants (GHZ):           0.45317     0.31409     0.18633
 Zero-point vibrational energy     692267.0 (Joules/Mol)
                                  165.45579 (Kcal/Mol)
 Warning -- explicit consideration of  27 degrees of freedom as
           vibrations may cause significant error
 Vibrational temperatures:     63.93    68.45   108.18   161.94   188.17
          (Kelvin)            199.23   249.39   265.41   282.00   315.78
                              346.44   404.39   422.56   463.04   479.89
                              551.19   555.63   562.37   583.84   620.61
                              641.32   713.05   719.41   738.72   815.06
                              883.66   890.34   905.64   948.64  1021.97
                             1030.31  1040.95  1065.52  1100.83  1123.25
                             1150.36  1168.18  1187.20  1203.86  1228.13
                             1237.81  1269.35  1350.77  1403.53  1415.16
                             1450.67  1473.29  1559.48  1569.14  1586.76
                             1622.71  1638.84  1639.42  1653.88  1675.37
                             1687.63  1706.87  1750.42  1785.33  1816.66
                             1819.09  1825.42  1912.85  1933.56  1962.55
                             1969.35  2049.72  2067.21  2089.08  2090.78
                             2115.04  2115.27  2119.10  2149.68  2168.03
                             2169.99  2211.18  2219.93  2256.69  2310.34
                             2311.89  2332.69  4196.82  4200.64  4313.31
                             4315.89  4436.79  4436.95  4515.90  4539.16
                             4549.34  4570.76  4574.61  4580.70  4658.96
                             4669.96

 Zero-point correction=                           0.263671 (Hartree/Particle)
 Thermal correction to Energy=                    0.280362
 Thermal correction to Enthalpy=                  0.281306
 Thermal correction to Gibbs Free Energy=         0.219763
 Sum of electronic and zero-point Energies=           -878.307275
 Sum of electronic and thermal Energies=              -878.290584
 Sum of electronic and thermal Enthalpies=            -878.289640
 Sum of electronic and thermal Free Energies=         -878.351182

                     E (Thermal)             CV                S
                      KCal/Mol        Cal/Mol-Kelvin    Cal/Mol-Kelvin
 Total                  175.930             66.613            129.527
 Electronic               0.000              0.000              0.000
 Translational            0.889              2.981             42.635
 Rotational               0.889              2.981             33.760
 Vibrational            174.152             60.652             53.132
 Vibration     1          0.595              1.980              5.051
 Vibration     2          0.595              1.978              4.916
 Vibration     3          0.599              1.966              4.013
 Vibration     4          0.607              1.939              3.224
 Vibration     5          0.612              1.923              2.935
 Vibration     6          0.614              1.915              2.825
 Vibration     7          0.627              1.875              2.399
 Vibration     8          0.631              1.861              2.283
 Vibration     9          0.636              1.845              2.170
 Vibration    10          0.647              1.811              1.963
 Vibration    11          0.658              1.778              1.797
 Vibration    12          0.681              1.709              1.527
 Vibration    13          0.688              1.685              1.453
 Vibration    14          0.707              1.632              1.301
 Vibration    15          0.715              1.609              1.243
 Vibration    16          0.752              1.506              1.027
 Vibration    17          0.755              1.500              1.015
 Vibration    18          0.759              1.490              0.997
 Vibration    19          0.771              1.458              0.942
 Vibration    20          0.792              1.402              0.854
 Vibration    21          0.805              1.370              0.809
 Vibration    22          0.851              1.260              0.669
 Vibration    23          0.855              1.250              0.658
 Vibration    24          0.869              1.220              0.625
 Vibration    25          0.922              1.104              0.511
 Vibration    26          0.974              1.002              0.426
 Vibration    27          0.979              0.992              0.418

                           ! Non-Optimized Parameters !
 Normal termination of Gaussian 16 at Sat Feb 10 21:43:38 2024.
