 Gaussian 16, Revision A.03,
 Gaussian 16:  ES64L-G16RevA.03 25-Dec-2016

 ----------------------------------------------------------------------
 #P UB3LYP/genecp nosym opt freq SCRF=(PCM,Solvent=n,n-DiMethylFormamid
 e)
 ----------------------------------------------------------------------

 -------
 Reduced
 -------
 Symbolic Z-matrix:
 Charge = -2 Multiplicity = 1

 SCF Done:  E(UB3LYP) =  -1570.63320251     A.U. after   16 cycles
 SCF Done:  E(UB3LYP) =  -1570.63400220     A.U. after   14 cycles
 SCF Done:  E(UB3LYP) =  -1570.63432464     A.U. after   14 cycles
 SCF Done:  E(UB3LYP) =  -1570.63434540     A.U. after   13 cycles
 SCF Done:  E(UB3LYP) =  -1570.63435778     A.U. after   12 cycles
 SCF Done:  E(UB3LYP) =  -1570.63435987     A.U. after   11 cycles
 SCF Done:  E(UB3LYP) =  -1570.63436019     A.U. after   10 cycles
 Optimization completed.
    -- Stationary point found.
 Normal termination of Gaussian 16 at Sat Feb 10 10:54:40 2024.

 ------------------------------------------------------------------
 #P Geom=AllCheck Guess=TCheck SCRF=Check GenChk UB3LYP/GenECP Freq
 ------------------------------------------------------------------

 Structure from the checkpoint file:  "031-an.chk"
 -------
 Reduced
 -------
 Charge = -2 Multiplicity = 1

                          Input orientation:
 ---------------------------------------------------------------------
 Center     Atomic      Atomic             Coordinates (Angstroms)
 Number     Number       Type             X           Y           Z
 ---------------------------------------------------------------------
      1         53           0       -3.343453   -1.060891   -0.098690
      2          6           0       -1.326607   -0.382032   -0.042575
      3          6           0       -0.980197    0.972666   -0.042097
      4         53           0       -2.424699    2.534971   -0.110906
      5          6           0        0.371814    1.453009    0.000842
      6          8           0        0.691044    2.697238    0.003320
      7          6           0        1.326619    0.382029    0.042524
      8          6           0        0.980211   -0.972670    0.042048
      9         53           0        2.424675   -2.534961    0.111980
     10          6           0       -0.371782   -1.453017   -0.001466
     11          8           0       -0.691059   -2.697236   -0.002738
     12         53           0        3.343430    1.060896    0.099758
 ---------------------------------------------------------------------

 SCF Done:  E(UB3LYP) =  -1570.63436019     A.U. after    1 cycles

 Alpha  occ. eigenvalues --  -19.03243 -19.03243 -10.20432 -10.20430 -10.19225
 Alpha  occ. eigenvalues --  -10.19223 -10.19173 -10.19172  -6.82538  -6.82538
 Alpha  occ. eigenvalues --   -6.82532  -6.82532  -4.84918  -4.84918  -4.84912
 Alpha  occ. eigenvalues --   -4.84912  -4.83884  -4.83884  -4.83879  -4.83879
 Alpha  occ. eigenvalues --   -4.83789  -4.83789  -4.83783  -4.83783  -1.89738
 Alpha  occ. eigenvalues --   -1.89738  -1.89732  -1.89732  -1.89407  -1.89407
 Alpha  occ. eigenvalues --   -1.89402  -1.89402  -1.89335  -1.89335  -1.89328
 Alpha  occ. eigenvalues --   -1.89328  -1.88441  -1.88441  -1.88440  -1.88439
 Alpha  occ. eigenvalues --   -1.88436  -1.88436  -1.88433  -1.88433  -0.95649
 Alpha  occ. eigenvalues --   -0.95241  -0.81948  -0.76100  -0.70634  -0.69549
 Alpha  occ. eigenvalues --   -0.68375  -0.64259  -0.63894  -0.54110  -0.53677
 Alpha  occ. eigenvalues --   -0.47249  -0.41733  -0.39368  -0.38323  -0.35747
 Alpha  occ. eigenvalues --   -0.35200  -0.34708  -0.34101  -0.31145  -0.30689
 Alpha  occ. eigenvalues --   -0.27037  -0.26968  -0.26442  -0.25995  -0.25168
 Alpha  occ. eigenvalues --   -0.24456  -0.23431  -0.23132  -0.21335  -0.21096
 Alpha  occ. eigenvalues --   -0.19803  -0.14016
 Alpha virt. eigenvalues --   -0.05117  -0.02341  -0.00802  -0.00596   0.01601
 Alpha virt. eigenvalues --    0.03087   0.04071   0.04204   0.05244   0.06365
 Alpha virt. eigenvalues --    0.07053   0.07678   0.08681   0.09333   0.09700

  Beta  occ. eigenvalues --  -19.03243 -19.03243 -10.20432 -10.20430 -10.19225
  Beta  occ. eigenvalues --  -10.19223 -10.19173 -10.19172  -6.82538  -6.82538
  Beta  occ. eigenvalues --   -6.82532  -6.82532  -4.84918  -4.84918  -4.84912
  Beta  occ. eigenvalues --   -4.84912  -4.83884  -4.83884  -4.83879  -4.83879
  Beta  occ. eigenvalues --   -4.83789  -4.83789  -4.83783  -4.83783  -1.89738
  Beta  occ. eigenvalues --   -1.89738  -1.89732  -1.89732  -1.89407  -1.89407
  Beta  occ. eigenvalues --   -1.89402  -1.89402  -1.89335  -1.89335  -1.89328
  Beta  occ. eigenvalues --   -1.89328  -1.88441  -1.88441  -1.88440  -1.88439
  Beta  occ. eigenvalues --   -1.88436  -1.88436  -1.88433  -1.88433  -0.95649
  Beta  occ. eigenvalues --   -0.95241  -0.81948  -0.76100  -0.70634  -0.69549
  Beta  occ. eigenvalues --   -0.68375  -0.64259  -0.63894  -0.54110  -0.53677
  Beta  occ. eigenvalues --   -0.47249  -0.41733  -0.39368  -0.38323  -0.35747
  Beta  occ. eigenvalues --   -0.35200  -0.34708  -0.34101  -0.31145  -0.30689
  Beta  occ. eigenvalues --   -0.27037  -0.26968  -0.26442  -0.25995  -0.25168
  Beta  occ. eigenvalues --   -0.24456  -0.23431  -0.23132  -0.21335  -0.21096
  Beta  occ. eigenvalues --   -0.19803  -0.14016
  Beta virt. eigenvalues --   -0.05117  -0.02341  -0.00802  -0.00596   0.01601
  Beta virt. eigenvalues --    0.03087   0.04071   0.04204   0.05244   0.06365
  Beta virt. eigenvalues --    0.07053   0.07678   0.08681   0.09333   0.09700

 Mulliken charges and spin densities:
               1          2
     1  I   -0.167888   0.000000
     2  C    0.948906  -0.000000
     3  C    0.949010  -0.000000
     4  I   -0.167889   0.000000
     5  C   -2.057075   0.000000
     6  O   -0.505063  -0.000000
     7  C    0.948890  -0.000000
     8  C    0.948997  -0.000000
     9  I   -0.167889   0.000000
    10  C   -2.057048   0.000000
    11  O   -0.505065  -0.000000
    12  I   -0.167886   0.000000
 Sum of Mulliken charges =  -2.00000   0.00000

 Dipole moment (field-independent basis, Debye):
    X=              0.0000    Y=             -0.0000    Z=             -0.0028  Tot=              0.0028
 Quadrupole moment (field-independent basis, Debye-Ang):
   XX=           -190.6724   YY=           -220.6316   ZZ=           -162.5586
   XY=             -8.2239   XZ=             -0.9133   YZ=              0.1908

  Exact polarizability: 485.595 -18.987 415.922   9.139  -2.598 222.748
 Approx polarizability: 503.084  -8.569 471.412   8.525  -2.380 255.532

                      1                      2                      3
                      A                      A                      A
 Frequencies --     26.9307                50.0255                61.7698
 Red. masses --    125.4211                16.4415                17.2774
 Frc consts  --      0.0536                 0.0242                 0.0388
 IR Inten    --      0.0045                24.1716                 0.0002

                      4                      5                      6
                      A                      A                      A
 Frequencies --     91.5386                98.2744               100.4941
 Red. masses --    125.7878                54.5809                98.6929
 Frc consts  --      0.6210                 0.3106                 0.5872
 IR Inten    --      0.0000                 7.8713                 5.5988

                      7                      8                      9
                      A                      A                      A
 Frequencies --    143.3741               156.1257               160.3409
 Red. masses --    109.3745               117.7058                13.3533
 Frc consts  --      1.3247                 1.6904                 0.2023
 IR Inten    --      0.0000                 0.0002                 2.1309

                     10                     11                     12
                      A                      A                      A
 Frequencies --    248.9194               262.8717               279.7635
 Red. masses --     15.8157                18.7808                12.1651
 Frc consts  --      0.5774                 0.7646                 0.5610
 IR Inten    --      0.0000                14.9542                 0.0003

                     13                     14                     15
                      A                      A                      A
 Frequencies --    292.1085               292.7139               482.6955
 Red. masses --     17.2815                12.5951                13.9108
 Frc consts  --      0.8688                 0.6358                 1.9096
 IR Inten    --     18.1144                 0.0002                 0.0000

                     16                     17                     18
                      A                      A                      A
 Frequencies --    505.1452               527.7575               668.3453
 Red. masses --     12.0129                13.3554                12.6138
 Frc consts  --      1.8060                 2.1917                 3.3197
 IR Inten    --      0.0206                42.4326                 0.0000

                     19                     20                     21
                      A                      A                      A
 Frequencies --    688.9425               723.6275               728.3049
 Red. masses --     12.2393                12.2121                12.1268
 Frc consts  --      3.4227                 3.7676                 3.7899
 IR Inten    --     18.0596                 0.0000                 0.0003

                     22                     23                     24
                      A                      A                      A
 Frequencies --    815.6964               907.0746              1077.6915
 Red. masses --     12.9156                12.4469                12.0044
 Frc consts  --      5.0632                 6.0339                 8.2144
 IR Inten    --    633.7907                 0.0000               712.9231

                     25                     26                     27
                      A                      A                      A
 Frequencies --   1086.4643              1309.6541              1338.2324
 Red. masses --     12.4324                12.0395                12.0107
 Frc consts  --      8.6464                12.1666                12.6731
 IR Inten    --    123.8268               122.2892                 0.0000

                     28                     29                     30
                      A                      A                      A
 Frequencies --   1373.7721              1403.4312              1534.7758
 Red. masses --     12.9281                12.7101                12.1542
 Frc consts  --     14.3752                14.7497                16.8682
 IR Inten    --      0.0000              1806.5485                 0.0000

 - Thermochemistry -
 -------------------
 Temperature   298.150 Kelvin.  Pressure   1.00000 Atm.
 Atom     1 has atomic number 53 and mass 126.90040

 Molecular mass:   611.59143 amu.
 Principal axes and moments of inertia in atomic units:
                           1         2         3
     Eigenvalues --  7404.39229********************
           X            0.96824   0.24774  -0.03362
           Y           -0.24750   0.96882   0.01130
           Z            0.03537  -0.00262   0.99937
 This molecule is an asymmetric top.
 Rotational symmetry number  1.
 Warning -- assumption of classical behavior for rotation
           may cause significant error
 Rotational temperatures (Kelvin)      0.01170     0.00531     0.00365
 Rotational constants (GHZ):           0.24374     0.11055     0.07605
 Zero-point vibrational energy     104295.6 (Joules/Mol)
                                   24.92724 (Kcal/Mol)
 Warning -- explicit consideration of  17 degrees of freedom as
           vibrations may cause significant error
 Vibrational temperatures:     38.75    71.98    88.87   131.70   141.39
          (Kelvin)            144.59   206.28   224.63   230.69   358.14
                              378.21   402.52   420.28   421.15   694.49
                              726.79   759.33   961.60   991.23  1041.14
                             1047.87  1173.61  1305.08  1550.56  1563.18
                             1884.30  1925.42  1976.55  2019.22  2208.20

 Zero-point correction=                           0.039724 (Hartree/Particle)
 Thermal correction to Energy=                    0.052815
 Thermal correction to Enthalpy=                  0.053759
 Thermal correction to Gibbs Free Energy=        -0.006439
 Sum of electronic and zero-point Energies=          -1570.594636
 Sum of electronic and thermal Energies=             -1570.581545
 Sum of electronic and thermal Enthalpies=           -1570.580601
 Sum of electronic and thermal Free Energies=        -1570.640799

                     E (Thermal)             CV                S
                      KCal/Mol        Cal/Mol-Kelvin    Cal/Mol-Kelvin
 Total                   33.142             41.324            126.698
 Electronic               0.000              0.000              0.000
 Translational            0.889              2.981             45.116
 Rotational               0.889              2.981             36.304
 Vibrational             31.364             35.363             45.277
 Vibration     1          0.593              1.984              6.044
 Vibration     2          0.595              1.978              4.816
 Vibration     3          0.597              1.973              4.400
 Vibration     4          0.602              1.955              3.627
 Vibration     5          0.604              1.950              3.488
 Vibration     6          0.604              1.949              3.445
 Vibration     7          0.616              1.910              2.758
 Vibration     8          0.620              1.896              2.596
 Vibration     9          0.622              1.891              2.546
 Vibration    10          0.662              1.765              1.738
 Vibration    11          0.670              1.741              1.643
 Vibration    12          0.680              1.711              1.535
 Vibration    13          0.687              1.688              1.462
 Vibration    14          0.688              1.687              1.458
 Vibration    15          0.839              1.288              0.703
 Vibration    16          0.860              1.239              0.645
 Vibration    17          0.883              1.189              0.592

 Optimization completed.
    -- Stationary point found.
 Normal termination of Gaussian 16 at Sat Feb 10 11:27:15 2024.
