 Q-Chem 5.4, Q-Chem, Inc., Pleasanton, CA (2021)
 Q-Chem 5.4.0 for Intel X86 EM64T Linux

User input:
--------------------------------------------------------------
$molecule
-2 1
C                 -0.4412940000      1.2175310000     -0.3005020000
C                 -1.4731920000      0.2174360000     -0.5051700000
C                 -1.2579930000     -1.1363020000     -0.4403330000
C                  0.0231750000     -1.7602380000     -0.1681080000
C                  1.0091170000     -0.7833420000      0.0977040000
C                  0.8531910000      0.6459070000      0.0725290000
O                 -0.7229090000      2.4570370000     -0.3723870000
O                  0.1757140000     -3.0385570000     -0.2197220000
C                  1.8798460000      1.5480170000      0.5927270000
C                  2.5948660000      1.1633910000      1.9069220000
O                  2.1594100000      2.6620300000      0.1344750000
H                  2.2439810000      0.2272130000      2.3400160000
H                  2.4079540000      1.9889890000      2.6050090000
H                  3.6770210000      1.0984830000      1.7472390000
H                 -2.0727020000     -1.8315650000     -0.6469640000
Cl                 2.7019980000     -1.4585490000      0.2034910000
H                 -2.4617520000      0.6091360000     -0.7445240000
$end

$rem
BASIS  =  6-311++G(d,p)
GUI  =  2
JOB_TYPE  =  SP
METHOD  =  B3LYP
SCF_CONVERGENCE  = 8
SOLVENT_METHOD = sm12
$end

$smx
solvent dimethylformamide
charges CM5
$end

--------------------------------------------------------------

             Standard Nuclear Orientation (Angstroms)
    I     Atom           X                Y                Z
 ----------------------------------------------------------------
    1      C      -0.4412940000     1.2175310000    -0.3005020000
    2      C      -1.4731920000     0.2174360000    -0.5051700000
    3      C      -1.2579930000    -1.1363020000    -0.4403330000
    4      C       0.0231750000    -1.7602380000    -0.1681080000
    5      C       1.0091170000    -0.7833420000     0.0977040000
    6      C       0.8531910000     0.6459070000     0.0725290000
    7      O      -0.7229090000     2.4570370000    -0.3723870000
    8      O       0.1757140000    -3.0385570000    -0.2197220000
    9      C       1.8798460000     1.5480170000     0.5927270000
   10      C       2.5948660000     1.1633910000     1.9069220000
   11      O       2.1594100000     2.6620300000     0.1344750000
   12      H       2.2439810000     0.2272130000     2.3400160000
   13      H       2.4079540000     1.9889890000     2.6050090000
   14      H       3.6770210000     1.0984830000     1.7472390000
   15      H      -2.0727020000    -1.8315650000    -0.6469640000
   16      Cl      2.7019980000    -1.4585490000     0.2034910000
   17      H      -2.4617520000     0.6091360000    -0.7445240000
 ----------------------------------------------------------------

   18    -993.8681580298      3.71e-09  Convergence criterion met
 Total energy in the final basis set =     -994.1465808261

                    Orbital Energies (a.u.)
 --------------------------------------------------------------

 Alpha MOs
 -- Occupied --
******** -19.0841 -19.0330 -19.0225 -10.2386 -10.2024 -10.1913 -10.1908
-10.1666 -10.1597 -10.1537 -10.1526  -9.4376  -7.2015  -7.1931  -7.1924
 -1.0099  -0.9529  -0.9393  -0.8344  -0.7885  -0.7422  -0.7063  -0.6654
 -0.6053  -0.5505  -0.5091  -0.4641  -0.4524  -0.4415  -0.4291  -0.4128
 -0.4028  -0.3879  -0.3734  -0.3680  -0.3552  -0.3471  -0.3333  -0.3274
 -0.3024  -0.2846  -0.2428  -0.2389  -0.2260  -0.2019  -0.1984  -0.1344

          Ground-State Mulliken Net Atomic Charges

     Atom                 Charge (a.u.)
  ----------------------------------------
      1 C                    -2.132898
      2 C                    -0.086266
      3 C                    -0.407786
      4 C                    -0.996058
      5 C                     1.388732
      6 C                    -1.243036
      7 O                    -0.351258
      8 O                    -0.389315
      9 C                     0.814699
     10 C                     0.091107
     11 O                    -0.228838
     12 H                     0.125285
     13 H                     0.199513
     14 H                     0.212542
     15 H                     0.110752
     16 Cl                    0.778953
     17 H                     0.113871
  ----------------------------------------
  Sum of atomic charges =    -2.000000

                    Cartesian Multipole Moments
 -----------------------------------------------------------------
    Charge (ESU x 10^10)
                -9.6064
    Dipole Moment (Debye)
         X      -4.1580      Y      -0.3029      Z       1.8878
       Tot       4.5765
    Quadrupole Moments (Debye-Ang)
        XX    -107.1543     XY       0.1448     YY    -153.5223
        XZ      -2.5252     YZ       1.1842     ZZ     -86.8848

 Total job time:  210.41s(wall), 1523.71s(cpu)
        *  Thank you very much for using Q-Chem.  Have a nice day.  *
