 Gaussian 16, Revision A.03,
 Gaussian 16:  ES64L-G16RevA.03 25-Dec-2016

 ----------------------------------------------------------------
 #P UB3LYP/6-311++G(d,p) SCRF=(PCM,Solvent=n,n-DiMethylFormamide)
 ----------------------------------------------------------------

 ------------------
 Quinone PCM in DMF
 ------------------
 Symbolic Z-matrix:
 Charge =  0 Multiplicity = 1

                         Standard orientation:
 ---------------------------------------------------------------------
 Center     Atomic      Atomic             Coordinates (Angstroms)
 Number     Number       Type             X           Y           Z
 ---------------------------------------------------------------------
      1          6           0       -0.180192    1.542074   -0.000057
      2          6           0        1.274226    1.359249   -0.000064
      3          6           0        1.875735    0.154127   -0.000058
      4          6           0        0.981013   -1.079116   -0.000098
      5          6           0       -0.459553   -0.910533   -0.000126
      6          6           0       -1.064133    0.313197   -0.000118
      7          8           0       -0.686277    2.655475   -0.000015
      8          8           0        1.473208   -2.206021   -0.000096
      9          7           0       -2.376601    0.625405   -0.000260
     10          6           0       -3.567345   -0.249760    0.000021
     11          6           0       -4.780728    0.693727    0.000102
     12          6           0       -3.601681   -1.119532    1.271450
     13          6           0       -3.601918   -1.119809   -1.271195
     14          6           0        3.396193   -0.015538    0.000052
     15          6           0        4.118827    1.344924   -0.000209
     16          6           0        3.834818   -0.790490    1.268996
     17          6           0        3.835109   -0.790974   -1.268494
     18          1           0        1.828447    2.288632   -0.000128
     19          1           0       -1.014437   -1.837186   -0.000168
     20          1           0       -2.537453    1.626677   -0.000468
     21          1           0       -4.780683    1.332279   -0.888002
     22          1           0       -4.780610    1.332308    0.888186
     23          1           0       -5.706895    0.115928    0.000132
     24          1           0       -3.598187   -0.489683    2.164342
     25          1           0       -2.749026   -1.796458    1.332609
     26          1           0       -4.511304   -1.725599    1.281814
     27          1           0       -3.600467   -0.490133   -2.164212
     28          1           0       -4.510554   -1.727373   -1.280400
     29          1           0       -2.748173   -1.795292   -1.333162
     30          1           0        3.879747    1.937675   -0.887612
     31          1           0        5.198356    1.175364    0.000002
     32          1           0        3.879512    1.938258    0.886745
     33          1           0        3.532436   -0.256223    2.174792
     34          1           0        4.925490   -0.876225    1.280377
     35          1           0        3.406659   -1.790746    1.292520
     36          1           0        3.532868   -0.257050   -2.174544
     37          1           0        3.407025   -1.791256   -1.291715
     38          1           0        4.925791   -0.876632   -1.279605
 ---------------------------------------------------------------------

 SCF Done:  E(UB3LYP) =  -751.553948712     A.U. after   16 cycles

 The electronic state is 1-A.
 Alpha  occ. eigenvalues --  -19.14429 -19.11524 -14.35208 -10.28885 -10.26894
 Alpha  occ. eigenvalues --  -10.24758 -10.23552 -10.21667 -10.20210 -10.19617
 Alpha  occ. eigenvalues --  -10.17476 -10.16833 -10.16538 -10.16537 -10.16158
 Alpha  occ. eigenvalues --  -10.15894 -10.15893  -1.07785  -1.04829  -0.96366
 Alpha  occ. eigenvalues --   -0.86064  -0.82866  -0.80161  -0.75669  -0.70223
 Alpha  occ. eigenvalues --   -0.69883  -0.69694  -0.68919  -0.68877  -0.64266
 Alpha  occ. eigenvalues --   -0.60957  -0.58191  -0.55677  -0.53548  -0.51236
 Alpha  occ. eigenvalues --   -0.48784  -0.48419  -0.46556  -0.46517  -0.45149
 Alpha  occ. eigenvalues --   -0.44864  -0.44211  -0.44088  -0.43764  -0.43188
 Alpha  occ. eigenvalues --   -0.41839  -0.40700  -0.40287  -0.39368  -0.38511
 Alpha  occ. eigenvalues --   -0.38294  -0.37659  -0.37470  -0.36865  -0.36365
 Alpha  occ. eigenvalues --   -0.35650  -0.34491  -0.34239  -0.33703  -0.33251
 Alpha  occ. eigenvalues --   -0.29385  -0.29140  -0.26366  -0.23169
 Alpha virt. eigenvalues --   -0.12156  -0.01021  -0.00979  -0.00209   0.00583
 Alpha virt. eigenvalues --    0.00917   0.01638   0.01644   0.02036   0.02494
 Alpha virt. eigenvalues --    0.03129   0.03321   0.03523   0.03654   0.04570

  Beta  occ. eigenvalues --  -19.14429 -19.11524 -14.35208 -10.28885 -10.26894
  Beta  occ. eigenvalues --  -10.24758 -10.23552 -10.21667 -10.20210 -10.19617
  Beta  occ. eigenvalues --  -10.17476 -10.16833 -10.16538 -10.16537 -10.16158
  Beta  occ. eigenvalues --  -10.15894 -10.15893  -1.07785  -1.04829  -0.96366
  Beta  occ. eigenvalues --   -0.86064  -0.82866  -0.80161  -0.75669  -0.70223
  Beta  occ. eigenvalues --   -0.69883  -0.69694  -0.68919  -0.68877  -0.64266
  Beta  occ. eigenvalues --   -0.60957  -0.58191  -0.55677  -0.53548  -0.51236
  Beta  occ. eigenvalues --   -0.48784  -0.48419  -0.46556  -0.46517  -0.45149
  Beta  occ. eigenvalues --   -0.44864  -0.44211  -0.44088  -0.43764  -0.43188
  Beta  occ. eigenvalues --   -0.41839  -0.40700  -0.40287  -0.39368  -0.38511
  Beta  occ. eigenvalues --   -0.38294  -0.37659  -0.37470  -0.36865  -0.36365
  Beta  occ. eigenvalues --   -0.35650  -0.34491  -0.34239  -0.33703  -0.33251
  Beta  occ. eigenvalues --   -0.29385  -0.29140  -0.26366  -0.23169
  Beta virt. eigenvalues --   -0.12156  -0.01021  -0.00979  -0.00209   0.00583
  Beta virt. eigenvalues --    0.00917   0.01638   0.01644   0.02036   0.02494
  Beta virt. eigenvalues --    0.03129   0.03321   0.03523   0.03654   0.04570

 Mulliken charges and spin densities:
               1          2
     1  C   -0.877065  -0.000000
     2  C   -0.455452   0.000000
     3  C    1.269803   0.000000
     4  C   -0.486499   0.000000
     5  C   -0.274915   0.000000
     6  C    0.406512  -0.000000
     7  O   -0.274254  -0.000000
     8  O   -0.303202  -0.000000
     9  N    0.017534   0.000000
    10  C   -0.119499  -0.000000
    11  C   -0.507631  -0.000000
    12  C   -0.426458   0.000000
    13  C   -0.426449   0.000000
    14  C    0.591858  -0.000000
    15  C   -0.489243   0.000000
    16  C   -0.681800  -0.000000
    17  C   -0.681676   0.000000
    18  H    0.238557  -0.000000
    19  H    0.229129   0.000000
    20  H    0.373359  -0.000000
    21  H    0.161671   0.000000
    22  H    0.161712  -0.000000
    23  H    0.166159   0.000000
    24  H    0.166537   0.000000
    25  H    0.130678  -0.000000
    26  H    0.172753  -0.000000
    27  H    0.166518   0.000000
    28  H    0.172708  -0.000000
    29  H    0.130620  -0.000000
    30  H    0.140777  -0.000000
    31  H    0.184251   0.000000
    32  H    0.140756  -0.000000
    33  H    0.148859  -0.000000
    34  H    0.164209   0.000000
    35  H    0.178064   0.000000
    36  H    0.148853  -0.000000
    37  H    0.178058   0.000000
    38  H    0.164206   0.000000
 Sum of Mulliken charges =  -0.00000   0.00000

 Dipole moment (field-independent basis, Debye):
    X=             -3.2257    Y=              1.3061    Z=              0.0002  Tot=              3.4801
 Quadrupole moment (field-independent basis, Debye-Ang):
   XX=            -82.7977   YY=           -121.5785   ZZ=           -105.6492
   XY=              9.4292   XZ=              0.0004   YZ=             -0.0017

 Normal termination of Gaussian 16 at Wed Jan 24 22:53:28 2024.
