 Gaussian 16, Revision A.03,
 Gaussian 16:  ES64L-G16RevA.03 25-Dec-2016

 ----------------------------------------------------------------------
 #P UB3LYP/6-311++G(d,p) nosym opt freq SCRF=(PCM,Solvent=n,n-DiMethylF
 ormamide)
 ----------------------------------------------------------------------

 --------
 Oxidized
 --------
 Symbolic Z-matrix:
 Charge =  0 Multiplicity = 1

 SCF Done:  E(UB3LYP) =  -610.681037618     A.U. after   14 cycles
 SCF Done:  E(UB3LYP) =  -610.681010847     A.U. after   12 cycles
 SCF Done:  E(UB3LYP) =  -610.681244368     A.U. after   13 cycles
 SCF Done:  E(UB3LYP) =  -610.681324791     A.U. after   12 cycles
 SCF Done:  E(UB3LYP) =  -610.681339325     A.U. after   11 cycles
 SCF Done:  E(UB3LYP) =  -610.681352367     A.U. after   10 cycles
 SCF Done:  E(UB3LYP) =  -610.681353854     A.U. after   10 cycles
 SCF Done:  E(UB3LYP) =  -610.681354278     A.U. after   10 cycles
 SCF Done:  E(UB3LYP) =  -610.681354487     A.U. after    9 cycles
 SCF Done:  E(UB3LYP) =  -610.681354736     A.U. after    9 cycles
 SCF Done:  E(UB3LYP) =  -610.681354838     A.U. after   10 cycles
 Optimization completed.
    -- Stationary point found.
 Normal termination of Gaussian 16 at Sat Feb 10 10:39:45 2024.

 ----------------------------------------------------------------------
 #P Geom=AllCheck Guess=TCheck SCRF=Check GenChk UB3LYP/6-311++G(d,p) F
 req
 ----------------------------------------------------------------------

 Structure from the checkpoint file:  "086.chk"
 --------
 Oxidized
 --------
 Charge =  0 Multiplicity = 1

                          Input orientation:
 ---------------------------------------------------------------------
 Center     Atomic      Atomic             Coordinates (Angstroms)
 Number     Number       Type             X           Y           Z
 ---------------------------------------------------------------------
      1          6           0        2.571907    1.562074   -0.230869
      2          8           0        2.472646    0.192049    0.234211
      3          6           0        1.306472   -0.472480    0.178753
      4          6           0        1.300958   -1.800523   -0.051003
      5          6           0        0.051226   -2.571550   -0.071693
      6          8           0        0.066817   -3.785600   -0.282276
      7          6           0       -1.219968   -1.860708    0.112587
      8          6           0       -1.258790   -0.533290    0.344656
      9          8           0       -2.438355    0.074366    0.551123
     10          6           0       -2.657504    1.445121    0.131756
     11          6           0        0.025417    0.226673    0.551473
     12          8           0        0.032773    1.327036    1.068882
     13          1           0        3.624191    1.700526   -0.469911
     14          1           0        1.970469    1.706439   -1.129538
     15          1           0        2.263361    2.255844    0.547235
     16          1           0        2.223327   -2.335883   -0.239916
     17          1           0       -2.132632   -2.439727    0.043143
     18          1           0       -2.159919    1.640516   -0.818996
     19          1           0       -3.734719    1.529625    0.004547
     20          1           0       -2.307676    2.139491    0.891738
 ---------------------------------------------------------------------

 SCF Done:  E(UB3LYP) =  -610.681354838     A.U. after    1 cycles

 Alpha  occ. eigenvalues --  -19.17905 -19.17857 -19.15882 -19.13226 -10.30600
 Alpha  occ. eigenvalues --  -10.28354 -10.27619 -10.27591 -10.23022 -10.23003
 Alpha  occ. eigenvalues --  -10.20003 -10.19976  -1.10937  -1.09258  -1.07465
 Alpha  occ. eigenvalues --   -1.05951  -0.86302  -0.80052  -0.73786  -0.71123
 Alpha  occ. eigenvalues --   -0.70517  -0.63104  -0.60687  -0.55244  -0.54164
 Alpha  occ. eigenvalues --   -0.52057  -0.51261  -0.49624  -0.48228  -0.47397
 Alpha  occ. eigenvalues --   -0.45881  -0.44428  -0.44053  -0.42628  -0.42497
 Alpha  occ. eigenvalues --   -0.42116  -0.38432  -0.38154  -0.35847  -0.34796
 Alpha  occ. eigenvalues --   -0.29162  -0.28502  -0.28456  -0.25925
 Alpha virt. eigenvalues --   -0.13615  -0.02191  -0.00982  -0.00596   0.00835
 Alpha virt. eigenvalues --    0.00846   0.02572   0.02783   0.02884   0.03149
 Alpha virt. eigenvalues --    0.04470   0.05155   0.05449   0.05968   0.06069

  Beta  occ. eigenvalues --  -19.17905 -19.17857 -19.15882 -19.13226 -10.30600
  Beta  occ. eigenvalues --  -10.28354 -10.27619 -10.27591 -10.23022 -10.23003
  Beta  occ. eigenvalues --  -10.20003 -10.19976  -1.10937  -1.09258  -1.07465
  Beta  occ. eigenvalues --   -1.05951  -0.86302  -0.80052  -0.73786  -0.71123
  Beta  occ. eigenvalues --   -0.70517  -0.63104  -0.60687  -0.55244  -0.54164
  Beta  occ. eigenvalues --   -0.52057  -0.51261  -0.49624  -0.48228  -0.47397
  Beta  occ. eigenvalues --   -0.45881  -0.44428  -0.44053  -0.42628  -0.42497
  Beta  occ. eigenvalues --   -0.42116  -0.38432  -0.38154  -0.35847  -0.34796
  Beta  occ. eigenvalues --   -0.29162  -0.28502  -0.28456  -0.25925
  Beta virt. eigenvalues --   -0.13615  -0.02191  -0.00982  -0.00596   0.00835
  Beta virt. eigenvalues --    0.00846   0.02572   0.02783   0.02884   0.03149
  Beta virt. eigenvalues --    0.04470   0.05155   0.05449   0.05968   0.06069

 Mulliken charges and spin densities:
               1          2
     1  C   -0.330986  -0.000000
     2  O   -0.175835   0.000000
     3  C   -0.111281  -0.000000
     4  C    0.282801   0.000000
     5  C   -0.415999  -0.000000
     6  O   -0.338683   0.000000
     7  C    0.265450   0.000000
     8  C   -0.111330  -0.000000
     9  O   -0.174688  -0.000000
    10  C   -0.329719  -0.000000
    11  C    0.096792   0.000000
    12  O   -0.240840  -0.000000
    13  H    0.168511  -0.000000
    14  H    0.176136  -0.000000
    15  H    0.189530   0.000000
    16  H    0.257400   0.000000
    17  H    0.256868  -0.000000
    18  H    0.177129  -0.000000
    19  H    0.168647   0.000000
    20  H    0.190097   0.000000
 Sum of Mulliken charges =   0.00000  -0.00000

 Dipole moment (field-independent basis, Debye):
    X=             -0.2726    Y=              5.9323    Z=             -1.8901  Tot=              6.2321
 Quadrupole moment (field-independent basis, Debye-Ang):
   XX=            -62.9181   YY=            -86.8558   ZZ=            -71.2896
   XY=              0.1544   XZ=             -0.5302   YZ=             -5.0871

  Exact polarizability: 141.084  -0.751 231.889  -3.970  24.642  90.684
 Approx polarizability: 145.982  -1.383 305.720  -3.568  41.994 107.709

                      1                      2                      3
                      A                      A                      A
 Frequencies --     50.5820                62.2354                67.6606
 Red. masses --      2.0635                 6.2575                 2.4937
 Frc consts  --      0.0031                 0.0143                 0.0067
 IR Inten    --      3.3794                 6.7722                19.4432

                      4                      5                      6
                      A                      A                      A
 Frequencies --    118.4932               130.5647               172.2330
 Red. masses --      1.7507                 1.4209                 2.4232
 Frc consts  --      0.0145                 0.0143                 0.0424
 IR Inten    --      1.4240                 0.7322                29.8182

                      7                      8                      9
                      A                      A                      A
 Frequencies --    189.6628               207.9152               267.3404
 Red. masses --      3.3988                 4.4731                 3.8861
 Frc consts  --      0.0720                 0.1139                 0.1636
 IR Inten    --      0.2442                 7.7514                 6.1312

                     10                     11                     12
                      A                      A                      A
 Frequencies --    327.1919               343.1987               378.1164
 Red. masses --      5.5846                 6.2517                10.4774
 Frc consts  --      0.3522                 0.4339                 0.8826
 IR Inten    --      5.2353                 4.2616                 9.3746

                     13                     14                     15
                      A                      A                      A
 Frequencies --    421.0738               445.3864               448.6510
 Red. masses --      4.9589                 8.2607                 6.5558
 Frc consts  --      0.5180                 0.9655                 0.7775
 IR Inten    --      0.6833                 2.8507                58.6895

                     16                     17                     18
                      A                      A                      A
 Frequencies --    543.3513               552.3747               683.1670
 Red. masses --      4.3903                 8.2438                 4.4755
 Frc consts  --      0.7637                 1.4820                 1.2307
 IR Inten    --      0.0518                 3.3809                 3.2726

                     19                     20                     21
                      A                      A                      A
 Frequencies --    710.0611               790.0040               821.6945
 Red. masses --      4.3783                 7.7030                 7.0874
 Frc consts  --      1.3006                 2.8325                 2.8194
 IR Inten    --      2.3546                20.7123                35.8094

                     22                     23                     24
                      A                      A                      A
 Frequencies --    864.1469               892.4058               898.3817
 Red. masses --      1.4490                 1.7494                 3.2901
 Frc consts  --      0.6375                 0.8208                 1.5645
 IR Inten    --      0.1582                64.9109               154.9755

                     25                     26                     27
                      A                      A                      A
 Frequencies --    913.0106              1016.2346              1049.8812
 Red. masses --      6.7468                 3.4749                 5.0189
 Frc consts  --      3.3136                 2.1144                 3.2594
 IR Inten    --     52.2558                43.0845               321.5460

                     28                     29                     30
                      A                      A                      A
 Frequencies --   1158.8832              1159.9742              1183.9072
 Red. masses --      1.2422                 1.2424                 1.4887
 Frc consts  --      0.9829                 0.9850                 1.2294
 IR Inten    --      4.0685                 2.8684               124.3566

                     31                     32                     33
                      A                      A                      A
 Frequencies --   1189.7068              1218.6168              1267.1353
 Red. masses --      1.6002                 1.6758                 2.8807
 Frc consts  --      1.3344                 1.4663                 2.7252
 IR Inten    --     39.0816               292.6328               664.2822

                     34                     35                     36
                      A                      A                      A
 Frequencies --   1312.9679              1327.7925              1352.3138
 Red. masses --      2.2425                 5.4169                 3.8958
 Frc consts  --      2.2776                 5.6268                 4.1976
 IR Inten    --    373.9751               124.9508                 9.9257

                     37                     38                     39
                      A                      A                      A
 Frequencies --   1473.0030              1474.3491              1483.2837
 Red. masses --      1.1767                 1.1659                 1.0767
 Frc consts  --      1.5043                 1.4931                 1.3957
 IR Inten    --     11.1351                15.7212                 5.9746

                     40                     41                     42
                      A                      A                      A
 Frequencies --   1484.8419              1489.0418              1489.9087
 Red. masses --      1.0803                 1.0456                 1.0460
 Frc consts  --      1.4034                 1.3659                 1.3681
 IR Inten    --     14.2772                57.9947                46.3969

                     43                     44                     45
                      A                      A                      A
 Frequencies --   1623.3655              1653.3431              1677.8524
 Red. masses --      7.6605                11.5371                 8.2266
 Frc consts  --     11.8943                18.5811                13.6452
 IR Inten    --    279.7986               625.1741               742.3693

                     46                     47                     48
                      A                      A                      A
 Frequencies --   1725.7329              3055.2648              3055.8249
 Red. masses --     12.2065                 1.0310                 1.0307
 Frc consts  --     21.4184                 5.6700                 5.6707
 IR Inten    --    297.8666                26.1741                97.2134

                     49                     50                     51
                      A                      A                      A
 Frequencies --   3141.2206              3141.5998              3160.3034
 Red. masses --      1.1043                 1.1048                 1.1085
 Frc consts  --      6.4198                 6.4245                 6.5229
 IR Inten    --     28.2415                27.0816                14.8309

                     52                     53                     54
                      A                      A                      A
 Frequencies --   3161.2165              3199.0841              3200.2288
 Red. masses --      1.1084                 1.0924                 1.0930
 Frc consts  --      6.5264                 6.5871                 6.5950
 IR Inten    --     14.9878                 2.2267                 0.0213

 - Thermochemistry -
 -------------------
 Temperature   298.150 Kelvin.  Pressure   1.00000 Atm.
 Atom     1 has atomic number  6 and mass  12.00000

 Molecular mass:   168.04226 amu.
 Principal axes and moments of inertia in atomic units:
                           1         2         3
     Eigenvalues --  1790.246631828.398233482.93892
           X            0.99754   0.01255   0.06892
           Y           -0.00437   0.99305  -0.11761
           Z           -0.06991   0.11702   0.99067
 This molecule is an asymmetric top.
 Rotational symmetry number  1.
 Warning -- assumption of classical behavior for rotation
           may cause significant error
 Rotational temperatures (Kelvin)      0.04838     0.04737     0.02487
 Rotational constants (GHZ):           1.00810     0.98706     0.51817
 Zero-point vibrational energy     390136.8 (Joules/Mol)
                                   93.24494 (Kcal/Mol)
 Warning -- explicit consideration of  17 degrees of freedom as
           vibrations may cause significant error
 Vibrational temperatures:     72.78    89.54    97.35   170.49   187.85
          (Kelvin)            247.80   272.88   299.14   384.64   470.76
                              493.79   544.03   605.83   640.81   645.51
                              781.76   794.74   982.92  1021.62  1136.64
                             1182.24  1243.31  1283.97  1292.57  1313.62
                             1462.13  1510.54  1667.37  1668.94  1703.38
                             1711.72  1753.32  1823.13  1889.07  1910.40
                             1945.68  2119.32  2121.26  2134.11  2136.36
                             2142.40  2143.65  2335.66  2378.79  2414.06
                             2482.94  4395.84  4396.65  4519.52  4520.06
                             4546.97  4548.29  4602.77  4604.42

 Zero-point correction=                           0.148595 (Hartree/Particle)
 Thermal correction to Energy=                    0.160577
 Thermal correction to Enthalpy=                  0.161521
 Thermal correction to Gibbs Free Energy=         0.109653
 Sum of electronic and zero-point Energies=           -610.532760
 Sum of electronic and thermal Energies=              -610.520778
 Sum of electronic and thermal Enthalpies=            -610.519834
 Sum of electronic and thermal Free Energies=         -610.571702

                     E (Thermal)             CV                S
                      KCal/Mol        Cal/Mol-Kelvin    Cal/Mol-Kelvin
 Total                  100.763             42.188            109.165
 Electronic               0.000              0.000              0.000
 Translational            0.889              2.981             41.265
 Rotational               0.889              2.981             30.812
 Vibrational             98.986             36.226             37.088
 Vibration     1          0.595              1.977              4.794
 Vibration     2          0.597              1.972              4.385
 Vibration     3          0.598              1.970              4.220
 Vibration     4          0.609              1.934              3.125
 Vibration     5          0.612              1.923              2.938
 Vibration     6          0.626              1.877              2.411
 Vibration     7          0.633              1.854              2.231
 Vibration     8          0.641              1.829              2.062
 Vibration     9          0.672              1.733              1.613
 Vibration    10          0.711              1.621              1.274
 Vibration    11          0.722              1.589              1.197
 Vibration    12          0.748              1.517              1.047
 Vibration    13          0.784              1.424              0.888
 Vibration    14          0.805              1.371              0.810
 Vibration    15          0.808              1.364              0.800
 Vibration    16          0.898              1.154              0.558
 Vibration    17          0.908              1.134              0.539

                           ! Non-Optimized Parameters !
 Normal termination of Gaussian 16 at Sat Feb 10 10:48:31 2024.
