 Q-Chem 5.4, Q-Chem, Inc., Pleasanton, CA (2021)
 Q-Chem 5.4.0 for Intel X86 EM64T Linux

User input:
--------------------------------------------------------------
$molecule
0 1
N                  3.1040460000     -1.3456670000      1.2244260000
C                  2.6486970000     -0.5878700000      0.1825730000
C                  3.5885400000     -0.1213650000     -0.7633190000
C                  3.2119960000      0.6753830000     -1.8148360000
C                  1.8755640000      1.0685820000     -1.9924700000
O                  1.5477910000      1.8652040000     -3.0449860000
C                  0.9038550000      0.6257650000     -1.0800710000
C                 -0.5103050000      1.0263380000     -1.2387910000
O                 -0.8629440000      1.7895840000     -2.1552800000
C                 -1.5070560000      0.5105760000     -0.2948500000
C                 -2.8493330000      0.8964520000     -0.4626490000
O                 -3.2699120000      1.7114530000     -1.4389410000
C                 -3.8219910000      0.4107930000      0.4362690000
C                 -3.4706440000     -0.4300610000      1.4575910000
C                 -2.1277560000     -0.8458200000      1.6610370000
N                 -1.8646870000     -1.7092120000      2.6842280000
C                 -1.1338120000     -0.3617230000      0.7730720000
C                  0.2695630000     -0.7286570000      0.9520880000
O                  0.6093420000     -1.4785880000      1.8981250000
C                  1.2854980000     -0.2178540000      0.0126070000
H                  4.0381870000     -1.7160790000      1.1810460000
H                  2.4105880000     -1.7696610000      1.8274320000
H                  4.6306320000     -0.3999470000     -0.6460200000
H                  3.9606530000      1.0156690000     -2.5250340000
H                  2.3474170000      2.0567830000     -3.5475680000
H                 -2.4568380000      1.9489060000     -1.9622460000
H                 -4.8499430000      0.7208440000      0.2915630000
H                 -4.2332520000     -0.7992860000      2.1361190000
H                 -0.8946170000     -1.9194090000      2.8807790000
H                 -2.5792800000     -1.8911350000      3.3681050000
$end
$rem
MAX_SCF_CYCLES=200
BASIS  =  6-311++G(d,p)
GUI  =  2
JOB_TYPE  =  SP
METHOD  =  B3LYP
SOLVENT_METHOD = PCM
$end
$pcm
theory = CPCM
$end
$solvent
dielectric 37.219
opticaldielectric 1.43
$end

--------------------------------------------------------------

             Standard Nuclear Orientation (Angstroms)
    I     Atom           X                Y                Z
 ----------------------------------------------------------------
    1      N       3.1040460000    -1.3456670000     1.2244260000
    2      C       2.6486970000    -0.5878700000     0.1825730000
    3      C       3.5885400000    -0.1213650000    -0.7633190000
    4      C       3.2119960000     0.6753830000    -1.8148360000
    5      C       1.8755640000     1.0685820000    -1.9924700000
    6      O       1.5477910000     1.8652040000    -3.0449860000
    7      C       0.9038550000     0.6257650000    -1.0800710000
    8      C      -0.5103050000     1.0263380000    -1.2387910000
    9      O      -0.8629440000     1.7895840000    -2.1552800000
   10      C      -1.5070560000     0.5105760000    -0.2948500000
   11      C      -2.8493330000     0.8964520000    -0.4626490000
   12      O      -3.2699120000     1.7114530000    -1.4389410000
   13      C      -3.8219910000     0.4107930000     0.4362690000
   14      C      -3.4706440000    -0.4300610000     1.4575910000
   15      C      -2.1277560000    -0.8458200000     1.6610370000
   16      N      -1.8646870000    -1.7092120000     2.6842280000
   17      C      -1.1338120000    -0.3617230000     0.7730720000
   18      C       0.2695630000    -0.7286570000     0.9520880000
   19      O       0.6093420000    -1.4785880000     1.8981250000
   20      C       1.2854980000    -0.2178540000     0.0126070000
   21      H       4.0381870000    -1.7160790000     1.1810460000
   22      H       2.4105880000    -1.7696610000     1.8274320000
   23      H       4.6306320000    -0.3999470000    -0.6460200000
   24      H       3.9606530000     1.0156690000    -2.5250340000
   25      H       2.3474170000     2.0567830000    -3.5475680000
   26      H      -2.4568380000     1.9489060000    -1.9622460000
   27      H      -4.8499430000     0.7208440000     0.2915630000
   28      H      -4.2332520000    -0.7992860000     2.1361190000
   29      H      -0.8946170000    -1.9194090000     2.8807790000
   30      H      -2.5792800000    -1.8911350000     3.3681050000
 ----------------------------------------------------------------

    9    -950.2400093989      3.70e-06  Convergence criterion met
 Total energy in the final basis set =     -950.2400093989

                    Orbital Energies (a.u.)
 --------------------------------------------------------------

 Alpha MOs
 -- Occupied --
-19.1649 -19.1524 -19.1218 -19.1129 -14.3256 -14.3233 -10.2762 -10.2681
-10.2561 -10.2531 -10.2393 -10.2386 -10.2027 -10.1990 -10.1976 -10.1953
-10.1946 -10.1935 -10.1929 -10.1913  -1.0846  -1.0784  -1.0466  -1.0454
 -0.9377  -0.9331  -0.8705  -0.8536  -0.8071  -0.7709  -0.7542  -0.7411
 -0.6862  -0.6664  -0.6614  -0.6203  -0.6007  -0.5847  -0.5657  -0.5522
 -0.5379  -0.5251  -0.5213  -0.5034  -0.4809  -0.4763  -0.4717  -0.4609
 -0.4603  -0.4495  -0.4370  -0.4315  -0.4241  -0.4211  -0.4183  -0.3987
 -0.3954  -0.3918  -0.3864  -0.3766  -0.3727  -0.3671  -0.3115  -0.3026
 -0.2833  -0.2774  -0.2736  -0.2658  -0.2208  -0.2013

          Ground-State Mulliken Net Atomic Charges

     Atom                 Charge (a.u.)
  ----------------------------------------
      1 N                    -0.442888
      2 C                     0.021336
      3 C                    -0.153843
      4 C                    -0.306350
      5 C                    -0.134119
      6 O                    -0.267427
      7 C                     0.381577
      8 C                    -0.509380
      9 O                    -0.365430
     10 C                     0.595285
     11 C                    -0.096701
     12 O                    -0.385296
     13 C                    -0.283387
     14 C                    -0.216297
     15 C                     0.031014
     16 N                    -0.449268
     17 C                     0.188026
     18 C                    -0.444250
     19 O                    -0.396500
     20 C                     0.319654
     21 H                     0.307812
     22 H                     0.341600
     23 H                     0.224568
     24 H                     0.213746
     25 H                     0.326682
     26 H                     0.388660
     27 H                     0.230754
     28 H                     0.223807
     29 H                     0.344458
     30 H                     0.312157
  ----------------------------------------
  Sum of atomic charges =     0.000000

                    Cartesian Multipole Moments
 -----------------------------------------------------------------
    Charge (ESU x 10^10)
                 0.0000
    Dipole Moment (Debye)
         X       5.2554      Y      -3.1898      Z       2.6297
       Tot       6.6865
    Quadrupole Moments (Debye-Ang)
        XX     -78.7698     XY       8.1110     YY    -119.4277
        XZ     -26.6111     YZ      -3.5597     ZZ    -106.7215

 Total job time:  66.45s(wall), 457.52s(cpu)
        *  Thank you very much for using Q-Chem.  Have a nice day.  *
