 Gaussian 16, Revision A.03,
 Gaussian 16:  ES64L-G16RevA.03 25-Dec-2016

 ----------------------------------------------------------------
 #P UB3LYP/6-311++G(d,p) SCRF=(PCM,Solvent=n,n-DiMethylFormamide)
 ----------------------------------------------------------------

 ------------------
 Quinone PCM in DMF
 ------------------
 Symbolic Z-matrix:
 Charge =  0 Multiplicity = 1

                         Standard orientation:
 ---------------------------------------------------------------------
 Center     Atomic      Atomic             Coordinates (Angstroms)
 Number     Number       Type             X           Y           Z
 ---------------------------------------------------------------------
      1          6           0       -0.773168    1.209553   -0.000095
      2          6           0        0.707831    1.223842   -0.000437
      3          6           0        1.493087    0.129744   -0.000304
      4          6           0        0.802099   -1.209658   -0.000140
      5          6           0       -0.683610   -1.249272    0.000161
      6          6           0       -1.426224   -0.136969    0.000009
      7         35           0       -3.321204   -0.183610   -0.000001
      8          6           0        3.023070    0.188799    0.000006
      9          6           0        3.571127   -0.511158    1.269385
     10          6           0        3.528556    1.643307   -0.000392
     11          6           0        3.572003   -0.512148   -1.268434
     12          8           0       -1.408958    2.244574    0.000106
     13          8           0        1.410350   -2.267016   -0.000183
     14          1           0        1.116432    2.225896   -0.000571
     15          1           0       -1.115281   -2.242444    0.000363
     16          1           0        3.191637   -0.029132    2.175162
     17          1           0        4.661934   -0.432817    1.281964
     18          1           0        3.303344   -1.566195    1.295997
     19          1           0        3.201466    2.192631    0.886825
     20          1           0        3.201655    2.192189   -0.887943
     21          1           0        4.621064    1.641248   -0.000197
     22          1           0        3.303861   -1.567098   -1.294659
     23          1           0        4.662828   -0.434165   -1.280035
     24          1           0        3.193458   -0.030455   -2.174785
 ---------------------------------------------------------------------

 SCF Done:  E(UB3LYP) =  -3112.40891461     A.U. after   15 cycles

 The electronic state is 1-A.
 Alpha  occ. eigenvalues -- -482.85285 -62.50555 -56.32598 -56.32214 -56.32176
 Alpha  occ. eigenvalues --  -19.15180 -19.14906 -10.30052 -10.29719 -10.26794
 Alpha  occ. eigenvalues --  -10.22545 -10.22199 -10.21068 -10.20764 -10.16451
 Alpha  occ. eigenvalues --  -10.16269 -10.16267  -8.71523  -6.54686  -6.53400
 Alpha  occ. eigenvalues --   -6.53289  -2.65778  -2.65426  -2.65343  -2.64319
 Alpha  occ. eigenvalues --   -2.64318  -1.08555  -1.08110  -0.88722  -0.85358
 Alpha  occ. eigenvalues --   -0.80929  -0.76754  -0.71285  -0.69475  -0.69262
 Alpha  occ. eigenvalues --   -0.64356  -0.61625  -0.56015  -0.53871  -0.50632
 Alpha  occ. eigenvalues --   -0.49120  -0.47363  -0.46596  -0.45747  -0.44830
 Alpha  occ. eigenvalues --   -0.44605  -0.43443  -0.42945  -0.40981  -0.39257
 Alpha  occ. eigenvalues --   -0.38702  -0.37271  -0.36376  -0.35843  -0.34663
 Alpha  occ. eigenvalues --   -0.34290  -0.31259  -0.30595  -0.29922  -0.28406
 Alpha  occ. eigenvalues --   -0.28321
 Alpha virt. eigenvalues --   -0.14270  -0.03807  -0.02784  -0.01252  -0.00729
 Alpha virt. eigenvalues --    0.00537   0.01217   0.01865   0.02478   0.03065
 Alpha virt. eigenvalues --    0.03691   0.03843   0.04501   0.04890   0.05292

  Beta  occ. eigenvalues -- -482.85285 -62.50555 -56.32598 -56.32214 -56.32176
  Beta  occ. eigenvalues --  -19.15180 -19.14906 -10.30052 -10.29719 -10.26794
  Beta  occ. eigenvalues --  -10.22545 -10.22199 -10.21068 -10.20764 -10.16451
  Beta  occ. eigenvalues --  -10.16269 -10.16267  -8.71523  -6.54686  -6.53400
  Beta  occ. eigenvalues --   -6.53289  -2.65778  -2.65426  -2.65343  -2.64319
  Beta  occ. eigenvalues --   -2.64318  -1.08555  -1.08110  -0.88722  -0.85358
  Beta  occ. eigenvalues --   -0.80929  -0.76754  -0.71285  -0.69475  -0.69262
  Beta  occ. eigenvalues --   -0.64356  -0.61625  -0.56015  -0.53871  -0.50632
  Beta  occ. eigenvalues --   -0.49120  -0.47363  -0.46596  -0.45747  -0.44830
  Beta  occ. eigenvalues --   -0.44605  -0.43443  -0.42945  -0.40981  -0.39257
  Beta  occ. eigenvalues --   -0.38702  -0.37271  -0.36376  -0.35843  -0.34663
  Beta  occ. eigenvalues --   -0.34290  -0.31259  -0.30595  -0.29922  -0.28406
  Beta  occ. eigenvalues --   -0.28321
  Beta virt. eigenvalues --   -0.14270  -0.03807  -0.02784  -0.01252  -0.00729
  Beta virt. eigenvalues --    0.00537   0.01217   0.01865   0.02478   0.03065
  Beta virt. eigenvalues --    0.03691   0.03843   0.04501   0.04890   0.05292

 Mulliken charges and spin densities:
               1          2
     1  C   -0.794813  -0.000000
     2  C   -0.381962  -0.000000
     3  C    1.185147  -0.000000
     4  C   -0.629057   0.000000
     5  C   -0.397780   0.000000
     6  C    0.855914  -0.000000
     7  Br  -0.060920  -0.000000
     8  C    0.563628   0.000000
     9  C   -0.688452  -0.000000
    10  C   -0.483967   0.000000
    11  C   -0.688160  -0.000000
    12  O   -0.232595  -0.000000
    13  O   -0.232383  -0.000000
    14  H    0.249422   0.000000
    15  H    0.278812   0.000000
    16  H    0.150258  -0.000000
    17  H    0.168329   0.000000
    18  H    0.174556   0.000000
    19  H    0.143630  -0.000000
    20  H    0.143628  -0.000000
    21  H    0.183615   0.000000
    22  H    0.174571   0.000000
    23  H    0.168325   0.000000
    24  H    0.150254  -0.000000
 Sum of Mulliken charges =  -0.00000   0.00000

 Dipole moment (field-independent basis, Debye):
    X=              2.7717    Y=             -0.2548    Z=              0.0003  Tot=              2.7833
 Quadrupole moment (field-independent basis, Debye-Ang):
   XX=            -87.5208   YY=           -101.5406   ZZ=            -89.7384
   XY=             12.4165   XZ=              0.0025   YZ=             -0.0026

 Normal termination of Gaussian 16 at Sun Jan 21 06:42:29 2024.
