 Gaussian 16, Revision A.03,
 Gaussian 16:  ES64L-G16RevA.03 25-Dec-2016

 ----------------------------------------------------------------
 #P UB3LYP/6-311++G(d,p) SCRF=(PCM,Solvent=n,n-DiMethylFormamide)
 ----------------------------------------------------------------

 ------------------
 Quinone PCM in DMF
 ------------------
 Symbolic Z-matrix:
 Charge =  0 Multiplicity = 1

                         Standard orientation:
 ---------------------------------------------------------------------
 Center     Atomic      Atomic             Coordinates (Angstroms)
 Number     Number       Type             X           Y           Z
 ---------------------------------------------------------------------
      1          6           0       -2.532275   -1.781841    1.111959
      2          6           0       -2.327283   -1.072829   -0.245535
      3          6           0       -3.649515   -0.498693   -0.767602
      4          6           0       -1.219812   -0.046096   -0.134581
      5          6           0       -1.417518    1.277875   -0.012379
      6          6           0       -0.301624    2.233347    0.136196
      7          8           0       -0.506604    3.433991    0.251756
      8          6           0        1.071821    1.689973    0.145973
      9          6           0        1.338848    0.378314    0.014503
     10          6           0        2.762522   -0.146995    0.023076
     11          6           0        3.029666   -1.108001    1.198398
     12          6           0        3.165953   -0.775910   -1.325600
     13          6           0        0.190419   -0.575968   -0.155364
     14          8           0        0.389230   -1.769125   -0.320563
     15          1           0       -3.286570   -2.567136    1.012982
     16          1           0       -2.878038   -1.072602    1.870030
     17          1           0       -1.609403   -2.245316    1.464010
     18          1           0       -1.973781   -1.831361   -0.950833
     19          1           0       -4.369163   -1.307504   -0.917059
     20          1           0       -3.518314    0.015547   -1.723261
     21          1           0       -4.097351    0.205896   -0.060366
     22          1           0       -2.406520    1.721458   -0.011198
     23          1           0        1.862417    2.424373    0.265143
     24          1           0        3.396322    0.734331    0.173164
     25          1           0        2.464768   -2.034228    1.088182
     26          1           0        4.093857   -1.357658    1.233634
     27          1           0        2.762678   -0.648755    2.154225
     28          1           0        4.230649   -1.025650   -1.309999
     29          1           0        2.997828   -0.080466   -2.152479
     30          1           0        2.602398   -1.688905   -1.519982
 ---------------------------------------------------------------------

 SCF Done:  E(UB3LYP) =  -617.525744374     A.U. after   15 cycles

 The electronic state is 1-A.
 Alpha  occ. eigenvalues --  -19.14228 -19.13753 -10.28759 -10.28160 -10.21652
 Alpha  occ. eigenvalues --  -10.21609 -10.20192 -10.20078 -10.19287 -10.19163
 Alpha  occ. eigenvalues --  -10.16540 -10.16418 -10.16194 -10.16191  -1.07455
 Alpha  occ. eigenvalues --   -1.06686  -0.86930  -0.83616  -0.79334  -0.75775
 Alpha  occ. eigenvalues --   -0.70384  -0.69122  -0.68934  -0.64882  -0.62583
 Alpha  occ. eigenvalues --   -0.57560  -0.56583  -0.52964  -0.50562  -0.47908
 Alpha  occ. eigenvalues --   -0.46980  -0.45656  -0.45292  -0.44823  -0.44248
 Alpha  occ. eigenvalues --   -0.42828  -0.42271  -0.41637  -0.41552  -0.40379
 Alpha  occ. eigenvalues --   -0.38896  -0.38445  -0.36412  -0.36006  -0.35438
 Alpha  occ. eigenvalues --   -0.35213  -0.34587  -0.34271  -0.30261  -0.28707
 Alpha  occ. eigenvalues --   -0.28442  -0.27332
 Alpha virt. eigenvalues --   -0.13229  -0.02515  -0.00855  -0.00507   0.00137
 Alpha virt. eigenvalues --    0.00910   0.01466   0.02059   0.02308   0.02572
 Alpha virt. eigenvalues --    0.03651   0.03972   0.04318   0.04714   0.05236

  Beta  occ. eigenvalues --  -19.14228 -19.13753 -10.28759 -10.28160 -10.21652
  Beta  occ. eigenvalues --  -10.21609 -10.20192 -10.20078 -10.19287 -10.19163
  Beta  occ. eigenvalues --  -10.16540 -10.16418 -10.16194 -10.16191  -1.07455
  Beta  occ. eigenvalues --   -1.06686  -0.86930  -0.83616  -0.79334  -0.75775
  Beta  occ. eigenvalues --   -0.70384  -0.69122  -0.68934  -0.64882  -0.62583
  Beta  occ. eigenvalues --   -0.57560  -0.56583  -0.52964  -0.50562  -0.47908
  Beta  occ. eigenvalues --   -0.46980  -0.45656  -0.45292  -0.44823  -0.44248
  Beta  occ. eigenvalues --   -0.42828  -0.42271  -0.41637  -0.41552  -0.40379
  Beta  occ. eigenvalues --   -0.38896  -0.38445  -0.36412  -0.36006  -0.35438
  Beta  occ. eigenvalues --   -0.35213  -0.34587  -0.34271  -0.30261  -0.28707
  Beta  occ. eigenvalues --   -0.28442  -0.27332
  Beta virt. eigenvalues --   -0.13229  -0.02515  -0.00855  -0.00507   0.00137
  Beta virt. eigenvalues --    0.00910   0.01466   0.02059   0.02308   0.02572
  Beta virt. eigenvalues --    0.03651   0.03972   0.04318   0.04714   0.05236

 Mulliken charges and spin densities:
               1          2
     1  C   -0.708372  -0.000000
     2  C    0.175379  -0.000000
     3  C   -0.539045  -0.000000
     4  C    1.079983   0.000000
     5  C   -0.119792   0.000000
     6  C   -0.382976  -0.000000
     7  O   -0.309206  -0.000000
     8  C   -0.392080   0.000000
     9  C    0.886603   0.000000
    10  C    0.250565  -0.000000
    11  C   -0.685203  -0.000000
    12  C   -0.673400  -0.000000
    13  C   -1.135156  -0.000000
    14  O   -0.223895   0.000000
    15  H    0.154694   0.000000
    16  H    0.155282  -0.000000
    17  H    0.174082   0.000000
    18  H    0.214754   0.000000
    19  H    0.178600   0.000000
    20  H    0.141374  -0.000000
    21  H    0.145975   0.000000
    22  H    0.226638  -0.000000
    23  H    0.228944  -0.000000
    24  H    0.198404   0.000000
    25  H    0.180385   0.000000
    26  H    0.159758  -0.000000
    27  H    0.136698  -0.000000
    28  H    0.160268  -0.000000
    29  H    0.136634  -0.000000
    30  H    0.184106   0.000000
 Sum of Mulliken charges =  -0.00000  -0.00000

 Dipole moment (field-independent basis, Debye):
    X=              0.2988    Y=             -2.0075    Z=             -0.0170  Tot=              2.0296
 Quadrupole moment (field-independent basis, Debye-Ang):
   XX=            -73.6861   YY=           -106.7584   ZZ=            -85.6310
   XY=              6.1043   XZ=              1.0513   YZ=             -2.0489

 Normal termination of Gaussian 16 at Sun Jan 21 07:03:25 2024.
