 Q-Chem 5.4, Q-Chem, Inc., Pleasanton, CA (2021)
 Q-Chem 5.4.0 for Intel X86 EM64T Linux

User input:
--------------------------------------------------------------
$molecule
0 1
C                 -3.0061280000      3.7217760000      0.1435510000
C                 -4.2691320000      3.1453650000      0.2060880000
C                 -4.4074330000      1.7548780000      0.1745790000
C                 -1.8686660000      2.9137340000      0.0493100000
C                 -2.0077510000      1.5142980000      0.0175180000
C                 -3.2826110000      0.9438330000      0.0806400000
C                 -0.5260440000      3.5598210000     -0.0164590000
C                  0.6633970000      2.6614910000     -0.1100310000
C                  0.5233050000      1.2634810000     -0.1415030000
C                 -0.8178100000      0.6178530000     -0.0824780000
C                  1.9342930000      3.2356100000     -0.1667080000
C                  3.0512560000      2.4188910000     -0.2549640000
C                  2.9298900000      1.0279630000     -0.2933600000
C                  1.6650780000      0.4607370000     -0.2337230000
O                 -0.4011030000      4.7731040000      0.0053490000
O                 -0.9401440000     -0.5960270000     -0.1146360000
H                 -3.3666500000     -0.1355460000      0.0547860000
H                  1.5400130000     -0.6145160000     -0.2600470000
H                 -2.8756110000      4.7965980000      0.1663320000
H                  2.0381480000      4.3127800000     -0.1452730000
H                  3.8106690000      0.4048800000     -0.3617680000
H                 -5.3935630000      1.3072450000      0.2236440000
O                  4.2790540000      3.0578310000     -0.3875540000
C                  5.3485260000      2.7047840000      0.4070760000
C                  6.5405030000      3.5507090000      0.0561720000
O                  5.2974340000      1.8537630000      1.2495390000
H                 -5.1478660000      3.7759460000      0.2794420000
H                  6.3174150000      4.6014720000      0.2558280000
H                  6.7643630000      3.4608040000     -1.0088540000
H                  7.3952700000      3.2343250000      0.6497330000
$end
$rem
MAX_SCF_CYCLES=200
BASIS  =  6-311++G(d,p)
GUI  =  2
JOB_TYPE  =  SP
METHOD  =  B3LYP
SOLVENT_METHOD = PCM
$end
$pcm
theory = CPCM
$end
$solvent
dielectric 37.219
opticaldielectric 1.43
$end

--------------------------------------------------------------

             Standard Nuclear Orientation (Angstroms)
    I     Atom           X                Y                Z
 ----------------------------------------------------------------
    1      C      -3.0061280000     3.7217760000     0.1435510000
    2      C      -4.2691320000     3.1453650000     0.2060880000
    3      C      -4.4074330000     1.7548780000     0.1745790000
    4      C      -1.8686660000     2.9137340000     0.0493100000
    5      C      -2.0077510000     1.5142980000     0.0175180000
    6      C      -3.2826110000     0.9438330000     0.0806400000
    7      C      -0.5260440000     3.5598210000    -0.0164590000
    8      C       0.6633970000     2.6614910000    -0.1100310000
    9      C       0.5233050000     1.2634810000    -0.1415030000
   10      C      -0.8178100000     0.6178530000    -0.0824780000
   11      C       1.9342930000     3.2356100000    -0.1667080000
   12      C       3.0512560000     2.4188910000    -0.2549640000
   13      C       2.9298900000     1.0279630000    -0.2933600000
   14      C       1.6650780000     0.4607370000    -0.2337230000
   15      O      -0.4011030000     4.7731040000     0.0053490000
   16      O      -0.9401440000    -0.5960270000    -0.1146360000
   17      H      -3.3666500000    -0.1355460000     0.0547860000
   18      H       1.5400130000    -0.6145160000    -0.2600470000
   19      H      -2.8756110000     4.7965980000     0.1663320000
   20      H       2.0381480000     4.3127800000    -0.1452730000
   21      H       3.8106690000     0.4048800000    -0.3617680000
   22      H      -5.3935630000     1.3072450000     0.2236440000
   23      O       4.2790540000     3.0578310000    -0.3875540000
   24      C       5.3485260000     2.7047840000     0.4070760000
   25      C       6.5405030000     3.5507090000     0.0561720000
   26      O       5.2974340000     1.8537630000     1.2495390000
   27      H      -5.1478660000     3.7759460000     0.2794420000
   28      H       6.3174150000     4.6014720000     0.2558280000
   29      H       6.7643630000     3.4608040000    -1.0088540000
   30      H       7.3952700000     3.2343250000     0.6497330000
 ----------------------------------------------------------------

    9    -916.9160139915      4.18e-06  Convergence criterion met
 Total energy in the final basis set =     -916.9160139915

                    Orbital Energies (a.u.)
 --------------------------------------------------------------

 Alpha MOs
 -- Occupied --
-19.1958 -19.1388 -19.1350 -19.1331 -10.3293 -10.2870 -10.2853 -10.2674
-10.2151 -10.2106 -10.2097 -10.2091 -10.2042 -10.2032 -10.2031 -10.1979
-10.1976 -10.1972 -10.1969 -10.1831  -1.1356  -1.0703  -1.0678  -1.0572
 -0.8987  -0.8853  -0.8191  -0.7924  -0.7803  -0.7785  -0.7548  -0.6974
 -0.6755  -0.6597  -0.6244  -0.6145  -0.5881  -0.5650  -0.5426  -0.5166
 -0.5122  -0.5050  -0.5003  -0.4898  -0.4740  -0.4644  -0.4589  -0.4581
 -0.4554  -0.4501  -0.4465  -0.4332  -0.4241  -0.4226  -0.4070  -0.4005
 -0.3915  -0.3838  -0.3813  -0.3711  -0.3674  -0.3476  -0.3092  -0.2918
 -0.2902  -0.2824  -0.2789  -0.2786  -0.2718

          Ground-State Mulliken Net Atomic Charges

     Atom                 Charge (a.u.)
  ----------------------------------------
      1 C                     0.161101
      2 C                    -0.437791
      3 C                    -0.435897
      4 C                     0.279690
      5 C                     0.120090
      6 C                     0.191881
      7 C                    -0.676618
      8 C                     0.447578
      9 C                     0.255955
     10 C                    -0.567028
     11 C                     0.077619
     12 C                    -0.519956
     13 C                     0.064519
     14 C                     0.180464
     15 O                    -0.278093
     16 O                    -0.285999
     17 H                     0.199954
     18 H                     0.209596
     19 H                     0.197499
     20 H                     0.224039
     21 H                     0.259292
     22 H                     0.224732
     23 O                    -0.037938
     24 C                     0.199413
     25 C                    -0.578431
     26 O                    -0.299634
     27 H                     0.225682
     28 H                     0.205271
     29 H                     0.205644
     30 H                     0.187366
  ----------------------------------------
  Sum of atomic charges =     0.000001

                    Cartesian Multipole Moments
 -----------------------------------------------------------------
    Charge (ESU x 10^10)
                -0.0000
    Dipole Moment (Debye)
         X      -0.0096      Y       1.6511      Z      -1.6042
       Tot       2.3021
    Quadrupole Moments (Debye-Ang)
        XX     -72.2809     XY       6.1598     YY    -117.5084
        XZ     -11.3488     YZ      -0.7958     ZZ    -119.5018

 Total job time:  113.79s(wall), 423.01s(cpu)
        *  Thank you very much for using Q-Chem.  Have a nice day.  *
