 Q-Chem 5.4, Q-Chem, Inc., Pleasanton, CA (2021)
 Q-Chem 5.4.0 for Intel X86 EM64T Linux

User input:
--------------------------------------------------------------
$molecule
-1 2
C                  4.9885520000     -2.4957580000      0.2066480000
C                  5.6799570000     -1.6602160000     -0.6501530000
C                  4.9704230000     -0.8059750000     -1.5188900000
C                  3.5793920000     -2.5107440000      0.2291800000
C                  2.8631550000     -1.6501750000     -0.6459810000
C                  3.5889710000     -0.8051230000     -1.5126940000
C                  2.8894930000     -3.4192300000      1.1605730000
C                  1.4215040000     -3.3803120000      1.1284740000
C                  0.7099640000     -2.5102660000      0.2435290000
C                  1.3940960000     -1.6133890000     -0.6759670000
C                  0.7003220000     -4.2193070000      1.9892710000
C                 -0.7059190000     -2.5311540000      0.2721860000
C                 -1.3975690000     -3.3600280000      1.1224760000
O                  3.5215300000     -4.1735560000      1.9275450000
O                  0.7720270000     -0.8476720000     -1.4551970000
H                  5.5052410000     -3.1636910000      0.8861330000
H                 -2.4798970000     -3.3613380000      1.1294510000
H                  3.0189380000     -0.1587900000     -2.1698370000
H                  1.2538730000     -4.8718630000      2.6529830000
H                 -1.2253190000     -1.8644830000     -0.4061270000
C                 -0.6914200000     -4.2272770000      2.0047450000
H                  5.5115170000     -0.1485310000     -2.1930540000
C                 -1.3795750000     -5.1342740000      2.9351460000
O                 -0.8582570000     -5.9041980000      3.7192240000
O                 -2.7471630000     -5.0392810000      2.8453070000
C                 -3.4795680000     -5.8942390000      3.7230530000
H                 -4.5313460000     -5.6921380000      3.5210260000
H                 -3.2455890000     -5.6765600000      4.7678800000
H                 -3.2510750000     -6.9447370000      3.5280900000
H                  6.7657020000     -1.6606340000     -0.6552620000
$end
$rem
MAX_SCF_CYCLES=200
BASIS  =  6-311++G(d,p)
GUI  =  2
JOB_TYPE  =  SP
METHOD  =  B3LYP
SOLVENT_METHOD = COSMO
$end
$solvent
dielectric 37.219
opticaldielectric 1.43
$end

--------------------------------------------------------------

             Standard Nuclear Orientation (Angstroms)
    I     Atom           X                Y                Z
 ----------------------------------------------------------------
    1      C       3.5474879553    -1.6901663660     0.0000396328
    2      C       4.8468826094    -1.2191539010     0.0002678431
    3      C       5.0879185678     0.1700083681     0.0003914361
    4      C       2.4518202841    -0.8036131966    -0.0000542085
    5      C       2.6935290482     0.5967646371     0.0000729776
    6      C       4.0281015043     1.0561440946     0.0002887801
    7      C       1.0864342306    -1.3554476460    -0.0002218334
    8      C      -0.0048687641    -0.3722923000    -0.0002278988
    9      C       0.2492013589     1.0354879506    -0.0001556929
   10      C       1.5994756367     1.5783112968     0.0000176278
   11      C      -1.3304473702    -0.8281748742    -0.0002369872
   12      C      -0.8570860972     1.9198579319    -0.0002069141
   13      C      -2.1506725429     1.4561349309    -0.0002258434
   14      O       0.8778659370    -2.5855792489    -0.0004189854
   15      O       1.8264400895     2.8148301419    -0.0001838845
   16      H       3.3297619854    -2.7519560229    -0.0000439765
   17      H      -2.9828745341     2.1481783632    -0.0002359318
   18      H       4.1849991365     2.1284798707     0.0003715407
   19      H      -1.5057830763    -1.8968277887    -0.0002315607
   20      H      -0.6425419969     2.9820753941    -0.0002151574
   21      C      -2.4063792996     0.0547856240    -0.0001910034
   22      H       6.1080929898     0.5425087672     0.0005655859
   23      C      -3.7693049962    -0.4968305330     0.0000178201
   24      O      -4.0775070048    -1.6734125348     0.0002364259
   25      O      -4.7319627341     0.4833131972     0.0000576314
   26      C      -6.0811137769     0.0168374632     0.0004570630
   27      H      -6.7022363036     0.9124394568    -0.0002913691
   28      H      -6.2870145846    -0.5865663198     0.8877577514
   29      H      -6.2870276085    -0.5881230175    -0.8857641177
   30      H       5.6800636009    -1.9153420282     0.0003609433
 ----------------------------------------------------------------

    9    -916.9729624474      8.49e-06  Convergence criterion met
 Total energy in the final basis set =     -916.9729624474
    4    -917.0555170526      9.97e-06  Convergence criterion met
 Total energy in the final basis set =     -917.0555170526

                    Orbital Energies (a.u.)
 --------------------------------------------------------------

 Alpha MOs
 -- Occupied --
-19.1686 -19.1187 -19.0895 -19.0838 -10.3082 -10.2389 -10.2304 -10.2161
-10.1923 -10.1856 -10.1819 -10.1813 -10.1813 -10.1801 -10.1794 -10.1771
-10.1760 -10.1755 -10.1745 -10.1733  -1.1087  -1.0242  -1.0191  -1.0100
 -0.8713  -0.8592  -0.7993  -0.7665  -0.7557  -0.7540  -0.7218  -0.6772
 -0.6493  -0.6295  -0.5968  -0.5786  -0.5641  -0.5440  -0.5357  -0.5006
 -0.4885  -0.4845  -0.4761  -0.4634  -0.4591  -0.4385  -0.4328  -0.4311
 -0.4276  -0.4250  -0.4129  -0.4115  -0.4082  -0.3909  -0.3898  -0.3696
 -0.3663  -0.3568  -0.3490  -0.3459  -0.3392  -0.3130  -0.2938  -0.2763
 -0.2675  -0.2612  -0.2572  -0.2561  -0.2468  -0.1509

 Beta MOs
 -- Occupied --
-19.1685 -19.1181 -19.0849 -19.0779 -10.3081 -10.2376 -10.2286 -10.2161
-10.1915 -10.1861 -10.1807 -10.1805 -10.1802 -10.1797 -10.1787 -10.1769
-10.1755 -10.1755 -10.1745 -10.1731  -1.1082  -1.0234  -1.0110  -0.9997
 -0.8687  -0.8580  -0.7955  -0.7643  -0.7536  -0.7528  -0.7207  -0.6703
 -0.6477  -0.6269  -0.5961  -0.5775  -0.5620  -0.5424  -0.5343  -0.4987
 -0.4878  -0.4835  -0.4733  -0.4620  -0.4584  -0.4378  -0.4325  -0.4268
 -0.4199  -0.4194  -0.4107  -0.4101  -0.4049  -0.3882  -0.3685  -0.3662
 -0.3659  -0.3557  -0.3485  -0.3379  -0.3340  -0.3116  -0.2931  -0.2627
 -0.2568  -0.2529  -0.2525  -0.2504  -0.2418

          Ground-State Mulliken Net Atomic Charges

     Atom                 Charge (a.u.)    Spin (a.u.)
  --------------------------------------------------------
      1 C                     0.057116       0.010770
      2 C                    -0.470614       0.041704
      3 C                    -0.471174       0.012585
      4 C                     0.430692       0.030256
      5 C                     0.338233       0.002259
      6 C                     0.033936       0.040999
      7 C                    -0.618240       0.073630
      8 C                     0.310157       0.070447
      9 C                     0.252359       0.090011
     10 C                    -0.707085       0.101341
     11 C                     0.000315      -0.022153
     12 C                    -0.108465       0.030114
     13 C                    -0.639085       0.068839
     14 O                    -0.450453       0.169891
     15 O                    -0.476128       0.216450
     16 H                     0.179183      -0.000612
     17 H                     0.218957      -0.004887
     18 H                     0.181534      -0.002673
     19 H                     0.173731       0.001530
     20 H                     0.187478      -0.001240
     21 C                     0.202628       0.060887
     22 H                     0.207775      -0.001391
     23 C                     0.190387      -0.007551
     24 O                    -0.368220       0.020663
     25 O                    -0.156338       0.001607
     26 C                    -0.260192      -0.000523
     27 H                     0.173606      -0.000067
     28 H                     0.189879       0.000154
     29 H                     0.189780       0.000153
     30 H                     0.208248      -0.003195
  --------------------------------------------------------
  Sum of atomic charges =    -1.000000

                    Cartesian Multipole Moments
 -----------------------------------------------------------------
    Charge (ESU x 10^10)
                -4.8032
    Dipole Moment (Debye)
         X      -3.3682      Y       1.4475      Z       0.0017
       Tot       3.6661
    Quadrupole Moments (Debye-Ang)
        XX    -112.4966     XY     -18.7615     YY    -155.1074
        XZ       0.0003     YZ      -0.0004     ZZ    -120.4730

 Total job time:  107.13s(wall), 774.33s(cpu)
        *  Thank you very much for using Q-Chem.  Have a nice day.  *
