 Q-Chem 5.4, Q-Chem, Inc., Pleasanton, CA (2021)
 Q-Chem 5.4.0 for Intel X86 EM64T Linux

User input:
--------------------------------------------------------------
$molecule
-1 2
C                 -3.0710990000      3.5479720000      1.0671990000
C                 -3.9875690000      2.9250240000      1.8903400000
C                 -3.8460090000      1.5533420000      2.1933720000
C                 -1.9817070000      2.8373630000      0.5159640000
C                 -1.8408940000      1.4577190000      0.8219460000
C                 -2.7898910000      0.8390120000      1.6652280000
C                 -1.0403240000      3.5551690000     -0.3530930000
C                  0.0809520000      2.7742240000     -0.8829480000
C                  0.2089080000      1.3744430000     -0.5856190000
C                 -0.7398820000      0.6658760000      0.2784520000
C                  1.0810630000      3.3337010000     -1.7278480000
C                  2.1054840000      2.5800880000     -2.2620810000
C                  2.2032760000      1.2073370000     -1.9652190000
C                  1.2707960000      0.6253970000     -1.1353230000
O                 -1.2188660000      4.7709680000     -0.6131320000
O                 -0.6124310000     -0.5560870000      0.5360950000
H                 -2.6544090000     -0.2150400000      1.8779470000
H                  1.3137380000     -0.4260590000     -0.8783340000
H                 -3.1557210000      4.5992220000      0.8188910000
O                  1.0427530000      4.6691890000     -2.1296150000
H                  3.0115040000      0.6198410000     -2.3887130000
H                 -4.5672170000      1.0633050000      2.8406320000
C                  1.5516890000      5.6386830000     -1.3184600000
C                  1.3974730000      6.9689440000     -1.7608100000
C                  2.2418520000      5.3874710000     -0.1329460000
C                  2.7911870000      6.4402910000      0.5992720000
C                  1.9598820000      8.0064490000     -1.0254040000
C                  2.6621170000      7.7522530000      0.1542720000
O                  0.7602200000      7.2544490000     -2.9434440000
C                 -0.6636380000      7.0330610000     -2.9380040000
H                 -4.8172350000      3.4891070000      2.3059120000
H                  2.8230940000      3.0722020000     -2.9085210000
H                  2.3472220000      4.3664330000      0.2102560000
H                  3.3220680000      6.2239960000      1.5201830000
H                  1.8341050000      9.0165610000     -1.3996930000
H                  3.0921930000      8.5721760000      0.7189230000
H                 -0.9713960000      7.0189260000     -3.9846730000
H                 -1.1620110000      7.8627120000     -2.4215240000
H                 -0.9212890000      6.0948510000     -2.4458310000
$end
$rem
MAX_SCF_CYCLES=200
BASIS  =  6-311++G(d,p)
GUI  =  2
JOB_TYPE  =  SP
METHOD  =  B3LYP
SOLVENT_METHOD = PCM
$end
$pcm
theory = CPCM
$end
$solvent
dielectric 37.219
opticaldielectric 1.43
$end

--------------------------------------------------------------

             Standard Nuclear Orientation (Angstroms)
    I     Atom           X                Y                Z
 ----------------------------------------------------------------
    1      C      -3.0710990000     3.5479720000     1.0671990000
    2      C      -3.9875690000     2.9250240000     1.8903400000
    3      C      -3.8460090000     1.5533420000     2.1933720000
    4      C      -1.9817070000     2.8373630000     0.5159640000
    5      C      -1.8408940000     1.4577190000     0.8219460000
    6      C      -2.7898910000     0.8390120000     1.6652280000
    7      C      -1.0403240000     3.5551690000    -0.3530930000
    8      C       0.0809520000     2.7742240000    -0.8829480000
    9      C       0.2089080000     1.3744430000    -0.5856190000
   10      C      -0.7398820000     0.6658760000     0.2784520000
   11      C       1.0810630000     3.3337010000    -1.7278480000
   12      C       2.1054840000     2.5800880000    -2.2620810000
   13      C       2.2032760000     1.2073370000    -1.9652190000
   14      C       1.2707960000     0.6253970000    -1.1353230000
   15      O      -1.2188660000     4.7709680000    -0.6131320000
   16      O      -0.6124310000    -0.5560870000     0.5360950000
   17      H      -2.6544090000    -0.2150400000     1.8779470000
   18      H       1.3137380000    -0.4260590000    -0.8783340000
   19      H      -3.1557210000     4.5992220000     0.8188910000
   20      O       1.0427530000     4.6691890000    -2.1296150000
   21      H       3.0115040000     0.6198410000    -2.3887130000
   22      H      -4.5672170000     1.0633050000     2.8406320000
   23      C       1.5516890000     5.6386830000    -1.3184600000
   24      C       1.3974730000     6.9689440000    -1.7608100000
   25      C       2.2418520000     5.3874710000    -0.1329460000
   26      C       2.7911870000     6.4402910000     0.5992720000
   27      C       1.9598820000     8.0064490000    -1.0254040000
   28      C       2.6621170000     7.7522530000     0.1542720000
   29      O       0.7602200000     7.2544490000    -2.9434440000
   30      C      -0.6636380000     7.0330610000    -2.9380040000
   31      H      -4.8172350000     3.4891070000     2.3059120000
   32      H       2.8230940000     3.0722020000    -2.9085210000
   33      H       2.3472220000     4.3664330000     0.2102560000
   34      H       3.3220680000     6.2239960000     1.5201830000
   35      H       1.8341050000     9.0165610000    -1.3996930000
   36      H       3.0921930000     8.5721760000     0.7189230000
   37      H      -0.9713960000     7.0189260000    -3.9846730000
   38      H      -1.1620110000     7.8627120000    -2.4215240000
   39      H      -0.9212890000     6.0948510000    -2.4458310000
 ----------------------------------------------------------------

    8   -1109.9866709105      6.98e-06  Convergence criterion met
 Total energy in the final basis set =    -1109.9866709105

                    Orbital Energies (a.u.)
 --------------------------------------------------------------

 Alpha MOs
 -- Occupied --
-19.1625 -19.1408 -19.0789 -19.0762 -10.2401 -10.2395 -10.2306 -10.2280
-10.2275 -10.2034 -10.1847 -10.1792 -10.1766 -10.1750 -10.1745 -10.1744
-10.1742 -10.1737 -10.1736 -10.1731 -10.1726 -10.1709 -10.1708 -10.1705
-10.1700  -1.0877  -1.0507  -1.0073  -1.0043  -0.8673  -0.8573  -0.8502
 -0.7888  -0.7702  -0.7541  -0.7514  -0.7430  -0.7330  -0.6843  -0.6718
 -0.6490  -0.6295  -0.6221  -0.6006  -0.5810  -0.5640  -0.5438  -0.5340
 -0.5215  -0.5025  -0.4952  -0.4793  -0.4721  -0.4652  -0.4611  -0.4572
 -0.4538  -0.4385  -0.4322  -0.4256  -0.4243  -0.4188  -0.4168  -0.4110
 -0.4064  -0.3938  -0.3838  -0.3785  -0.3752  -0.3669  -0.3647  -0.3590
 -0.3517  -0.3471  -0.3404  -0.3365  -0.3302  -0.2844  -0.2713  -0.2583
 -0.2551  -0.2538  -0.2496  -0.2486  -0.2386  -0.2242  -0.1445

 Beta MOs
 -- Occupied --
-19.1624 -19.1408 -19.0738 -19.0709 -10.2401 -10.2394 -10.2289 -10.2280
-10.2256 -10.2033 -10.1839 -10.1782 -10.1760 -10.1745 -10.1744 -10.1742
-10.1737 -10.1736 -10.1731 -10.1727 -10.1722 -10.1709 -10.1708 -10.1704
-10.1700  -1.0876  -1.0507  -0.9982  -0.9949  -0.8653  -0.8562  -0.8495
 -0.7849  -0.7690  -0.7541  -0.7494  -0.7412  -0.7320  -0.6839  -0.6650
 -0.6478  -0.6281  -0.6197  -0.6004  -0.5804  -0.5627  -0.5414  -0.5324
 -0.5210  -0.5012  -0.4950  -0.4781  -0.4701  -0.4647  -0.4605  -0.4564
 -0.4530  -0.4376  -0.4314  -0.4243  -0.4190  -0.4165  -0.4106  -0.4079
 -0.4032  -0.3926  -0.3781  -0.3741  -0.3668  -0.3635  -0.3620  -0.3558
 -0.3505  -0.3449  -0.3356  -0.3332  -0.3269  -0.2842  -0.2547  -0.2519
 -0.2509  -0.2463  -0.2458  -0.2439  -0.2345  -0.2235

          Ground-State Mulliken Net Atomic Charges

     Atom                 Charge (a.u.)    Spin (a.u.)
  --------------------------------------------------------
      1 C                    -0.126158       0.022636
      2 C                    -0.434408       0.039330
      3 C                    -0.548655       0.027184
      4 C                     0.170244       0.028663
      5 C                     0.279657       0.025746
      6 C                    -0.055108       0.028422
      7 C                    -0.361372       0.089363
      8 C                     0.359559       0.054158
      9 C                     0.696743       0.062735
     10 C                    -0.622603       0.103770
     11 C                    -0.270601       0.016500
     12 C                     0.214813       0.042735
     13 C                    -0.491153       0.048117
     14 C                    -0.116851       0.024195
     15 O                    -0.406783       0.206093
     16 O                    -0.478444       0.195706
     17 H                     0.181509      -0.001590
     18 H                     0.187040      -0.001787
     19 H                     0.160177      -0.001167
     20 O                    -0.055731      -0.002023
     21 H                     0.216650      -0.003700
     22 H                     0.196212      -0.002413
     23 C                     0.474586      -0.001464
     24 C                    -0.556076       0.014144
     25 C                    -0.229907      -0.013269
     26 C                    -0.433850       0.001936
     27 C                     0.072349       0.000460
     28 C                    -0.296788       0.000495
     29 O                    -0.195687      -0.000123
     30 C                    -0.305906       0.000415
     31 H                     0.202565      -0.003167
     32 H                     0.208445      -0.003350
     33 H                     0.202167       0.000018
     34 H                     0.219651       0.000016
     35 H                     0.220997      -0.000036
     36 H                     0.194358       0.000107
     37 H                     0.162116       0.000103
     38 H                     0.144451      -0.000131
     39 H                     0.221790       0.001173
  --------------------------------------------------------
  Sum of atomic charges =    -1.000001

                    Cartesian Multipole Moments
 -----------------------------------------------------------------
    Charge (ESU x 10^10)
                -4.8032
    Dipole Moment (Debye)
         X       2.6273      Y     -12.4141      Z       2.5345
       Tot      12.9397
    Quadrupole Moments (Debye-Ang)
        XX    -146.8312     XY      -1.1901     YY    -218.2384
        XZ       2.2329     YZ      23.7173     ZZ    -155.9800

 Total job time:  288.34s(wall), 866.71s(cpu)
        *  Thank you very much for using Q-Chem.  Have a nice day.  *
