 Gaussian 16, Revision A.03,
 Gaussian 16:  ES64L-G16RevA.03 25-Dec-2016

 --------------------------------------
 #P UB3LYP/6-311++G(d,p) nosym opt freq
 --------------------------------------

 -------
 Radical
 -------
 Symbolic Z-matrix:
 Charge = -1 Multiplicity = 2

 SCF Done:  E(UB3LYP) =  -535.535666386     A.U. after   20 cycles
 SCF Done:  E(UB3LYP) =  -535.545505201     A.U. after   17 cycles
 SCF Done:  E(UB3LYP) =  -535.547166926     A.U. after   17 cycles
 SCF Done:  E(UB3LYP) =  -535.546831355     A.U. after   17 cycles
 SCF Done:  E(UB3LYP) =  -535.547696810     A.U. after   16 cycles
 SCF Done:  E(UB3LYP) =  -535.547758539     A.U. after   15 cycles
 SCF Done:  E(UB3LYP) =  -535.547809277     A.U. after   15 cycles
 SCF Done:  E(UB3LYP) =  -535.547820028     A.U. after   13 cycles
 SCF Done:  E(UB3LYP) =  -535.547824337     A.U. after   14 cycles
 SCF Done:  E(UB3LYP) =  -535.547824936     A.U. after   12 cycles
 Optimization completed.
    -- Stationary point found.
 Normal termination of Gaussian 16 at Wed Dec 20 01:50:30 2023.

 ----------------------------------------------------------------------
 #P Geom=AllCheck Guess=TCheck SCRF=Check GenChk UB3LYP/6-311++G(d,p) F
 req
 ----------------------------------------------------------------------

 Structure from the checkpoint file:  "095-rad.chk"
 -------
 Radical
 -------
 Charge = -1 Multiplicity = 2

                          Input orientation:
 ---------------------------------------------------------------------
 Center     Atomic      Atomic             Coordinates (Angstroms)
 Number     Number       Type             X           Y           Z
 ---------------------------------------------------------------------
      1          6           0        2.149388    3.807190    5.528397
      2          6           0        3.046007    3.185145    4.587753
      3          6           0        2.617960    2.291881    3.642367
      4          6           0        1.226131    1.912343    3.527318
      5          6           0        0.327659    2.548548    4.472585
      6          6           0        0.738519    3.448561    5.423563
      7          8           0        2.569814    4.625246    6.414708
      8          8           0        0.815792    1.087258    2.661647
      9          6           0       -0.217953    4.171320    6.366523
     10          6           0       -1.631441    3.606764    6.426894
     11          8           0        0.283315    4.190322    7.707892
     12          1           0        4.094065    3.459777    4.670905
     13          1           0        3.312083    1.831824    2.944505
     14          1           0       -0.716472    2.268737    4.377589
     15          1           0       -0.284717    5.215303    6.011306
     16          1           0       -2.137155    3.681512    5.460983
     17          1           0       -2.205715    4.173675    7.164599
     18          1           0       -1.615114    2.557829    6.735161
     19          1           0        1.219597    4.461956    7.594317
 ---------------------------------------------------------------------

 SCF Done:  E(UB3LYP) =  -535.547824936     A.U. after    1 cycles

 Alpha  occ. eigenvalues --  -18.97246 -18.94712 -18.94075 -10.09763 -10.08946
 Alpha  occ. eigenvalues --  -10.08455 -10.04576 -10.04234 -10.03513 -10.03443
 Alpha  occ. eigenvalues --  -10.03307  -0.88594  -0.86016  -0.85724  -0.69574
 Alpha  occ. eigenvalues --   -0.64473  -0.60129  -0.55386  -0.50199  -0.45352
 Alpha  occ. eigenvalues --   -0.43219  -0.37473  -0.34508  -0.34328  -0.33002
 Alpha  occ. eigenvalues --   -0.30567  -0.27537  -0.27320  -0.26772  -0.26589
 Alpha  occ. eigenvalues --   -0.25541  -0.24610  -0.23516  -0.22696  -0.21171
 Alpha  occ. eigenvalues --   -0.14971  -0.13920  -0.12731  -0.11029  -0.10015
 Alpha  occ. eigenvalues --   -0.03073
 Alpha virt. eigenvalues --    0.09087   0.10359   0.11162   0.11955   0.12458
 Alpha virt. eigenvalues --    0.12693   0.13231   0.14811   0.15396   0.15663
 Alpha virt. eigenvalues --    0.17342   0.17556   0.18628   0.19481   0.20218

  Beta  occ. eigenvalues --  -18.97243 -18.94044 -18.93289 -10.09770 -10.08768
  Beta  occ. eigenvalues --  -10.08383 -10.04576 -10.04159 -10.03422 -10.03298
  Beta  occ. eigenvalues --  -10.03172  -0.88356  -0.84854  -0.84558  -0.69004
  Beta  occ. eigenvalues --   -0.64292  -0.59935  -0.54419  -0.49861  -0.45029
  Beta  occ. eigenvalues --   -0.42915  -0.37394  -0.34177  -0.34106  -0.32718
  Beta  occ. eigenvalues --   -0.30388  -0.27215  -0.26566  -0.26126  -0.25912
  Beta  occ. eigenvalues --   -0.25294  -0.23747  -0.22466  -0.21718  -0.20088
  Beta  occ. eigenvalues --   -0.13979  -0.11961  -0.11293  -0.10406  -0.09331
  Beta virt. eigenvalues --    0.04296   0.09122   0.10370   0.11372   0.12064
  Beta virt. eigenvalues --    0.12711   0.13265   0.13550   0.14839   0.15522
  Beta virt. eigenvalues --    0.16922   0.17507   0.17627   0.19175   0.19747

 Mulliken charges and spin densities:
               1          2
     1  C   -0.799548   0.091317
     2  C    0.193697   0.066750
     3  C    0.185594   0.124444
     4  C   -0.637745   0.089542
     5  C   -1.207421   0.057769
     6  C    1.842457   0.041735
     7  O   -0.415982   0.240596
     8  O   -0.402357   0.279149
     9  C   -0.307352   0.031732
    10  C   -0.474967  -0.003239
    11  O   -0.259043   0.003143
    12  H    0.147747  -0.006751
    13  H    0.147346  -0.009530
    14  H    0.130905  -0.008984
    15  H    0.147254   0.007152
    16  H    0.128794  -0.001017
    17  H    0.141479   0.000035
    18  H    0.148970  -0.000015
    19  H    0.290174  -0.003828
 Sum of Mulliken charges =  -1.00000   1.00000

 Dipole moment (field-independent basis, Debye):
    X=             -6.3612    Y=            -13.8718    Z=            -24.3903  Tot=             28.7711
 Quadrupole moment (field-independent basis, Debye-Ang):
   XX=            -82.3698   YY=           -124.3754   ZZ=           -220.6844
   XY=            -23.9611   XZ=            -33.9622   YZ=            -88.5689

  Exact polarizability: 129.401   8.377 114.133  -3.527  46.192 131.066
 Approx polarizability: 182.858  29.330 188.981  18.354  83.868 207.990

                      1                      2                      3
                      A                      A                      A
 Frequencies --     67.4909               117.0122               154.4997
 Red. masses --      4.1930                 6.0542                 5.2457
 Frc consts  --      0.0113                 0.0488                 0.0738
 IR Inten    --      3.3305                 4.5967                 3.7230

                      4                      5                      6
                      A                      A                      A
 Frequencies --    207.5940               261.7890               312.1290
 Red. masses --      4.0916                 1.0999                 6.2990
 Frc consts  --      0.1039                 0.0444                 0.3616
 IR Inten    --      1.0941                 0.1551                 1.5246

                      7                      8                      9
                      A                      A                      A
 Frequencies --    335.8274               370.8513               411.2119
 Red. masses --      5.2986                 4.4770                 4.8246
 Frc consts  --      0.3521                 0.3628                 0.4807
 IR Inten    --     13.2541                 1.9114                 8.6409

                     10                     11                     12
                      A                      A                      A
 Frequencies --    426.6014               455.1265               488.6397
 Red. masses --      4.3566                 4.6174                 6.1022
 Frc consts  --      0.4671                 0.5635                 0.8585
 IR Inten    --     10.6688                 3.4980                 0.3004

                     13                     14                     15
                      A                      A                      A
 Frequencies --    533.1102               588.4289               662.3541
 Red. masses --      2.9133                 3.6029                 4.3253
 Frc consts  --      0.4878                 0.7350                 1.1180
 IR Inten    --      5.3514                 4.1190                 2.4233

                     16                     17                     18
                      A                      A                      A
 Frequencies --    712.9850               751.4329               792.3387
 Red. masses --      4.1499                 2.6307                 1.1738
 Frc consts  --      1.2429                 0.8752                 0.4342
 IR Inten    --      1.4591                10.0684                60.9651

                     19                     20                     21
                      A                      A                      A
 Frequencies --    813.9553               825.7897               876.1266
 Red. masses --      3.8038                 2.1936                 2.9155
 Frc consts  --      1.4848                 0.8813                 1.3185
 IR Inten    --     41.9009                70.4087                25.6023

                     22                     23                     24
                      A                      A                      A
 Frequencies --    887.4230               921.0373               942.6230
 Red. masses --      1.5748                 2.6104                 1.2665
 Frc consts  --      0.7307                 1.3047                 0.6630
 IR Inten    --     22.5466                15.0184                 0.4033

                     25                     26                     27
                      A                      A                      A
 Frequencies --   1012.9513              1077.1402              1104.5581
 Red. masses --      2.1979                 1.9141                 1.6388
 Frc consts  --      1.3288                 1.3085                 1.1780
 IR Inten    --      9.0867                 3.4659                11.0612

                     28                     29                     30
                      A                      A                      A
 Frequencies --   1117.4729              1154.3557              1218.0511
 Red. masses --      2.6736                 2.0463                 2.9224
 Frc consts  --      1.9671                 1.6065                 2.5546
 IR Inten    --     63.1944                15.5915                 5.9410

                     31                     32                     33
                      A                      A                      A
 Frequencies --   1257.1427              1312.1964              1337.4956
 Red. masses --      1.5109                 1.4046                 1.2098
 Frc consts  --      1.4069                 1.4250                 1.2751
 IR Inten    --      8.3772                43.0428                25.9656

                     34                     35                     36
                      A                      A                      A
 Frequencies --   1356.6160              1391.5550              1426.6109
 Red. masses --      1.6520                 1.2464                 4.1808
 Frc consts  --      1.7914                 1.4221                 5.0132
 IR Inten    --      5.5736                16.8387               212.6675

                     37                     38                     39
                      A                      A                      A
 Frequencies --   1465.4430              1485.2402              1491.5606
 Red. masses --      2.9085                 1.6296                 1.2260
 Frc consts  --      3.6801                 2.1180                 1.6070
 IR Inten    --    107.9597                28.8275                24.1365

                     40                     41                     42
                      A                      A                      A
 Frequencies --   1499.5716              1518.5259              1527.9018
 Red. masses --      1.2745                 5.2435                 4.0514
 Frc consts  --      1.6886                 7.1238                 5.5724
 IR Inten    --     37.4430                26.1145               345.3404

                     43                     44                     45
                      A                      A                      A
 Frequencies --   1642.9579              2906.5256              3025.4452
 Red. masses --      6.7528                 1.0808                 1.0340
 Frc consts  --     10.7396                 5.3793                 5.5764
 IR Inten    --      2.4499                76.2626                33.0628

                     46                     47                     48
                      A                      A                      A
 Frequencies --   3089.6983              3095.9137              3134.5107
 Red. masses --      1.1019                 1.1017                 1.0851
 Frc consts  --      6.1979                 6.2217                 6.2816
 IR Inten    --     40.0496                32.4419                20.3472

                     49                     50                     51
                      A                      A                      A
 Frequencies --   3156.2518              3162.7620              3466.3064
 Red. masses --      1.0943                 1.0886                 1.0666
 Frc consts  --      6.4228                 6.4161                 7.5505
 IR Inten    --     51.0225                 9.2986               334.7555

 - Thermochemistry -
 -------------------
 Temperature   298.150 Kelvin.  Pressure   1.00000 Atm.
 Atom     1 has atomic number  6 and mass  12.00000

 Molecular mass:   152.04734 amu.
 Principal axes and moments of inertia in atomic units:
                           1         2         3
     Eigenvalues --  1021.790562012.420532957.42187
           X           -0.34650   0.92029  -0.18164
           Y            0.50900   0.34711   0.78768
           Z            0.78795   0.18048  -0.58870
 This molecule is an asymmetric top.
 Rotational symmetry number  1.
 Warning -- assumption of classical behavior for rotation
           may cause significant error
 Rotational temperatures (Kelvin)      0.08477     0.04304     0.02929
 Rotational constants (GHZ):           1.76625     0.89680     0.61024
 Zero-point vibrational energy     378924.0 (Joules/Mol)
                                   90.56500 (Kcal/Mol)
 Warning -- explicit consideration of  14 degrees of freedom as
           vibrations may cause significant error
 Vibrational temperatures:     97.10   168.35   222.29   298.68   376.66
          (Kelvin)            449.08   483.18   533.57   591.64   613.78
                              654.83   703.04   767.03   846.62   952.98
                             1025.83  1081.14  1140.00  1171.10  1188.13
                             1260.55  1276.80  1325.17  1356.22  1457.41
                             1549.76  1589.21  1607.79  1660.86  1752.50
                             1808.75  1887.96  1924.36  1951.87  2002.14
                             2052.57  2108.45  2136.93  2146.02  2157.55
                             2184.82  2198.31  2363.85  4181.84  4352.94
                             4445.39  4454.33  4509.86  4541.14  4550.51
                             4987.24

 Zero-point correction=                           0.144325 (Hartree/Particle)
 Thermal correction to Energy=                    0.153879
 Thermal correction to Enthalpy=                  0.154824
 Thermal correction to Gibbs Free Energy=         0.108818
 Sum of electronic and zero-point Energies=           -535.403500
 Sum of electronic and thermal Energies=              -535.393945
 Sum of electronic and thermal Enthalpies=            -535.393001
 Sum of electronic and thermal Free Energies=         -535.439006

                     E (Thermal)             CV                S
                      KCal/Mol        Cal/Mol-Kelvin    Cal/Mol-Kelvin
 Total                   96.561             37.054             96.826
 Electronic               0.000              0.000              1.377
 Translational            0.889              2.981             40.967
 Rotational               0.889              2.981             30.187
 Vibrational             94.783             31.093             24.294
 Vibration     1          0.598              1.970              4.225
 Vibration     2          0.608              1.935              3.149
 Vibration     3          0.620              1.898              2.616
 Vibration     4          0.641              1.829              2.065
 Vibration     5          0.669              1.743              1.650
 Vibration     6          0.700              1.651              1.351
 Vibration     7          0.717              1.604              1.232
 Vibration     8          0.743              1.532              1.076
 Vibration     9          0.775              1.446              0.922
 Vibration    10          0.788              1.412              0.870
 Vibration    11          0.813              1.350              0.780
 Vibration    12          0.845              1.275              0.687
 Vibration    13          0.888              1.177              0.580
 Vibration    14          0.946              1.056              0.470

 Optimization completed.
    -- Stationary point found.
 Normal termination of Gaussian 16 at Wed Dec 20 02:08:02 2023.
