 Gaussian 16, Revision A.03,
 Gaussian 16:  ES64L-G16RevA.03 25-Dec-2016

 ----------------------------------------------------------------
 #P UB3LYP/6-311++G(d,p) SCRF=(PCM,Solvent=n,n-DiMethylFormamide)
 ----------------------------------------------------------------

 -------
 Reduced
 -------
 Symbolic Z-matrix:
 Charge = -2 Multiplicity = 1

                         Standard orientation:
 ---------------------------------------------------------------------
 Center     Atomic      Atomic             Coordinates (Angstroms)
 Number     Number       Type             X           Y           Z
 ---------------------------------------------------------------------
      1          6           0       -3.975810   -1.123741    0.013282
      2          6           0       -2.642270   -0.410907    0.008466
      3          6           0       -2.596944    1.010820   -0.003440
      4          6           0       -1.382586    1.672512   -0.013437
      5          6           0       -0.150106    0.983722   -0.003510
      6          6           0        1.107661    1.731377    0.004963
      7          8           0        1.148102    3.018463    0.006321
      8          6           0        2.266705    0.905158    0.003084
      9          6           0        2.252322   -0.499236   -0.005094
     10          6           0        3.544691   -1.275326    0.008740
     11          6           0        1.039069   -1.256319   -0.007924
     12          8           0        1.028304   -2.546735   -0.004199
     13          6           0       -0.180325   -0.456858   -0.009849
     14          6           0       -1.442802   -1.101561   -0.006883
     15          1           0       -4.606098   -0.841939   -0.848484
     16          1           0       -3.849726   -2.210607   -0.019438
     17          1           0       -4.566034   -0.889742    0.907121
     18          1           0       -3.528461    1.575908    0.003062
     19          1           0       -1.332977    2.757609   -0.019356
     20          1           0        3.226266    1.424594    0.007826
     21          1           0        3.618880   -1.945522   -0.859184
     22          1           0        4.410610   -0.601686    0.010084
     23          1           0        3.607133   -1.932315    0.888509
     24          1           0       -1.428477   -2.187983   -0.017505
 ---------------------------------------------------------------------

 SCF Done:  E(UB3LYP) =  -614.161388488     A.U. after   17 cycles

 The electronic state is 1-A.
 Alpha  occ. eigenvalues --  -19.01190 -19.00913 -10.16435 -10.15823 -10.15388
 Alpha  occ. eigenvalues --  -10.15315 -10.14265 -10.14205 -10.13716 -10.13685
 Alpha  occ. eigenvalues --  -10.13033 -10.12911 -10.12154 -10.11122  -0.92839
 Alpha  occ. eigenvalues --   -0.92395  -0.82410  -0.76952  -0.73890  -0.71620
 Alpha  occ. eigenvalues --   -0.68100  -0.64901  -0.61937  -0.56874  -0.55391
 Alpha  occ. eigenvalues --   -0.51674  -0.46292  -0.45419  -0.43228  -0.40762
 Alpha  occ. eigenvalues --   -0.40331  -0.39841  -0.38965  -0.38623  -0.36456
 Alpha  occ. eigenvalues --   -0.36314  -0.35384  -0.34755  -0.34532  -0.33157
 Alpha  occ. eigenvalues --   -0.30999  -0.30639  -0.29890  -0.29657  -0.22306
 Alpha  occ. eigenvalues --   -0.21594  -0.20231  -0.19274  -0.18659  -0.10354
 Alpha virt. eigenvalues --   -0.00056   0.00000   0.00791   0.01263   0.01589
 Alpha virt. eigenvalues --    0.02751   0.02954   0.04262   0.04313   0.04785
 Alpha virt. eigenvalues --    0.04960   0.05887   0.06788   0.07011   0.07828

  Beta  occ. eigenvalues --  -19.01190 -19.00913 -10.16435 -10.15823 -10.15388
  Beta  occ. eigenvalues --  -10.15315 -10.14265 -10.14205 -10.13716 -10.13685
  Beta  occ. eigenvalues --  -10.13033 -10.12911 -10.12154 -10.11122  -0.92839
  Beta  occ. eigenvalues --   -0.92395  -0.82410  -0.76952  -0.73890  -0.71620
  Beta  occ. eigenvalues --   -0.68100  -0.64901  -0.61937  -0.56874  -0.55391
  Beta  occ. eigenvalues --   -0.51674  -0.46292  -0.45419  -0.43228  -0.40762
  Beta  occ. eigenvalues --   -0.40331  -0.39841  -0.38965  -0.38623  -0.36456
  Beta  occ. eigenvalues --   -0.36314  -0.35384  -0.34755  -0.34532  -0.33157
  Beta  occ. eigenvalues --   -0.30999  -0.30639  -0.29890  -0.29657  -0.22306
  Beta  occ. eigenvalues --   -0.21594  -0.20231  -0.19274  -0.18659  -0.10354
  Beta virt. eigenvalues --   -0.00056   0.00000   0.00791   0.01263   0.01589
  Beta virt. eigenvalues --    0.02751   0.02954   0.04262   0.04313   0.04785
  Beta virt. eigenvalues --    0.04960   0.05887   0.06788   0.07011   0.07828

 Mulliken charges and spin densities:
               1          2
     1  C   -0.470143  -0.000000
     2  C    0.508913   0.000000
     3  C   -0.459806   0.000000
     4  C   -0.051003  -0.000000
     5  C    0.248442   0.000000
     6  C   -0.604289  -0.000000
     7  O   -0.715697  -0.000000
     8  C   -0.492830  -0.000000
     9  C    0.921942  -0.000000
    10  C   -0.356254   0.000000
    11  C   -0.643394  -0.000000
    12  O   -0.696067   0.000000
    13  C   -0.133401   0.000000
    14  C   -0.395322   0.000000
    15  H    0.144653  -0.000000
    16  H    0.158067  -0.000000
    17  H    0.148978  -0.000000
    18  H    0.155055   0.000000
    19  H    0.131072   0.000000
    20  H    0.088839  -0.000000
    21  H    0.135620  -0.000000
    22  H    0.131638   0.000000
    23  H    0.136277  -0.000000
    24  H    0.108711  -0.000000
 Sum of Mulliken charges =  -2.00000   0.00000

 Dipole moment (field-independent basis, Debye):
    X=             -8.3709    Y=             -2.5340    Z=              0.0125  Tot=              8.7461
 Quadrupole moment (field-independent basis, Debye-Ang):
   XX=           -108.0445   YY=           -152.3618   ZZ=            -94.1604
   XY=             -2.9311   XZ=             -0.0537   YZ=             -0.0991

 Normal termination of Gaussian 16 at Sun Jan 21 08:47:49 2024.
