 Q-Chem 5.4, Q-Chem, Inc., Pleasanton, CA (2021)
 Q-Chem 5.4.0 for Intel X86 EM64T Linux

User input:
--------------------------------------------------------------
$molecule
0 1
C                  3.9463310000      0.6252640000     -0.1079360000
O                  2.6685820000      1.2622590000     -0.1571790000
C                  1.5738630000      0.5016200000     -0.0961210000
C                  1.5380340000     -0.8475450000      0.0110160000
C                  0.2806700000     -1.5977610000      0.0714150000
O                  0.2811730000     -2.8174570000      0.1681890000
C                 -0.9980290000     -0.8229270000      0.0106600000
C                 -2.2185840000     -1.4968380000      0.0648060000
C                 -3.4117810000     -0.7825780000      0.0087030000
C                 -3.3927580000      0.6097860000     -0.1018650000
C                 -2.1802180000      1.2886340000     -0.1563810000
C                 -0.9783780000      0.5770140000     -0.1005070000
C                  0.3086530000      1.3236920000     -0.1604810000
O                  0.3612880000      2.5323740000     -0.2558100000
H                  4.0732810000      0.0817580000      0.8328930000
H                  4.6762160000      1.4288340000     -0.1726940000
H                  4.0712620000     -0.0602050000     -0.9512540000
H                  2.4349920000     -1.4510230000      0.0583710000
H                 -2.2097100000     -2.5764880000      0.1504900000
H                 -4.3584560000     -1.3092050000      0.0510030000
H                 -4.3238550000      1.1631390000     -0.1453500000
H                 -2.1425700000      2.3676520000     -0.2420640000
$end

$rem
BASIS  =  6-311++G(d,p)
GUI  =  2
JOB_TYPE  =  SP
METHOD  =  B3LYP
SCF_CONVERGENCE  = 8
SOLVENT_METHOD = sm12
$end

$smx
solvent dimethylformamide
charges CM5
$end

--------------------------------------------------------------

             Standard Nuclear Orientation (Angstroms)
    I     Atom           X                Y                Z
 ----------------------------------------------------------------
    1      C       3.9463310000     0.6252640000    -0.1079360000
    2      O       2.6685820000     1.2622590000    -0.1571790000
    3      C       1.5738630000     0.5016200000    -0.0961210000
    4      C       1.5380340000    -0.8475450000     0.0110160000
    5      C       0.2806700000    -1.5977610000     0.0714150000
    6      O       0.2811730000    -2.8174570000     0.1681890000
    7      C      -0.9980290000    -0.8229270000     0.0106600000
    8      C      -2.2185840000    -1.4968380000     0.0648060000
    9      C      -3.4117810000    -0.7825780000     0.0087030000
   10      C      -3.3927580000     0.6097860000    -0.1018650000
   11      C      -2.1802180000     1.2886340000    -0.1563810000
   12      C      -0.9783780000     0.5770140000    -0.1005070000
   13      C       0.3086530000     1.3236920000    -0.1604810000
   14      O       0.3612880000     2.5323740000    -0.2558100000
   15      H       4.0732810000     0.0817580000     0.8328930000
   16      H       4.6762160000     1.4288340000    -0.1726940000
   17      H       4.0712620000    -0.0602050000    -0.9512540000
   18      H       2.4349920000    -1.4510230000     0.0583710000
   19      H      -2.2097100000    -2.5764880000     0.1504900000
   20      H      -4.3584560000    -1.3092050000     0.0510030000
   21      H      -4.3238550000     1.1631390000    -0.1453500000
   22      H      -2.1425700000     2.3676520000    -0.2420640000
 ----------------------------------------------------------------

   15    -649.8176124045      6.17e-09  Convergence criterion met
 Total energy in the final basis set =     -649.8379107514

                    Orbital Energies (a.u.)
 --------------------------------------------------------------

 Alpha MOs
 -- Occupied --
-19.1820 -19.1378 -19.1228 -10.2878 -10.2769 -10.2724 -10.2248 -10.2093
-10.2078 -10.1990 -10.1985 -10.1972 -10.1969 -10.1946  -1.1051  -1.0675
 -1.0559  -0.8903  -0.8346  -0.7787  -0.7762  -0.7400  -0.6837  -0.6511
 -0.6249  -0.5930  -0.5544  -0.5446  -0.5225  -0.4948  -0.4894  -0.4725
 -0.4624  -0.4516  -0.4462  -0.4458  -0.4338  -0.4272  -0.4173  -0.3837
 -0.3833  -0.3711  -0.3579  -0.3566  -0.2873  -0.2873  -0.2788  -0.2746
 -0.2643

          Ground-State Mulliken Net Atomic Charges

     Atom                 Charge (a.u.)
  ----------------------------------------
      1 C                    -0.062331
      2 O                    -0.179498
      3 C                     0.290816
      4 C                     1.519239
      5 C                    -1.543628
      6 O                    -0.342638
      7 C                    -0.090165
      8 C                    -0.033931
      9 C                     0.288169
     10 C                     0.263235
     11 C                     0.003201
     12 C                    -0.017737
     13 C                    -1.850990
     14 O                    -0.297504
     15 H                     0.240580
     16 H                     0.263667
     17 H                     0.240632
     18 H                     0.299746
     19 H                     0.170924
     20 H                     0.324661
     21 H                     0.324777
     22 H                     0.188775
  ----------------------------------------
  Sum of atomic charges =     0.000000

                    Cartesian Multipole Moments
 -----------------------------------------------------------------
    Charge (ESU x 10^10)
                 0.0000
    Dipole Moment (Debye)
         X       0.3149      Y       0.1406      Z      -0.0131
       Tot       0.3451
    Quadrupole Moments (Debye-Ang)
        XX     -49.2642     XY      -0.8754     YY     -99.0960
        XZ       0.0301     YZ       1.3563     ZZ     -81.9161

 Total job time:  291.40s(wall), 2262.93s(cpu)
        *  Thank you very much for using Q-Chem.  Have a nice day.  *
