 Gaussian 16, Revision A.03,
 Gaussian 16:  ES64L-G16RevA.03 25-Dec-2016

 --------------------------------------
 #P UB3LYP/6-311++G(d,p) nosym opt freq
 --------------------------------------

 --------
 Oxidized
 --------
 Symbolic Z-matrix:
 Charge =  0 Multiplicity = 1

 SCF Done:  E(UB3LYP) =  -649.819327407     A.U. after   16 cycles
 SCF Done:  E(UB3LYP) =  -649.819327271     A.U. after    9 cycles
 SCF Done:  E(UB3LYP) =  -649.819327458     A.U. after    8 cycles
 Optimization completed.
    -- Stationary point found.
 Normal termination of Gaussian 16 at Sun Jan  7 20:20:36 2024.

 ----------------------------------------------------------------------
 #P Geom=AllCheck Guess=TCheck SCRF=Check GenChk UB3LYP/6-311++G(d,p) F
 req
 ----------------------------------------------------------------------

 Structure from the checkpoint file:  "257.chk"
 --------
 Oxidized
 --------
 Charge =  0 Multiplicity = 1

                          Input orientation:
 ---------------------------------------------------------------------
 Center     Atomic      Atomic             Coordinates (Angstroms)
 Number     Number       Type             X           Y           Z
 ---------------------------------------------------------------------
      1          6           0        3.946331    0.625264   -0.107936
      2          8           0        2.668582    1.262259   -0.157179
      3          6           0        1.573863    0.501620   -0.096121
      4          6           0        1.538034   -0.847545    0.011016
      5          6           0        0.280670   -1.597761    0.071415
      6          8           0        0.281173   -2.817457    0.168189
      7          6           0       -0.998029   -0.822927    0.010660
      8          6           0       -2.218584   -1.496838    0.064806
      9          6           0       -3.411781   -0.782578    0.008703
     10          6           0       -3.392758    0.609786   -0.101865
     11          6           0       -2.180218    1.288634   -0.156381
     12          6           0       -0.978378    0.577014   -0.100507
     13          6           0        0.308653    1.323692   -0.160481
     14          8           0        0.361288    2.532374   -0.255810
     15          1           0        4.073281    0.081758    0.832893
     16          1           0        4.676216    1.428834   -0.172694
     17          1           0        4.071262   -0.060205   -0.951254
     18          1           0        2.434992   -1.451023    0.058371
     19          1           0       -2.209710   -2.576488    0.150490
     20          1           0       -4.358456   -1.309205    0.051003
     21          1           0       -4.323855    1.163139   -0.145350
     22          1           0       -2.142570    2.367652   -0.242064
 ---------------------------------------------------------------------

 SCF Done:  E(UB3LYP) =  -649.819327458     A.U. after    2 cycles

 Alpha  occ. eigenvalues --  -19.19197 -19.13642 -19.12188 -10.28703 -10.27635
 Alpha  occ. eigenvalues --  -10.27626 -10.24859 -10.21060 -10.20889 -10.20313
 Alpha  occ. eigenvalues --  -10.20226 -10.20130 -10.19915 -10.19912  -1.11410
 Alpha  occ. eigenvalues --   -1.06687  -1.05431  -0.89261  -0.83824  -0.78187
 Alpha  occ. eigenvalues --   -0.78078  -0.75189  -0.68841  -0.65466  -0.63220
 Alpha  occ. eigenvalues --   -0.59541  -0.55962  -0.55395  -0.52727  -0.50372
 Alpha  occ. eigenvalues --   -0.49724  -0.48024  -0.46486  -0.45350  -0.45026
 Alpha  occ. eigenvalues --   -0.44752  -0.43986  -0.43603  -0.41545  -0.38939
 Alpha  occ. eigenvalues --   -0.38937  -0.37703  -0.36719  -0.36633  -0.28884
 Alpha  occ. eigenvalues --   -0.28510  -0.28043  -0.27242  -0.26973
 Alpha virt. eigenvalues --   -0.11969  -0.05699  -0.02933  -0.01395  -0.00734
 Alpha virt. eigenvalues --    0.01149   0.01331   0.01881   0.02167   0.02801
 Alpha virt. eigenvalues --    0.03347   0.04599   0.04809   0.05142   0.05566

  Beta  occ. eigenvalues --  -19.19197 -19.13642 -19.12188 -10.28703 -10.27635
  Beta  occ. eigenvalues --  -10.27626 -10.24859 -10.21060 -10.20889 -10.20313
  Beta  occ. eigenvalues --  -10.20226 -10.20130 -10.19915 -10.19912  -1.11410
  Beta  occ. eigenvalues --   -1.06687  -1.05431  -0.89261  -0.83824  -0.78187
  Beta  occ. eigenvalues --   -0.78078  -0.75189  -0.68841  -0.65466  -0.63220
  Beta  occ. eigenvalues --   -0.59541  -0.55962  -0.55395  -0.52727  -0.50372
  Beta  occ. eigenvalues --   -0.49724  -0.48024  -0.46486  -0.45350  -0.45026
  Beta  occ. eigenvalues --   -0.44752  -0.43986  -0.43603  -0.41545  -0.38939
  Beta  occ. eigenvalues --   -0.38937  -0.37703  -0.36719  -0.36633  -0.28884
  Beta  occ. eigenvalues --   -0.28510  -0.28043  -0.27242  -0.26973
  Beta virt. eigenvalues --   -0.11969  -0.05699  -0.02933  -0.01395  -0.00734
  Beta virt. eigenvalues --    0.01149   0.01331   0.01881   0.02167   0.02801
  Beta virt. eigenvalues --    0.03347   0.04599   0.04809   0.05142   0.05566

 Mulliken charges and spin densities:
               1          2
     1  C   -0.302658  -0.000000
     2  O   -0.122239  -0.000000
     3  C   -0.129506   0.000000
     4  C    0.728400  -0.000000
     5  C   -0.755940   0.000000
     6  O   -0.245729  -0.000000
     7  C    0.620910  -0.000000
     8  C    0.124340   0.000000
     9  C   -0.329073   0.000000
    10  C   -0.417812  -0.000000
    11  C    0.121280   0.000000
    12  C    0.473665   0.000000
    13  C   -1.022755  -0.000000
    14  O   -0.209893   0.000000
    15  H    0.168507   0.000000
    16  H    0.199891  -0.000000
    17  H    0.168451   0.000000
    18  H    0.208291   0.000000
    19  H    0.181973   0.000000
    20  H    0.180225  -0.000000
    21  H    0.180026  -0.000000
    22  H    0.179644   0.000000
 Sum of Mulliken charges =  -0.00000   0.00000

 Dipole moment (field-independent basis, Debye):
    X=              0.2918    Y=              0.0593    Z=             -0.0068  Tot=              0.2978
 Quadrupole moment (field-independent basis, Debye-Ang):
   XX=            -54.6434   YY=            -97.6955   ZZ=            -81.8664
   XY=             -0.8667   XZ=              0.0336   YZ=              1.2572

  Exact polarizability: 184.563   9.861 161.955  -0.849  -7.118  72.851
 Approx polarizability: 253.667  18.995 327.884  -1.585 -17.065 114.223

                      1                      2                      3
                      A                      A                      A
 Frequencies --     45.7966               114.5052               120.6898
 Red. masses --      5.9208                 4.5263                 4.5295
 Frc consts  --      0.0073                 0.0350                 0.0389
 IR Inten    --      7.9509                 0.0314                 0.0018

                      4                      5                      6
                      A                      A                      A
 Frequencies --    157.4060               189.0981               196.5913
 Red. masses --      3.0652                 3.8482                 3.6745
 Frc consts  --      0.0447                 0.0811                 0.0837
 IR Inten    --      4.6022                 0.0667                 3.9736

                      7                      8                      9
                      A                      A                      A
 Frequencies --    244.4630               273.1826               332.8940
 Red. masses --      1.3483                 6.1151                 5.9258
 Frc consts  --      0.0475                 0.2689                 0.3869
 IR Inten    --      0.8398                 1.3713                 2.2235

                     10                     11                     12
                      A                      A                      A
 Frequencies --    378.7307               405.6846               448.9953
 Red. masses --     11.1021                 3.4884                 7.0055
 Frc consts  --      0.9382                 0.3383                 0.8321
 IR Inten    --     18.1465                 0.0411                 6.1525

                     13                     14                     15
                      A                      A                      A
 Frequencies --    449.8148               458.4173               502.0661
 Red. masses --      4.8645                10.0335                 3.8691
 Frc consts  --      0.5799                 1.2423                 0.5746
 IR Inten    --      1.6219                 3.9700                 3.4442

                     16                     17                     18
                      A                      A                      A
 Frequencies --    542.5563               655.7459               679.6556
 Red. masses --      6.9872                 7.2517                 3.8794
 Frc consts  --      1.2118                 1.8372                 1.0558
 IR Inten    --      1.8401                 6.6055                 2.2498

                     19                     20                     21
                      A                      A                      A
 Frequencies --    704.5373               716.6680               736.5333
 Red. masses --      5.5979                 6.5437                 2.7900
 Frc consts  --      1.6371                 1.9802                 0.8918
 IR Inten    --      3.9315                 0.4914                27.7286

                     22                     23                     24
                      A                      A                      A
 Frequencies --    787.4931               822.0739               829.6104
 Red. masses --      1.8804                 3.8668                 4.3005
 Frc consts  --      0.6870                 1.5396                 1.7439
 IR Inten    --     40.8853                 9.6233                 4.8763

                     25                     26                     27
                      A                      A                      A
 Frequencies --    868.4700               915.0443               937.2024
 Red. masses --      1.5359                 1.3618                 5.8052
 Frc consts  --      0.6826                 0.6718                 3.0042
 IR Inten    --     25.9884                 0.0047                18.0620

                     28                     29                     30
                      A                      A                      A
 Frequencies --   1000.4353              1017.5874              1044.9007
 Red. masses --      1.3802                 1.3224                 3.4398
 Frc consts  --      0.8139                 0.8068                 2.2127
 IR Inten    --      1.5404                 0.0398                53.2332

                     31                     32                     33
                      A                      A                      A
 Frequencies --   1068.7007              1102.4123              1137.3885
 Red. masses --      3.4749                 2.8927                 1.8536
 Frc consts  --      2.3383                 2.0713                 1.4128
 IR Inten    --     57.0325                26.5744                11.0826

                     34                     35                     36
                      A                      A                      A
 Frequencies --   1167.3777              1183.2404              1197.9746
 Red. masses --      1.2797                 1.1355                 1.4029
 Frc consts  --      1.0275                 0.9367                 1.1863
 IR Inten    --      0.8246                14.7187                11.1199

                     37                     38                     39
                      A                      A                      A
 Frequencies --   1236.7359              1266.9525              1283.3853
 Red. masses --      2.3911                 2.5963                 2.0182
 Frc consts  --      2.1548                 2.4554                 1.9585
 IR Inten    --    138.6400               373.7248                66.2422

                     40                     41                     42
                      A                      A                      A
 Frequencies --   1324.0286              1359.6594              1371.2037
 Red. masses --      4.0972                 6.4764                 3.0094
 Frc consts  --      4.2319                 7.0541                 3.3338
 IR Inten    --     74.5106                18.3483                28.5597

                     43                     44                     45
                      A                      A                      A
 Frequencies --   1474.5139              1482.7804              1492.6839
 Red. masses --      1.2322                 2.3679                 1.0444
 Frc consts  --      1.5784                 3.0674                 1.3711
 IR Inten    --      4.7266                 0.3029                11.7589

                     46                     47                     48
                      A                      A                      A
 Frequencies --   1498.7120              1505.6289              1611.5395
 Red. masses --      1.0508                 2.5997                 6.5204
 Frc consts  --      1.3906                 3.4722                 9.9771
 IR Inten    --     19.0384                 5.5892                41.9166

                     49                     50                     51
                      A                      A                      A
 Frequencies --   1629.4659              1649.6317              1707.3919
 Red. masses --      5.8870                 7.6088                11.1174
 Frc consts  --      9.2095                12.1994                19.0950
 IR Inten    --     53.8438               299.4940               215.1773

                     52                     53                     54
                      A                      A                      A
 Frequencies --   1746.6728              3020.6183              3086.7596
 Red. masses --     12.8170                 1.0334                 1.1068
 Frc consts  --     23.0387                 5.5555                 6.2131
 IR Inten    --    229.4451                34.2707                23.6796

                     55                     56                     57
                      A                      A                      A
 Frequencies --   3152.3110              3170.5287              3184.7090
 Red. masses --      1.1012                 1.0869                 1.0915
 Frc consts  --      6.4472                 6.4376                 6.5227
 IR Inten    --     13.2132                 3.2703                 8.6002

                     58                     59                     60
                      A                      A                      A
 Frequencies --   3198.9606              3201.6983              3204.0963
 Red. masses --      1.0926                 1.0952                 1.0906
 Frc consts  --      6.5876                 6.6148                 6.5969
 IR Inten    --      0.3978                10.8606                 3.1702

 - Thermochemistry -
 -------------------
 Temperature   298.150 Kelvin.  Pressure   1.00000 Atm.
 Atom     1 has atomic number  6 and mass  12.00000

 Molecular mass:   188.04734 amu.
 Principal axes and moments of inertia in atomic units:
                           1         2         3
     Eigenvalues --  1417.033173257.112774662.61700
           X            0.97994  -0.19929   0.00063
           Y            0.19861   0.97688   0.07907
           Z           -0.01637  -0.07736   0.99687
 This molecule is an asymmetric top.
 Rotational symmetry number  1.
 Warning -- assumption of classical behavior for rotation
           may cause significant error
 Rotational temperatures (Kelvin)      0.06112     0.02659     0.01858
 Rotational constants (GHZ):           1.27361     0.55409     0.38707
 Zero-point vibrational energy     432417.8 (Joules/Mol)
                                  103.35033 (Kcal/Mol)
 Warning -- explicit consideration of  16 degrees of freedom as
           vibrations may cause significant error
 Vibrational temperatures:     65.89   164.75   173.65   226.47   272.07
          (Kelvin)            282.85   351.73   393.05   478.96   544.91
                              583.69   646.00   647.18   659.56   722.36
                              780.62   943.47   977.87  1013.67  1031.13
                             1059.71  1133.03  1182.78  1193.62  1249.53
                             1316.54  1348.43  1439.40  1464.08  1503.38
                             1537.62  1586.13  1636.45  1679.60  1702.42
                             1723.62  1779.39  1822.86  1846.51  1904.98
                             1956.25  1972.86  2121.50  2133.39  2147.64
                             2156.31  2166.26  2318.65  2344.44  2373.45
                             2456.56  2513.07  4346.00  4441.16  4535.47
                             4561.68  4582.09  4602.59  4606.53  4609.98

 Zero-point correction=                           0.164699 (Hartree/Particle)
 Thermal correction to Energy=                    0.176007
 Thermal correction to Enthalpy=                  0.176951
 Thermal correction to Gibbs Free Energy=         0.127140
 Sum of electronic and zero-point Energies=           -649.654628
 Sum of electronic and thermal Energies=              -649.643321
 Sum of electronic and thermal Enthalpies=            -649.642377
 Sum of electronic and thermal Free Energies=         -649.692187

                     E (Thermal)             CV                S
                      KCal/Mol        Cal/Mol-Kelvin    Cal/Mol-Kelvin
 Total                  110.446             43.504            104.835
 Electronic               0.000              0.000              0.000
 Translational            0.889              2.981             41.600
 Rotational               0.889              2.981             31.443
 Vibrational            108.668             37.542             31.791
 Vibration     1          0.595              1.979              4.991
 Vibration     2          0.607              1.937              3.191
 Vibration     3          0.609              1.932              3.089
 Vibration     4          0.621              1.894              2.581
 Vibration     5          0.633              1.855              2.237
 Vibration     6          0.636              1.845              2.165
 Vibration     7          0.660              1.772              1.770
 Vibration     8          0.676              1.723              1.576
 Vibration     9          0.715              1.610              1.246
 Vibration    10          0.749              1.515              1.044
 Vibration    11          0.771              1.458              0.942
 Vibration    12          0.808              1.363              0.799
 Vibration    13          0.809              1.361              0.796
 Vibration    14          0.816              1.342              0.771
 Vibration    15          0.857              1.245              0.653
 Vibration    16          0.898              1.156              0.560

                           ! Non-Optimized Parameters !
 Normal termination of Gaussian 16 at Sun Jan  7 20:50:44 2024.
