 Gaussian 16, Revision A.03,
 Gaussian 16:  ES64L-G16RevA.03 25-Dec-2016

 --------------------------------------
 #P UB3LYP/6-311++G(d,p) nosym opt freq
 --------------------------------------

 -------
 Reduced
 -------
 Symbolic Z-matrix:
 Charge = -2 Multiplicity = 1

 SCF Done:  E(UB3LYP) =  -839.384554450     A.U. after   39 cycles
 SCF Done:  E(UB3LYP) =  -839.413175491     A.U. after   34 cycles
 SCF Done:  E(UB3LYP) =  -839.420706809     A.U. after   33 cycles
 SCF Done:  E(UB3LYP) =  -839.421431727     A.U. after   26 cycles
 SCF Done:  E(UB3LYP) =  -839.421693887     A.U. after   22 cycles
 SCF Done:  E(UB3LYP) =  -839.421934251     A.U. after   26 cycles
 SCF Done:  E(UB3LYP) =  -839.422299703     A.U. after   19 cycles
 SCF Done:  E(UB3LYP) =  -839.423142951     A.U. after   25 cycles
 SCF Done:  E(UB3LYP) =  -839.423604522     A.U. after   27 cycles
 SCF Done:  E(UB3LYP) =  -839.423824194     A.U. after   24 cycles
 SCF Done:  E(UB3LYP) =  -839.423850030     A.U. after   25 cycles
 SCF Done:  E(UB3LYP) =  -839.423852206     A.U. after   27 cycles
 SCF Done:  E(UB3LYP) =  -839.423852734     A.U. after   24 cycles
 SCF Done:  E(UB3LYP) =  -839.423852859     A.U. after   19 cycles
 Optimization completed.
    -- Stationary point found.
 Normal termination of Gaussian 16 at Thu Dec 21 21:58:31 2023.

 ----------------------------------------------------------------------
 #P Geom=AllCheck Guess=TCheck SCRF=Check GenChk UB3LYP/6-311++G(d,p) F
 req
 ----------------------------------------------------------------------

 Structure from the checkpoint file:  "188-an.chk"
 -------
 Reduced
 -------
 Charge = -2 Multiplicity = 1

                          Input orientation:
 ---------------------------------------------------------------------
 Center     Atomic      Atomic             Coordinates (Angstroms)
 Number     Number       Type             X           Y           Z
 ---------------------------------------------------------------------
      1          8           0        5.074934   -0.273933   -0.430626
      2          6           0        3.732803    0.107981   -0.253783
      3          6           0        3.483251    1.474554    0.020791
      4          6           0        2.176160    1.884529    0.202255
      5          6           0        1.077056    0.996792    0.129141
      6          6           0       -0.267759    1.512439    0.327505
      7          8           0       -0.500076    2.748585    0.568828
      8          6           0       -1.315721    0.518338    0.227156
      9          6           0       -2.668122    0.915369    0.418204
     10          6           0       -3.700837    0.018557    0.311229
     11          8           0       -5.019388    0.456932    0.475108
     12          6           0       -3.437701   -1.350198    0.038762
     13          6           0       -2.131303   -1.767713   -0.117216
     14          6           0       -1.036135   -0.874018   -0.051919
     15          6           0        0.305620   -1.386833   -0.257189
     16          8           0        0.552164   -2.622972   -0.506706
     17          6           0        1.348809   -0.395038   -0.151981
     18          6           0        2.702377   -0.792319   -0.337110
     19          1           0        5.062708   -1.221363   -0.599503
     20          1           0        4.315610    2.169507    0.082755
     21          1           0        1.943274    2.923719    0.412871
     22          1           0       -2.859018    1.957577    0.648110
     23          1           0       -5.550082   -0.294420    0.780758
     24          1           0       -4.265176   -2.051341   -0.056117
     25          1           0       -1.898441   -2.807848   -0.321753
     26          1           0        2.874994   -1.846880   -0.546816
 ---------------------------------------------------------------------

 SCF Done:  E(UB3LYP) =  -839.423852859     A.U. after    2 cycles

 Alpha  occ. eigenvalues --  -18.94472 -18.92479 -18.79388 -18.79336 -10.00026
 Alpha  occ. eigenvalues --   -9.98806  -9.95218  -9.95111  -9.94139  -9.93719
 Alpha  occ. eigenvalues --   -9.93685  -9.93207  -9.93184  -9.92045  -9.91859
 Alpha  occ. eigenvalues --   -9.91625  -9.91472  -9.91370  -0.84445  -0.82476
 Alpha  occ. eigenvalues --   -0.71229  -0.70833  -0.61067  -0.60190  -0.53263
 Alpha  occ. eigenvalues --   -0.51008  -0.50542  -0.48793  -0.41787  -0.40822
 Alpha  occ. eigenvalues --   -0.38099  -0.35733  -0.33148  -0.31460  -0.29556
 Alpha  occ. eigenvalues --   -0.28203  -0.24697  -0.22820  -0.22701  -0.20374
 Alpha  occ. eigenvalues --   -0.19222  -0.18979  -0.18877  -0.18053  -0.16554
 Alpha  occ. eigenvalues --   -0.16453  -0.15084  -0.14615  -0.13335  -0.12977
 Alpha  occ. eigenvalues --   -0.10850  -0.10730  -0.09895  -0.09254  -0.07988
 Alpha  occ. eigenvalues --   -0.06402  -0.01336  -0.00289   0.00899   0.01750
 Alpha  occ. eigenvalues --    0.02748   0.03386   0.12690
 Alpha virt. eigenvalues --    0.14505   0.15399   0.16981   0.17876   0.19235
 Alpha virt. eigenvalues --    0.19826   0.20744   0.21179   0.22105   0.22757
 Alpha virt. eigenvalues --    0.23614   0.24616   0.25214   0.25236   0.25767

  Beta  occ. eigenvalues --  -18.94472 -18.92479 -18.79388 -18.79336 -10.00026
  Beta  occ. eigenvalues --   -9.98806  -9.95218  -9.95111  -9.94139  -9.93719
  Beta  occ. eigenvalues --   -9.93685  -9.93207  -9.93184  -9.92045  -9.91859
  Beta  occ. eigenvalues --   -9.91625  -9.91472  -9.91370  -0.84445  -0.82476
  Beta  occ. eigenvalues --   -0.71229  -0.70833  -0.61067  -0.60190  -0.53263
  Beta  occ. eigenvalues --   -0.51008  -0.50542  -0.48793  -0.41787  -0.40822
  Beta  occ. eigenvalues --   -0.38099  -0.35733  -0.33148  -0.31460  -0.29556
  Beta  occ. eigenvalues --   -0.28203  -0.24697  -0.22820  -0.22701  -0.20374
  Beta  occ. eigenvalues --   -0.19222  -0.18979  -0.18877  -0.18053  -0.16554
  Beta  occ. eigenvalues --   -0.16453  -0.15084  -0.14615  -0.13335  -0.12977
  Beta  occ. eigenvalues --   -0.10850  -0.10730  -0.09895  -0.09254  -0.07988
  Beta  occ. eigenvalues --   -0.06402  -0.01336  -0.00289   0.00899   0.01750
  Beta  occ. eigenvalues --    0.02748   0.03386   0.12690
  Beta virt. eigenvalues --    0.14505   0.15399   0.16981   0.17876   0.19235
  Beta virt. eigenvalues --    0.19826   0.20744   0.21179   0.22105   0.22757
  Beta virt. eigenvalues --    0.23614   0.24616   0.25214   0.25236   0.25767

 Mulliken charges and spin densities:
               1          2
     1  O   -0.307244  -0.000000
     2  C   -0.564682  -0.000000
     3  C   -0.117139  -0.000000
     4  C    0.105415  -0.000000
     5  C    0.346298  -0.000000
     6  C   -0.817501  -0.000000
     7  O   -0.481811  -0.000000
     8  C    0.697998  -0.000000
     9  C    0.481701  -0.000001
    10  C    0.092600  -0.000001
    11  O   -0.343228   0.000000
    12  C   -0.513719   0.000001
    13  C   -0.267429   0.000000
    14  C    0.265496  -0.000000
    15  C   -0.797471   0.000000
    16  O   -0.497857  -0.000000
    17  C    0.570481  -0.000000
    18  C    0.003330  -0.000000
    19  H    0.239062   0.000000
    20  H    0.117678   0.000000
    21  H    0.140746  -0.000000
    22  H    0.167284  -0.000000
    23  H   -0.335592   0.000001
    24  H   -0.461084   0.000001
    25  H    0.178362  -0.000000
    26  H    0.098303   0.000000
 Sum of Mulliken charges =  -2.00000  -0.00000

 Dipole moment (field-independent basis, Debye):
    X=              6.7165    Y=             -1.0045    Z=             -1.4429  Tot=              6.9428
 Quadrupole moment (field-independent basis, Debye-Ang):
   XX=           -218.8657   YY=           -159.7273   ZZ=           -121.0858
   XY=             -6.2038   XZ=             10.2798   YZ=             -5.5511

  Exact polarizability:1612.302 303.147 466.221-199.998  26.052 183.140
 Approx polarizability:5112.017 976.714 771.480-711.496 -67.651 315.106

                      1                      2                      3
                      A                      A                      A
 Frequencies --     44.8931                98.6996               118.3783
 Red. masses --      8.7408                 4.4760                 6.4704
 Frc consts  --      0.0104                 0.0257                 0.0534
 IR Inten    --      0.9028                 0.7114                 3.1125

                      4                      5                      6
                      A                      A                      A
 Frequencies --    157.5429               170.0301               189.6331
 Red. masses --      7.7865                 6.7425                 4.5653
 Frc consts  --      0.1139                 0.1148                 0.0967
 IR Inten    --      9.2728                 2.5192                 7.4090

                      7                      8                      9
                      A                      A                      A
 Frequencies --    243.1011               256.8475               276.5706
 Red. masses --      8.1758                 1.3144                 1.1292
 Frc consts  --      0.2847                 0.0511                 0.0509
 IR Inten    --      0.3271                63.4905                94.6317

                     10                     11                     12
                      A                      A                      A
 Frequencies --    295.4388               317.8291               335.4012
 Red. masses --      4.0256                 8.6192                 6.3634
 Frc consts  --      0.2070                 0.5130                 0.4218
 IR Inten    --     18.0216                28.3001                 7.8839

                     13                     14                     15
                      A                      A                      A
 Frequencies --    350.0890               384.1926               396.9285
 Red. masses --     10.3860                 6.8359                 5.2624
 Frc consts  --      0.7500                 0.5945                 0.4885
 IR Inten    --      5.7638                45.4312                62.5193

                     16                     17                     18
                      A                      A                      A
 Frequencies --    429.0942               450.7312               459.5067
 Red. masses --      3.2895                 7.5340                 5.8032
 Frc consts  --      0.3569                 0.9018                 0.7219
 IR Inten    --      8.4712                16.4546               172.2745

                     19                     20                     21
                      A                      A                      A
 Frequencies --    469.9699               486.4860               538.6032
 Red. masses --      3.2104                 9.5380                 6.8111
 Frc consts  --      0.4178                 1.3300                 1.1641
 IR Inten    --     10.9759               321.4565                17.5775

                     22                     23                     24
                      A                      A                      A
 Frequencies --    552.5812               637.5589               645.0968
 Red. masses --      3.7058                 6.5842                 4.1741
 Frc consts  --      0.6667                 1.5769                 1.0235
 IR Inten    --     15.8852                37.2977                 6.8651

                     25                     26                     27
                      A                      A                      A
 Frequencies --    657.5285               699.2794               703.7774
 Red. masses --      6.7666                 6.2927                 3.5397
 Frc consts  --      1.7237                 1.8130                 1.0330
 IR Inten    --      1.5186                 6.9467                 6.8181

                     28                     29                     30
                      A                      A                      A
 Frequencies --    720.6255               724.5256               741.9789
 Red. masses --      3.6832                 5.9828                 1.6465
 Frc consts  --      1.1269                 1.8504                 0.5341
 IR Inten    --     32.3200                21.8707                41.5076

                     31                     32                     33
                      A                      A                      A
 Frequencies --    770.2884               790.9197               822.7695
 Red. masses --      1.8292                 7.1569                 4.1988
 Frc consts  --      0.6395                 2.6378                 1.6747
 IR Inten    --     60.5060               373.6730                 8.4892

                     34                     35                     36
                      A                      A                      A
 Frequencies --    876.3396               878.3190               909.5892
 Red. masses --      1.5626                 7.2119                 1.4370
 Frc consts  --      0.7071                 3.2780                 0.7005
 IR Inten    --     21.1197                19.0726                14.5107

                     37                     38                     39
                      A                      A                      A
 Frequencies --    962.0311               966.5850               972.2551
 Red. masses --      1.3174                 1.3212                 2.6200
 Frc consts  --      0.7184                 0.7273                 1.4592
 IR Inten    --     41.0740                 9.7087                16.9142

                     40                     41                     42
                      A                      A                      A
 Frequencies --    980.0992              1082.5559              1102.1492
 Red. masses --      3.8475                 2.3902                 1.7850
 Frc consts  --      2.1776                 1.6504                 1.2775
 IR Inten    --    331.0823                40.6230               190.9115

                     43                     44                     45
                      A                      A                      A
 Frequencies --   1114.0855              1127.1317              1160.1259
 Red. masses --      1.6698                 1.9578                 1.7767
 Frc consts  --      1.2211                 1.4654                 1.4089
 IR Inten    --     23.8641               728.7650               152.0293

                     46                     47                     48
                      A                      A                      A
 Frequencies --   1179.3895              1200.2673              1205.0760
 Red. masses --      1.5634                 1.7952                 1.6882
 Frc consts  --      1.2812                 1.5237                 1.4445
 IR Inten    --     45.3403               342.6876                98.9384

                     49                     50                     51
                      A                      A                      A
 Frequencies --   1217.2732              1235.4070              1257.6481
 Red. masses --      7.2019                 2.6489                 2.2544
 Frc consts  --      6.2874                 2.3820                 2.1009
 IR Inten    --    222.9321               133.7654               422.8668

                     52                     53                     54
                      A                      A                      A
 Frequencies --   1332.8093              1341.8453              1355.1580
 Red. masses --      3.1474                 3.4945                 6.4570
 Frc consts  --      3.2941                 3.7072                 6.9865
 IR Inten    --    304.8819               395.2539                 5.3177

                     55                     56                     57
                      A                      A                      A
 Frequencies --   1378.3178              1445.2956              1461.1871
 Red. masses --      3.3341                 3.4835                 5.9581
 Frc consts  --      3.7319                 4.2873                 7.4950
 IR Inten    --    720.1269               500.2423                77.2265

                     58                     59                     60
                      A                      A                      A
 Frequencies --   1476.7082              1488.9102              1491.6503
 Red. masses --      3.7871                 5.1857                 5.1571
 Frc consts  --      4.8657                 6.7733                 6.7607
 IR Inten    --   2659.9994               605.8755               142.5394

                     61                     62                     63
                      A                      A                      A
 Frequencies --   1544.8110              1574.7168              1608.9275
 Red. masses --      5.5670                 6.7646                 6.6569
 Frc consts  --      7.8275                 9.8832                10.1530
 IR Inten    --     13.9247               909.5758              1720.7873

                     64                     65                     66
                      A                      A                      A
 Frequencies --   1615.4765              3110.8479              3119.6466
 Red. masses --      5.6942                 1.0877                 1.0884
 Frc consts  --      8.7556                 6.2017                 6.2410
 IR Inten    --    163.7787                86.9518               123.5926

                     67                     68                     69
                      A                      A                      A
 Frequencies --   3139.5726              3163.3856              3164.0770
 Red. masses --      1.0860                 1.0906                 1.0923
 Frc consts  --      6.3070                 6.4299                 6.4427
 IR Inten    --     55.2234                16.8014               119.3153

                     70                     71                     72
                      A                      A                      A
 Frequencies --   3178.4362              3663.9236              3829.3161
 Red. masses --      1.0891                 1.0657                 1.0654
 Frc consts  --      6.4824                 8.4294                 9.2048
 IR Inten    --     14.9134              2457.4937                25.9659

 - Thermochemistry -
 -------------------
 Temperature   298.150 Kelvin.  Pressure   1.00000 Atm.
 Atom     1 has atomic number  8 and mass  15.99491

 Molecular mass:   240.04226 amu.
 Principal axes and moments of inertia in atomic units:
                           1         2         3
     Eigenvalues --  1805.164486890.507918694.53017
           X            0.99653  -0.03028   0.07758
           Y            0.04393   0.98253  -0.18087
           Z           -0.07075   0.18365   0.98044
 This molecule is an asymmetric top.
 Rotational symmetry number  1.
 Warning -- assumption of classical behavior for rotation
           may cause significant error
 Rotational temperatures (Kelvin)      0.04798     0.01257     0.00996
 Rotational constants (GHZ):           0.99977     0.26192     0.20757
 Zero-point vibrational energy     477598.6 (Joules/Mol)
                                  114.14879 (Kcal/Mol)
 Warning -- explicit consideration of  22 degrees of freedom as
           vibrations may cause significant error
 Vibrational temperatures:     64.59   142.01   170.32   226.67   244.64
          (Kelvin)            272.84   349.77   369.55   397.92   425.07
                              457.29   482.57   503.70   552.77   571.09
                              617.37   648.50   661.13   676.18   699.94
                              774.93   795.04   917.31   928.15   946.04
                             1006.11  1012.58  1036.82  1042.43  1067.54
                             1108.27  1137.96  1183.78  1260.86  1263.71
                             1308.70  1384.15  1390.70  1398.86  1410.14
                             1557.56  1585.75  1602.92  1621.69  1669.16
                             1696.88  1726.92  1733.84  1751.38  1777.48
                             1809.48  1917.62  1930.62  1949.77  1983.09
                             2079.46  2102.32  2124.65  2142.21  2146.15
                             2222.64  2265.67  2314.89  2324.31  4475.82
                             4488.48  4517.14  4551.41  4552.40  4573.06
                             5271.57  5509.53

 Zero-point correction=                           0.181908 (Hartree/Particle)
 Thermal correction to Energy=                    0.195934
 Thermal correction to Enthalpy=                  0.196878
 Thermal correction to Gibbs Free Energy=         0.141683
 Sum of electronic and zero-point Energies=           -839.241945
 Sum of electronic and thermal Energies=              -839.227919
 Sum of electronic and thermal Enthalpies=            -839.226975
 Sum of electronic and thermal Free Energies=         -839.282169

                     E (Thermal)             CV                S
                      KCal/Mol        Cal/Mol-Kelvin    Cal/Mol-Kelvin
 Total                  122.950             56.772            116.166
 Electronic               0.000              0.000              0.000
 Translational            0.889              2.981             42.328
 Rotational               0.889              2.981             33.047
 Vibrational            121.173             50.811             40.791
 Vibration     1          0.595              1.979              5.031
 Vibration     2          0.604              1.950              3.480
 Vibration     3          0.609              1.934              3.127
 Vibration     4          0.621              1.894              2.579
 Vibration     5          0.625              1.879              2.435
 Vibration     6          0.633              1.854              2.231
 Vibration     7          0.659              1.774              1.780
 Vibration     8          0.666              1.751              1.683
 Vibration     9          0.678              1.717              1.555
 Vibration    10          0.690              1.682              1.443
 Vibration    11          0.704              1.640              1.321
 Vibration    12          0.717              1.605              1.234
 Vibration    13          0.727              1.575              1.166
 Vibration    14          0.753              1.504              1.023
 Vibration    15          0.763              1.477              0.974
 Vibration    16          0.790              1.407              0.862
 Vibration    17          0.810              1.359              0.794
 Vibration    18          0.817              1.340              0.768
 Vibration    19          0.827              1.317              0.738
 Vibration    20          0.842              1.280              0.693
 Vibration    21          0.894              1.165              0.568
 Vibration    22          0.908              1.134              0.539

 Optimization completed.
    -- Stationary point found.
 Normal termination of Gaussian 16 at Thu Dec 21 22:59:25 2023.
