 Gaussian 16, Revision A.03,
 Gaussian 16:  ES64L-G16RevA.03 25-Dec-2016

 --------------------------------------
 #P UB3LYP/6-311++G(d,p) nosym opt freq
 --------------------------------------

 -------
 Radical
 -------
 Symbolic Z-matrix:
 Charge = -1 Multiplicity = 2

 SCF Done:  E(UB3LYP) =  -5685.99817033     A.U. after   22 cycles
 SCF Done:  E(UB3LYP) =  -5686.02136331     A.U. after   18 cycles
 SCF Done:  E(UB3LYP) =  -5686.02487207     A.U. after   16 cycles
 SCF Done:  E(UB3LYP) =  -5686.02639894     A.U. after   16 cycles
 SCF Done:  E(UB3LYP) =  -5686.02798182     A.U. after   16 cycles
 SCF Done:  E(UB3LYP) =  -5686.02843237     A.U. after   16 cycles
 SCF Done:  E(UB3LYP) =  -5686.02990171     A.U. after   16 cycles
 SCF Done:  E(UB3LYP) =  -5686.03019301     A.U. after   16 cycles
 SCF Done:  E(UB3LYP) =  -5686.03036542     A.U. after   15 cycles
 SCF Done:  E(UB3LYP) =  -5686.03039922     A.U. after   15 cycles
 SCF Done:  E(UB3LYP) =  -5686.03041845     A.U. after   14 cycles
 SCF Done:  E(UB3LYP) =  -5686.03041997     A.U. after   11 cycles
 Optimization completed.
    -- Stationary point found.
 Normal termination of Gaussian 16 at Sun Dec 17 22:01:19 2023.

 ----------------------------------------------------------------------
 #P Geom=AllCheck Guess=TCheck SCRF=Check GenChk UB3LYP/6-311++G(d,p) F
 req
 ----------------------------------------------------------------------

 Structure from the checkpoint file:  "015-rad.chk"
 -------
 Radical
 -------
 Charge = -1 Multiplicity = 2

                          Input orientation:
 ---------------------------------------------------------------------
 Center     Atomic      Atomic             Coordinates (Angstroms)
 Number     Number       Type             X           Y           Z
 ---------------------------------------------------------------------
      1          6           0       -1.820066    0.308312   -1.085690
      2          6           0       -1.179935    0.139164    0.313656
      3          6           0       -1.879868   -1.045653    1.007114
      4          6           0       -1.449665    1.405309    1.162710
      5          6           0        0.338059   -0.083822    0.171727
      6          6           0        0.948186   -1.221360    0.626000
      7          6           0        2.364446   -1.511565    0.533552
      8          8           0        2.848807   -2.580584    0.974461
      9          6           0        3.156262   -0.469647   -0.105828
     10          6           0        2.576424    0.684063   -0.572964
     11         35           0        3.604320    2.069167   -1.418419
     12          6           0        1.143352    0.962110   -0.472408
     13          8           0        0.651369    2.029645   -0.912445
     14         35           0        5.037015   -0.824621   -0.243351
     15          1           0       -2.900805    0.468746   -0.988167
     16          1           0       -1.665104   -0.592576   -1.688399
     17          1           0       -1.381430    1.157223   -1.608558
     18          1           0       -1.760653   -1.976648    0.445461
     19          1           0       -2.952125   -0.836156    1.082118
     20          1           0       -1.500282   -1.208375    2.019943
     21          1           0       -1.030601    1.288035    2.167448
     22          1           0       -2.529809    1.567736    1.263253
     23          1           0       -1.000950    2.282327    0.698104
     24          1           0        0.383052   -2.010830    1.104994
 ---------------------------------------------------------------------

 SCF Done:  E(UB3LYP) =  -5686.03041997     A.U. after    1 cycles

 Alpha  occ. eigenvalues -- -482.70380-482.70323 -62.35656 -62.35599 -56.17685
 Alpha  occ. eigenvalues --  -56.17629 -56.17325 -56.17280 -56.17268 -56.17222
 Alpha  occ. eigenvalues --  -18.95683 -18.95563 -10.11170 -10.10740 -10.10477
 Alpha  occ. eigenvalues --  -10.10334 -10.08355 -10.06195 -10.05925 -10.04773
 Alpha  occ. eigenvalues --  -10.04766 -10.04712  -8.56621  -8.56565  -6.39746
 Alpha  occ. eigenvalues --   -6.39691  -6.38533  -6.38477  -6.38400  -6.38341
 Alpha  occ. eigenvalues --   -2.50846  -2.50790  -2.50521  -2.50467  -2.50420
 Alpha  occ. eigenvalues --   -2.50363  -2.49453  -2.49451  -2.49394  -2.49392
 Alpha  occ. eigenvalues --   -0.88674  -0.88145  -0.73675  -0.71823  -0.66660
 Alpha  occ. eigenvalues --   -0.66436  -0.59475  -0.58458  -0.57726  -0.55875
 Alpha  occ. eigenvalues --   -0.48576  -0.45617  -0.41932  -0.37658  -0.36036
 Alpha  occ. eigenvalues --   -0.33558  -0.33028  -0.32190  -0.30702  -0.30591
 Alpha  occ. eigenvalues --   -0.28452  -0.28243  -0.27723  -0.26623  -0.26454
 Alpha  occ. eigenvalues --   -0.25102  -0.25074  -0.22996  -0.22963  -0.22069
 Alpha  occ. eigenvalues --   -0.21021  -0.17808  -0.17741  -0.15585  -0.15048
 Alpha  occ. eigenvalues --   -0.12331  -0.12252  -0.11594  -0.04237
 Alpha virt. eigenvalues --    0.07537   0.08039   0.09812   0.09870   0.10334
 Alpha virt. eigenvalues --    0.10646   0.11312   0.12673   0.12721   0.12744
 Alpha virt. eigenvalues --    0.13381   0.13767   0.14292   0.14529   0.15293

  Beta  occ. eigenvalues -- -482.70379-482.70322 -62.35654 -62.35598 -56.17687
  Beta  occ. eigenvalues --  -56.17631 -56.17319 -56.17280 -56.17263 -56.17222
  Beta  occ. eigenvalues --  -18.94987 -18.94822 -10.11048 -10.10659 -10.10341
  Beta  occ. eigenvalues --  -10.10177 -10.08361 -10.06109 -10.05926 -10.04768
  Beta  occ. eigenvalues --  -10.04761 -10.04606  -8.56619  -8.56563  -6.39749
  Beta  occ. eigenvalues --   -6.39694  -6.38522  -6.38468  -6.38400  -6.38340
  Beta  occ. eigenvalues --   -2.50847  -2.50791  -2.50516  -2.50463  -2.50422
  Beta  occ. eigenvalues --   -2.50365  -2.49447  -2.49445  -2.49389  -2.49388
  Beta  occ. eigenvalues --   -0.87488  -0.86875  -0.73220  -0.71725  -0.66516
  Beta  occ. eigenvalues --   -0.66177  -0.59294  -0.58389  -0.57708  -0.54977
  Beta  occ. eigenvalues --   -0.48249  -0.45252  -0.41707  -0.37468  -0.35875
  Beta  occ. eigenvalues --   -0.33502  -0.32711  -0.32119  -0.30331  -0.29685
  Beta  occ. eigenvalues --   -0.28037  -0.27457  -0.27374  -0.26393  -0.26116
  Beta  occ. eigenvalues --   -0.24821  -0.23177  -0.22858  -0.22603  -0.22017
  Beta  occ. eigenvalues --   -0.19951  -0.17701  -0.17369  -0.14991  -0.12783
  Beta  occ. eigenvalues --   -0.11584  -0.11550  -0.10981
  Beta virt. eigenvalues --    0.02907   0.07540   0.08138   0.09873   0.09989
  Beta virt. eigenvalues --    0.10658   0.11369   0.11388   0.12698   0.12750
  Beta virt. eigenvalues --    0.13004   0.13404   0.13792   0.14557   0.15136

 Mulliken charges and spin densities:
               1          2
     1  C   -0.684635   0.011116
     2  C    0.664804  -0.033462
     3  C   -0.507094   0.001217
     4  C   -0.685040   0.011116
     5  C    1.354900   0.092792
     6  C   -0.400075   0.067899
     7  C   -0.985950   0.056991
     8  O   -0.318836   0.268843
     9  C    0.831626   0.123707
    10  C   -0.321710   0.075137
    11  Br  -0.175416   0.004688
    12  C   -0.767576   0.067186
    13  O   -0.280128   0.256077
    14  Br  -0.167957   0.006516
    15  H    0.118100   0.000313
    16  H    0.116361   0.000598
    17  H    0.200657  -0.001431
    18  H    0.123107  -0.000438
    19  H    0.143718   0.000083
    20  H    0.122997  -0.000440
    21  H    0.116329   0.000594
    22  H    0.118081   0.000314
    23  H    0.200704  -0.001430
    24  H    0.183034  -0.007986
 Sum of Mulliken charges =  -1.00000   1.00000

 Dipole moment (field-independent basis, Debye):
    X=            -11.3263    Y=              0.3752    Z=              0.7952  Tot=             11.3603
 Quadrupole moment (field-independent basis, Debye-Ang):
   XX=           -157.8398   YY=           -139.7778   ZZ=           -119.4450
   XY=             10.5206   XZ=             -0.0614   YZ=             10.7324

  Exact polarizability: 236.006 -16.510 193.387 -11.447 -34.074 136.485
 Approx polarizability: 316.281 -45.301 341.395  -0.354 -71.112 215.089

                      1                      2                      3
                      A                      A                      A
 Frequencies --     48.4884                49.5725                86.9560
 Red. masses --      5.1903                 5.6963                 5.9169
 Frc consts  --      0.0072                 0.0082                 0.0264
 IR Inten    --      3.9241                 0.1843                 0.0690

                      4                      5                      6
                      A                      A                      A
 Frequencies --    131.2524               144.0204               159.2257
 Red. masses --     38.9957                 6.8338                 5.1266
 Frc consts  --      0.3958                 0.0835                 0.0766
 IR Inten    --      0.5528                 2.3216                 5.4918

                      7                      8                      9
                      A                      A                      A
 Frequencies --    211.9647               219.4867               234.6282
 Red. masses --      7.4705                 2.6123                 1.4797
 Frc consts  --      0.1978                 0.0741                 0.0480
 IR Inten    --      0.8148                 0.1128                 0.2021

                     10                     11                     12
                      A                      A                      A
 Frequencies --    246.7179               268.7148               276.6512
 Red. masses --      2.5767                 1.8373                 3.9357
 Frc consts  --      0.0924                 0.0782                 0.1775
 IR Inten    --      0.0846                 0.0555                 0.9586

                     13                     14                     15
                      A                      A                      A
 Frequencies --    290.8468               305.4862               329.8258
 Red. masses --      3.4733                 3.1690                 1.0469
 Frc consts  --      0.1731                 0.1742                 0.0671
 IR Inten    --      0.0626                 0.5538                 0.0697

                     16                     17                     18
                      A                      A                      A
 Frequencies --    349.7252               374.6648               417.6634
 Red. masses --      5.8550                 2.7479                 2.6346
 Frc consts  --      0.4219                 0.2273                 0.2708
 IR Inten    --      8.2244                 0.1731                 0.8306

                     19                     20                     21
                      A                      A                      A
 Frequencies --    429.1680               477.5171               500.2295
 Red. masses --      4.9907                 6.0379                 5.1810
 Frc consts  --      0.5416                 0.8112                 0.7638
 IR Inten    --      0.0003                 0.0606                20.9562

                     22                     23                     24
                      A                      A                      A
 Frequencies --    539.6786               575.9063               680.8367
 Red. masses --      4.5810                 4.5830                 6.3537
 Frc consts  --      0.7861                 0.8956                 1.7353
 IR Inten    --      0.2693                 6.5932                 3.2199

                     25                     26                     27
                      A                      A                      A
 Frequencies --    688.3570               738.8933               762.8963
 Red. masses --      5.5997                 7.0923                 8.3825
 Frc consts  --      1.5633                 2.2814                 2.8745
 IR Inten    --      1.7058                17.0018                 5.0550

                     28                     29                     30
                      A                      A                      A
 Frequencies --    827.6472               849.2323               884.1444
 Red. masses --      3.4899                 7.1518                 1.5264
 Frc consts  --      1.4085                 3.0389                 0.7030
 IR Inten    --     32.1222                83.7595                14.8345

                     31                     32                     33
                      A                      A                      A
 Frequencies --    926.4137               932.8636               958.9239
 Red. masses --      1.7711                 1.7494                 1.2037
 Frc consts  --      0.8956                 0.8970                 0.6521
 IR Inten    --      0.4643                 4.0529                 0.2398

                     34                     35                     36
                      A                      A                      A
 Frequencies --    968.5730              1038.8559              1049.1138
 Red. masses --      5.1145                 1.5474                 1.3769
 Frc consts  --      2.8269                 0.9839                 0.8929
 IR Inten    --      5.1578                25.9281                 0.0723

                     37                     38                     39
                      A                      A                      A
 Frequencies --   1083.9994              1131.0487              1216.0964
 Red. masses --      2.9592                 8.4872                 2.6824
 Frc consts  --      2.0487                 6.3970                 2.3373
 IR Inten    --    104.8108                22.4263                 4.2888

                     40                     41                     42
                      A                      A                      A
 Frequencies --   1223.4313              1265.5137              1288.2733
 Red. masses --      2.4688                 2.7821                 1.8582
 Frc consts  --      2.1772                 2.6252                 1.8170
 IR Inten    --     12.4420                29.5449                27.5474

                     43                     44                     45
                      A                      A                      A
 Frequencies --   1363.0222              1377.3492              1385.8411
 Red. masses --      3.8860                 1.2099                 1.3576
 Frc consts  --      4.2536                 1.3523                 1.5362
 IR Inten    --     32.6608                11.5606                11.2403

                     46                     47                     48
                      A                      A                      A
 Frequencies --   1412.8180              1466.6361              1472.4886
 Red. masses --      1.2439                 8.2795                 1.0466
 Frc consts  --      1.4629                10.4930                 1.3370
 IR Inten    --     25.5124                 3.8864                 0.1769

                     49                     50                     51
                      A                      A                      A
 Frequencies --   1489.4137              1496.2198              1497.0272
 Red. masses --      1.1634                 1.0462                 1.0632
 Frc consts  --      1.5206                 1.3799                 1.4039
 IR Inten    --     61.3843                 1.0188                 2.3309

                     52                     53                     54
                      A                      A                      A
 Frequencies --   1511.5626              1524.2400              1527.6187
 Red. masses --      1.0512                 3.3855                 2.3684
 Frc consts  --      1.4151                 4.6342                 3.2564
 IR Inten    --      3.8533               152.5746                47.0009

                     55                     56                     57
                      A                      A                      A
 Frequencies --   1535.6648              1616.6857              2998.0814
 Red. masses --      1.9665                 7.4586                 1.0420
 Frc consts  --      2.7324                11.4857                 5.5184
 IR Inten    --    136.7229                44.0659                46.4362

                     58                     59                     60
                      A                      A                      A
 Frequencies --   3002.2323              3014.7194              3056.2238
 Red. masses --      1.0408                 1.0362                 1.0978
 Frc consts  --      5.5270                 5.5488                 6.0412
 IR Inten    --     78.1372                97.3145                28.6992

                     61                     62                     63
                      A                      A                      A
 Frequencies --   3058.3397              3070.9306              3082.8876
 Red. masses --      1.0977                 1.0998                 1.1017
 Frc consts  --      6.0495                 6.1111                 6.1692
 IR Inten    --     25.5091                93.5403                41.6041

                     64                     65                     66
                      A                      A                      A
 Frequencies --   3125.5002              3127.9103              3189.4208
 Red. masses --      1.0970                 1.0964                 1.0880
 Frc consts  --      6.3140                 6.3200                 6.5207
 IR Inten    --      0.1562                10.2852                 9.4565

 - Thermochemistry -
 -------------------
 Temperature   298.150 Kelvin.  Pressure   1.00000 Atm.
 Atom     1 has atomic number  6 and mass  12.00000

 Molecular mass:   319.90475 amu.
 Principal axes and moments of inertia in atomic units:
                           1         2         3
     Eigenvalues --  3090.162126609.494239299.28667
           X            0.98856  -0.03432   0.14686
           Y           -0.03318   0.90042   0.43375
           Z           -0.14712  -0.43366   0.88899
 This molecule is an asymmetric top.
 Rotational symmetry number  1.
 Warning -- assumption of classical behavior for rotation
           may cause significant error
 Rotational temperatures (Kelvin)      0.02803     0.01310     0.00931
 Rotational constants (GHZ):           0.58403     0.27305     0.19407
 Zero-point vibrational energy     458088.0 (Joules/Mol)
                                  109.48567 (Kcal/Mol)
 Warning -- explicit consideration of  23 degrees of freedom as
           vibrations may cause significant error
 Vibrational temperatures:     69.76    71.32   125.11   188.84   207.21
          (Kelvin)            229.09   304.97   315.79   337.58   354.97
                              386.62   398.04   418.46   439.53   474.55
                              503.18   539.06   600.92   617.48   687.04
                              719.72   776.48   828.60   979.57   990.39
                             1063.10  1097.64  1190.80  1221.86  1272.09
                             1332.90  1342.18  1379.68  1393.56  1494.68
                             1509.44  1559.63  1627.33  1749.69  1760.24
                             1820.79  1853.54  1961.08  1981.70  1993.92
                             2032.73  2110.16  2118.58  2142.93  2152.73
                             2153.89  2174.80  2193.04  2197.90  2209.48
                             2326.05  4313.57  4319.54  4337.51  4397.22
                             4400.27  4418.38  4435.59  4496.90  4500.37
                             4588.87

 Zero-point correction=                           0.174477 (Hartree/Particle)
 Thermal correction to Energy=                    0.189065
 Thermal correction to Enthalpy=                  0.190009
 Thermal correction to Gibbs Free Energy=         0.131161
 Sum of electronic and zero-point Energies=          -5685.855943
 Sum of electronic and thermal Energies=             -5685.841355
 Sum of electronic and thermal Enthalpies=           -5685.840411
 Sum of electronic and thermal Free Energies=        -5685.899259

                     E (Thermal)             CV                S
                      KCal/Mol        Cal/Mol-Kelvin    Cal/Mol-Kelvin
 Total                  118.640             53.673            123.857
 Electronic               0.000              0.000              1.377
 Translational            0.889              2.981             43.184
 Rotational               0.889              2.981             33.607
 Vibrational            116.863             47.712             45.688
 Vibration     1          0.595              1.978              4.878
 Vibration     2          0.595              1.978              4.834
 Vibration     3          0.601              1.958              3.727
 Vibration     4          0.612              1.922              2.928
 Vibration     5          0.616              1.909              2.750
 Vibration     6          0.621              1.892              2.559
 Vibration     7          0.643              1.823              2.027
 Vibration     8          0.647              1.811              1.963
 Vibration     9          0.654              1.788              1.843
 Vibration    10          0.661              1.768              1.754
 Vibration    11          0.673              1.731              1.604
 Vibration    12          0.678              1.717              1.554
 Vibration    13          0.687              1.691              1.469
 Vibration    14          0.696              1.663              1.387
 Vibration    15          0.713              1.616              1.261
 Vibration    16          0.727              1.576              1.167
 Vibration    17          0.746              1.524              1.061
 Vibration    18          0.781              1.432              0.900
 Vibration    19          0.791              1.407              0.861
 Vibration    20          0.834              1.300              0.717
 Vibration    21          0.856              1.250              0.658
 Vibration    22          0.895              1.162              0.566
 Vibration    23          0.932              1.083              0.493

                           ! Non-Optimized Parameters !
 Normal termination of Gaussian 16 at Sun Dec 17 22:47:09 2023.
