 Q-Chem 5.4, Q-Chem, Inc., Pleasanton, CA (2021)
 Q-Chem 5.4.0 for Intel X86 EM64T Linux

User input:
--------------------------------------------------------------
$molecule
-1 2
C                 -2.7481820000     -1.6291090000      0.0446460000
O                 -2.2479190000     -0.6505660000     -0.8705430000
C                 -1.2057720000      0.1164790000     -0.4214510000
C                 -1.3432270000      1.4794800000     -0.3322090000
Br                -3.0341910000      2.2914930000     -0.7437920000
C                 -0.2716220000      2.3881410000      0.0615440000
O                 -0.4120570000      3.6226960000      0.1363030000
C                  0.9814470000      1.7021090000      0.3587320000
C                  1.1535930000      0.3422440000      0.2834350000
O                  2.3469080000     -0.2202210000      0.6518800000
C                  3.0409400000     -0.9451080000     -0.3670950000
C                  0.0611300000     -0.5376440000     -0.1153210000
O                  0.2034690000     -1.7885110000     -0.1909650000
Br                 2.4532800000      2.8169740000      0.8866660000
H                 -3.1430640000     -1.1407490000      0.9441460000
H                 -3.5643480000     -2.1337400000     -0.4753900000
H                 -1.9696270000     -2.3447830000      0.3118160000
H                  3.9565750000     -1.3125340000      0.0996380000
H                  2.4388880000     -1.7798790000     -0.7282380000
H                  3.3037810000     -0.2767710000     -1.1963830000
$end

$rem
BASIS  =  6-311++G(d,p)
GUI  =  2
JOB_TYPE  =  SP
METHOD  =  B3LYP
SCF_CONVERGENCE  = 8
SOLVENT_METHOD = sm12
$end

$smx
solvent dimethylformamide
charges CM5
$end

--------------------------------------------------------------

             Standard Nuclear Orientation (Angstroms)
    I     Atom           X                Y                Z
 ----------------------------------------------------------------
    1      C      -2.7481820000    -1.6291090000     0.0446460000
    2      O      -2.2479190000    -0.6505660000    -0.8705430000
    3      C      -1.2057720000     0.1164790000    -0.4214510000
    4      C      -1.3432270000     1.4794800000    -0.3322090000
    5      Br     -3.0341910000     2.2914930000    -0.7437920000
    6      C      -0.2716220000     2.3881410000     0.0615440000
    7      O      -0.4120570000     3.6226960000     0.1363030000
    8      C       0.9814470000     1.7021090000     0.3587320000
    9      C       1.1535930000     0.3422440000     0.2834350000
   10      O       2.3469080000    -0.2202210000     0.6518800000
   11      C       3.0409400000    -0.9451080000    -0.3670950000
   12      C       0.0611300000    -0.5376440000    -0.1153210000
   13      O       0.2034690000    -1.7885110000    -0.1909650000
   14      Br      2.4532800000     2.8169740000     0.8866660000
   15      H      -3.1430640000    -1.1407490000     0.9441460000
   16      H      -3.5643480000    -2.1337400000    -0.4753900000
   17      H      -1.9696270000    -2.3447830000     0.3118160000
   18      H       3.9565750000    -1.3125340000     0.0996380000
   19      H       2.4388880000    -1.7798790000    -0.7282380000
   20      H       3.3037810000    -0.2767710000    -1.1963830000
 ----------------------------------------------------------------

   17   -5757.8344813715      5.80e-09  Convergence criterion met
 Total energy in the final basis set =    -5757.9070953030

                    Orbital Energies (a.u.)
 --------------------------------------------------------------

 Alpha MOs
 -- Occupied --
********-482.8191 -62.4717 -62.4717 -56.2922 -56.2922 -56.2885 -56.2885
-56.2881 -56.2881 -19.1421 -19.1421 -19.0849 -19.0807 -10.2399 -10.2334
-10.2334 -10.2316 -10.2169 -10.2169 -10.2120 -10.2120  -8.6803  -8.6803
 -6.5117  -6.5116  -6.4993  -6.4993  -6.4981  -6.4980  -2.6225  -2.6225
 -2.6193  -2.6192  -2.6185  -2.6183  -2.6084  -2.6084  -2.6084  -2.6084
 -1.0633  -1.0576  -1.0122  -1.0018  -0.8480  -0.8132  -0.7702  -0.7365
 -0.7110  -0.6694  -0.6686  -0.5836  -0.5778  -0.5243  -0.5130  -0.4843
 -0.4706  -0.4578  -0.4502  -0.4356  -0.4297  -0.4150  -0.4116  -0.3871
 -0.3823  -0.3793  -0.3614  -0.3514  -0.3221  -0.3088  -0.2980  -0.2965
 -0.2767  -0.2734  -0.2634  -0.2466  -0.2393  -0.2295  -0.1663

 Beta MOs
 -- Occupied --
********-482.8191 -62.4717 -62.4717 -56.2922 -56.2922 -56.2885 -56.2885
-56.2881 -56.2881 -19.1419 -19.1419 -19.0774 -19.0741 -10.2390 -10.2324
-10.2323 -10.2300 -10.2157 -10.2157 -10.2119 -10.2119  -8.6803  -8.6803
 -6.5117  -6.5117  -6.4992  -6.4992  -6.4981  -6.4980  -2.6225  -2.6225
 -2.6192  -2.6191  -2.6185  -2.6183  -2.6084  -2.6084  -2.6083  -2.6083
 -1.0616  -1.0569  -1.0010  -0.9894  -0.8432  -0.8120  -0.7678  -0.7355
 -0.7082  -0.6675  -0.6614  -0.5803  -0.5744  -0.5224  -0.5114  -0.4833
 -0.4656  -0.4563  -0.4472  -0.4336  -0.4277  -0.4076  -0.3991  -0.3829
 -0.3780  -0.3599  -0.3592  -0.3442  -0.3195  -0.2969  -0.2956  -0.2918
 -0.2765  -0.2724  -0.2429  -0.2404  -0.2335  -0.2242

          Ground-State Mulliken Net Atomic Charges

     Atom                 Charge (a.u.)    Spin (a.u.)
  --------------------------------------------------------
      1 C                    -0.050656       0.001911
      2 O                    -0.059536       0.000281
      3 C                    -0.567444       0.082991
      4 C                     1.327842       0.083601
      5 Br                    0.098560       0.006859
      6 C                    -1.912640       0.046005
      7 O                    -0.242140       0.242432
      8 C                     1.302799       0.083726
      9 C                    -0.548338       0.082894
     10 O                    -0.061124       0.000256
     11 C                    -0.050764       0.001829
     12 C                    -0.984523       0.085261
     13 O                    -0.327913       0.274810
     14 Br                    0.100488       0.006836
     15 H                     0.120845       0.000476
     16 H                     0.233341       0.000415
     17 H                     0.133452      -0.000753
     18 H                     0.233108       0.000402
     19 H                     0.133563      -0.000733
     20 H                     0.121080       0.000500
  --------------------------------------------------------
  Sum of atomic charges =    -1.000000

                    Cartesian Multipole Moments
 -----------------------------------------------------------------
    Charge (ESU x 10^10)
                -4.8032
    Dipole Moment (Debye)
         X       0.8902      Y      -7.8137      Z      -0.0726
       Tot       7.8645
    Quadrupole Moments (Debye-Ang)
        XX    -118.8070     XY       4.1872     YY    -149.9907
        XZ      -9.1222     YZ      -2.6306     ZZ    -113.2832

 Total job time:  369.07s(wall), 2724.59s(cpu)
        *  Thank you very much for using Q-Chem.  Have a nice day.  *
