 Q-Chem 5.4, Q-Chem, Inc., Pleasanton, CA (2021)
 Q-Chem 5.4.0 for Intel X86 EM64T Linux

User input:
--------------------------------------------------------------
$molecule
0 1
O                 -4.3298700000      0.9556830000     -1.5405240000
C                 -3.1797850000      0.5540840000     -0.9449530000
C                 -1.9149240000      0.9696140000     -1.3719420000
C                 -0.7658400000      0.5308590000     -0.7294360000
C                  0.5575470000      0.9970770000     -1.2158980000
O                  0.6607200000      1.7569250000     -2.1671940000
C                  1.7662890000      0.4974440000     -0.4917240000
C                  3.0314580000      0.9106500000     -0.9154550000
C                  4.1715700000      0.4599800000     -0.2582910000
C                  4.0575560000     -0.4088050000      0.8296510000
C                  2.8029800000     -0.8263720000      1.2597050000
C                  1.6525470000     -0.3777640000      0.6043660000
C                  0.3208460000     -0.8335600000      1.0767910000
O                  0.2230290000     -1.6060190000      2.0441840000
C                 -0.8620850000     -0.3486890000      0.3734570000
C                 -2.1395470000     -0.7626120000      0.7973750000
O                 -2.3418010000     -1.5972460000      1.8353670000
C                 -3.2987670000     -0.3160850000      0.1442660000
O                 -4.5189820000     -0.7197540000      0.5596860000
H                 -4.1269570000      1.5483350000     -2.2727490000
H                 -1.8123660000      1.6440550000     -2.2154290000
H                  3.0974740000      1.5843400000     -1.7607810000
H                  5.1506360000      0.7843950000     -0.5920530000
H                  4.9475300000     -0.7586120000      1.3401200000
H                  2.6918330000     -1.4993260000      2.1006690000
H                 -1.4465250000     -1.8272030000      2.1946970000
H                 -4.3945640000     -1.3113950000      1.3160950000
$end
$rem
MAX_SCF_CYCLES=200
BASIS  =  6-311++G(d,p)
GUI  =  2
JOB_TYPE  =  SP
METHOD  =  B3LYP
SOLVENT_METHOD = COSMO
$end
$solvent
dielectric 37.219
opticaldielectric 1.43
$end

--------------------------------------------------------------

             Standard Nuclear Orientation (Angstroms)
    I     Atom           X                Y                Z
 ----------------------------------------------------------------
    1      O       4.0554092207    -1.7477043894     0.0001768896
    2      C       2.8910930384    -1.0526864809     0.0000561725
    3      C       1.6358427293    -1.6684825444    -0.0000215473
    4      C       0.4714296725    -0.9135943544    -0.0000747285
    5      C      -0.8409745730    -1.6085423685    -0.0001568804
    6      O      -0.9219632835    -2.8277300313    -0.0002056443
    7      C      -2.0669739991    -0.7529468211    -0.0000782657
    8      C      -3.3226146997    -1.3647524899     0.0000304228
    9      C      -4.4784018742    -0.5908149393     0.0001695692
   10      C      -4.3897589967     0.8032965351     0.0001984269
   11      C      -3.1448619631     1.4225710671     0.0000896955
   12      C      -1.9787938441     0.6515330942    -0.0000376224
   13      C      -0.6577405119     1.3291620611    -0.0001036409
   14      O      -0.5824802968     2.5686967235    -0.0002012164
   15      C       0.5419495299     0.4985910806    -0.0000506471
   16      C       1.8098775875     1.1112135760    -0.0000159383
   17      O       1.9879525446     2.4465926592    -0.0000030956
   18      C       2.9846773120     0.3433761316     0.0000314199
   19      O       4.1955398922     0.9419234510     0.0000818001
   20      H       3.8695303558    -2.6932267614     0.0003210639
   21      H       1.5529510083    -2.7501424203    -0.0000430008
   22      H      -3.3689117501    -2.4467178118     0.0000305784
   23      H      -5.4499580008    -1.0717422531     0.0002648032
   24      H      -5.2919102236     1.4042294854     0.0003030674
   25      H      -3.0533202344     2.5014877933     0.0001219149
   26      H       1.0840321375     2.8545697193    -0.0000580313
   27      H       4.0534256428     1.8997736616     0.0000511215
 ----------------------------------------------------------------

    9    -914.7097359465      5.92e-06  Convergence criterion met
 Total energy in the final basis set =     -914.7097359465
    5    -914.7327936824      3.01e-06  Convergence criterion met
 Total energy in the final basis set =     -914.7327936824

                    Orbital Energies (a.u.)
 --------------------------------------------------------------

 Alpha MOs
 -- Occupied --
-19.1774 -19.1768 -19.1719 -19.1404 -19.1307 -10.2902 -10.2841 -10.2696
-10.2675 -10.2601 -10.2101 -10.2099 -10.2087 -10.2079 -10.1989 -10.1975
-10.1971 -10.1965 -10.1962  -1.1100  -1.0926  -1.0784  -1.0658  -1.0613
 -0.8954  -0.8804  -0.8127  -0.7804  -0.7740  -0.7708  -0.6968  -0.6881
 -0.6577  -0.6368  -0.6026  -0.5918  -0.5822  -0.5574  -0.5360  -0.5283
 -0.5120  -0.4974  -0.4782  -0.4766  -0.4645  -0.4581  -0.4552  -0.4511
 -0.4485  -0.4358  -0.4295  -0.4112  -0.4028  -0.3996  -0.3940  -0.3902
 -0.3810  -0.3783  -0.3681  -0.3411  -0.2975  -0.2861  -0.2808  -0.2791
 -0.2545  -0.2410

          Ground-State Mulliken Net Atomic Charges

     Atom                 Charge (a.u.)
  ----------------------------------------
      1 O                    -0.286749
      2 C                    -0.442128
      3 C                     0.182783
      4 C                     0.836959
      5 C                    -0.600404
      6 O                    -0.304079
      7 C                    -0.080740
      8 C                     0.160470
      9 C                    -0.476683
     10 C                    -0.466317
     11 C                     0.170159
     12 C                     0.165786
     13 C                    -0.393066
     14 O                    -0.341363
     15 C                     0.686535
     16 C                     0.072047
     17 O                    -0.390442
     18 C                    -0.299025
     19 O                    -0.304148
     20 H                     0.338321
     21 H                     0.189828
     22 H                     0.197523
     23 H                     0.227600
     24 H                     0.226923
     25 H                     0.205216
     26 H                     0.384397
     27 H                     0.340598
  ----------------------------------------
  Sum of atomic charges =     0.000000

                    Cartesian Multipole Moments
 -----------------------------------------------------------------
    Charge (ESU x 10^10)
                 0.0000
    Dipole Moment (Debye)
         X      -3.1416      Y      -0.3140      Z       0.0019
       Tot       3.1572
    Quadrupole Moments (Debye-Ang)
        XX     -95.1538     XY      -7.5667     YY    -108.9566
        XZ      -0.0011     YZ      -0.0022     ZZ    -110.3878

 Total job time:  62.79s(wall), 474.54s(cpu)
        *  Thank you very much for using Q-Chem.  Have a nice day.  *
