 Q-Chem 5.4, Q-Chem, Inc., Pleasanton, CA (2021)
 Q-Chem 5.4.0 for Intel X86 EM64T Linux

User input:
--------------------------------------------------------------
$molecule
0 1
C                  6.7362830000      0.2424810000      0.5978930000
C                  5.2394750000      0.2865500000      0.4093080000
C                  4.6484880000      1.1724610000     -0.4978990000
C                  3.2734740000      1.1876930000     -0.7057890000
C                  2.4355850000      0.3207160000      0.0065920000
N                  1.0410130000      0.4224000000     -0.1839210000
C                  0.1174380000     -0.5893040000     -0.2418700000
C                  0.5335390000     -1.9311340000     -0.4122360000
C                 -0.3784060000     -2.9519510000     -0.4810920000
C                 -1.7623260000     -2.7187510000     -0.3841330000
O                 -2.6208260000     -3.7700920000     -0.4390100000
C                 -2.2288130000     -1.4049710000     -0.2459650000
C                 -3.6951970000     -1.1436260000     -0.1537050000
O                 -4.5287040000     -2.0329050000     -0.2144000000
C                 -4.1368840000      0.2700360000      0.0284630000
C                 -5.5036850000      0.5415320000      0.1563030000
C                 -5.9420360000      1.8481390000      0.3240610000
C                 -5.0184340000      2.8986120000      0.3610920000
C                 -3.6616460000      2.6374980000      0.2296420000
C                 -3.2127560000      1.3203360000      0.0657170000
C                 -1.7582680000      1.0638110000     -0.0773770000
O                 -0.9844920000      2.0327730000     -0.1031700000
C                 -1.2843760000     -0.3250040000     -0.1847460000
C                  3.0135760000     -0.5514390000      0.9374870000
C                  4.3929210000     -0.5688590000      1.1221220000
H                  7.0014500000     -0.1005740000      1.6007160000
H                  7.2046920000     -0.4433220000     -0.1169560000
H                  7.1863130000      1.2266850000      0.4475810000
H                  5.2737540000      1.8590350000     -1.0597960000
H                  2.8373620000      1.8736100000     -1.4236920000
H                  0.6254160000      1.3532830000     -0.2180830000
H                  1.5871590000     -2.1494700000     -0.5164620000
H                 -0.0271810000     -3.9702490000     -0.6261790000
H                 -2.1108910000     -4.5825380000     -0.5328750000
H                 -6.1981810000     -0.2883550000      0.1205720000
H                 -7.0016380000      2.0545110000      0.4253250000
H                 -5.3624830000      3.9184870000      0.4915640000
H                 -2.9294110000      3.4343830000      0.2510070000
H                  2.3828220000     -1.1933020000      1.5404820000
H                  4.8158730000     -1.2491810000      1.8546970000
$end
$rem
MAX_SCF_CYCLES=200
BASIS  =  6-311++G(d,p)
GUI  =  2
JOB_TYPE  =  SP
METHOD  =  B3LYP
SCF_ALGORITHM = DIIS_GDM
SOLVENT_METHOD = PCM
$end
$pcm
theory = CPCM
$end
$solvent
dielectric 37.219
opticaldielectric 1.43
$end

--------------------------------------------------------------

             Standard Nuclear Orientation (Angstroms)
    I     Atom           X                Y                Z
 ----------------------------------------------------------------
    1      C       6.7362830000     0.2424810000     0.5978930000
    2      C       5.2394750000     0.2865500000     0.4093080000
    3      C       4.6484880000     1.1724610000    -0.4978990000
    4      C       3.2734740000     1.1876930000    -0.7057890000
    5      C       2.4355850000     0.3207160000     0.0065920000
    6      N       1.0410130000     0.4224000000    -0.1839210000
    7      C       0.1174380000    -0.5893040000    -0.2418700000
    8      C       0.5335390000    -1.9311340000    -0.4122360000
    9      C      -0.3784060000    -2.9519510000    -0.4810920000
   10      C      -1.7623260000    -2.7187510000    -0.3841330000
   11      O      -2.6208260000    -3.7700920000    -0.4390100000
   12      C      -2.2288130000    -1.4049710000    -0.2459650000
   13      C      -3.6951970000    -1.1436260000    -0.1537050000
   14      O      -4.5287040000    -2.0329050000    -0.2144000000
   15      C      -4.1368840000     0.2700360000     0.0284630000
   16      C      -5.5036850000     0.5415320000     0.1563030000
   17      C      -5.9420360000     1.8481390000     0.3240610000
   18      C      -5.0184340000     2.8986120000     0.3610920000
   19      C      -3.6616460000     2.6374980000     0.2296420000
   20      C      -3.2127560000     1.3203360000     0.0657170000
   21      C      -1.7582680000     1.0638110000    -0.0773770000
   22      O      -0.9844920000     2.0327730000    -0.1031700000
   23      C      -1.2843760000    -0.3250040000    -0.1847460000
   24      C       3.0135760000    -0.5514390000     0.9374870000
   25      C       4.3929210000    -0.5688590000     1.1221220000
   26      H       7.0014500000    -0.1005740000     1.6007160000
   27      H       7.2046920000    -0.4433220000    -0.1169560000
   28      H       7.1863130000     1.2266850000     0.4475810000
   29      H       5.2737540000     1.8590350000    -1.0597960000
   30      H       2.8373620000     1.8736100000    -1.4236920000
   31      H       0.6254160000     1.3532830000    -0.2180830000
   32      H       1.5871590000    -2.1494700000    -0.5164620000
   33      H      -0.0271810000    -3.9702490000    -0.6261790000
   34      H      -2.1108910000    -4.5825380000    -0.5328750000
   35      H      -6.1981810000    -0.2883550000     0.1205720000
   36      H      -7.0016380000     2.0545110000     0.4253250000
   37      H      -5.3624830000     3.9184870000     0.4915640000
   38      H      -2.9294110000     3.4343830000     0.2510070000
   39      H       2.3828220000    -1.1933020000     1.5404820000
   40      H       4.8158730000    -1.2491810000     1.8546970000
 ----------------------------------------------------------------

   19   -1090.0243125663      6.46e-06  Convergence criterion met
 Total energy in the final basis set =    -1090.0243125663

                    Orbital Energies (a.u.)
 --------------------------------------------------------------

 Alpha MOs
 -- Occupied --
-19.1680 -19.1227 -19.1179 -14.3450 -10.2751 -10.2750 -10.2601 -10.2463
-10.2229 -10.2059 -10.2048 -10.2016 -10.2003 -10.1991 -10.1970 -10.1924
-10.1919 -10.1909 -10.1907 -10.1856 -10.1799 -10.1788 -10.1771 -10.1768
-10.1640  -1.0843  -1.0572  -1.0544  -0.9655  -0.8865  -0.8750  -0.8568
 -0.8092  -0.7850  -0.7726  -0.7698  -0.7556  -0.7481  -0.6927  -0.6857
 -0.6646  -0.6510  -0.6250  -0.6149  -0.5968  -0.5917  -0.5779  -0.5607
 -0.5416  -0.5296  -0.5081  -0.4941  -0.4842  -0.4816  -0.4751  -0.4696
 -0.4579  -0.4568  -0.4479  -0.4445  -0.4395  -0.4380  -0.4266  -0.4251
 -0.4213  -0.4171  -0.4140  -0.4039  -0.3951  -0.3849  -0.3809  -0.3741
 -0.3718  -0.3632  -0.3617  -0.3606  -0.3475  -0.3135  -0.2871  -0.2815
 -0.2737  -0.2734  -0.2655  -0.2638  -0.2533  -0.2055

          Ground-State Mulliken Net Atomic Charges

     Atom                 Charge (a.u.)
  ----------------------------------------
      1 C                    -0.599347
      2 C                     0.322813
      3 C                    -0.387475
      4 C                    -0.186776
      5 C                    -0.005087
      6 N                     0.020533
      7 C                    -0.150544
      8 C                     0.034776
      9 C                    -0.291143
     10 C                    -0.342883
     11 O                    -0.234202
     12 C                     0.276455
     13 C                    -0.344196
     14 O                    -0.316841
     15 C                     0.240854
     16 C                     0.133792
     17 C                    -0.447703
     18 C                    -0.429366
     19 C                    -0.023601
     20 C                     0.285127
     21 C                    -0.303043
     22 O                    -0.325970
     23 C                     0.179641
     24 C                    -0.006226
     25 C                    -0.446183
     26 H                     0.159996
     27 H                     0.182781
     28 H                     0.158418
     29 H                     0.206297
     30 H                     0.200871
     31 H                     0.399279
     32 H                     0.242916
     33 H                     0.230664
     34 H                     0.325452
     35 H                     0.197366
     36 H                     0.216617
     37 H                     0.220422
     38 H                     0.187695
     39 H                     0.204438
     40 H                     0.213383
  ----------------------------------------
  Sum of atomic charges =     0.000000

                    Cartesian Multipole Moments
 -----------------------------------------------------------------
    Charge (ESU x 10^10)
                -0.0000
    Dipole Moment (Debye)
         X       5.4289      Y      -1.3246      Z       0.1727
       Tot       5.5908
    Quadrupole Moments (Debye-Ang)
        XX    -135.4407     XY     -23.5946     YY    -126.1337
        XZ      -2.7170     YZ      -0.4825     ZZ    -146.3968

 Total job time:  273.75s(wall), 1964.57s(cpu)
        *  Thank you very much for using Q-Chem.  Have a nice day.  *
