 Q-Chem 5.4, Q-Chem, Inc., Pleasanton, CA (2021)
 Q-Chem 5.4.0 for Intel X86 EM64T Linux

User input:
--------------------------------------------------------------
$molecule
-1 2
N                 -2.9306670000     -2.5453800000     -0.2116300000
C                 -2.5981760000     -1.2251160000      0.0840530000
C                 -3.6009300000     -0.3475750000      0.5006010000
C                 -3.3439430000      1.0021240000      0.7107600000
C                 -2.0710400000      1.5443990000      0.5185160000
N                 -1.8940110000      2.9187470000      0.6511860000
C                 -0.9978130000      0.6728470000      0.1552350000
C                  0.3586200000      1.2062600000      0.0584180000
O                  0.6319040000      2.4355780000      0.1720360000
C                  1.4361510000      0.2610520000     -0.1884410000
C                  1.1690750000     -1.1062480000     -0.4813870000
C                  2.2239180000     -1.9679400000     -0.8440390000
C                  3.5242170000     -1.5146070000     -0.9255090000
C                  3.8160240000     -0.1737210000     -0.6088880000
C                  2.7922950000      0.6644000000     -0.2268060000
N                  3.2378600000      2.0022260000      0.2372570000
O                  3.1791500000      2.2322620000      1.4364660000
O                  3.7560300000      2.7434130000     -0.5929530000
C                 -0.1866090000     -1.6472780000     -0.4151810000
O                 -0.3684520000     -2.8814190000     -0.6413410000
C                 -1.2659130000     -0.7297610000     -0.0692780000
H                 -3.7007960000     -2.9230280000      0.3194750000
H                 -2.1120570000     -3.1425050000     -0.3303670000
H                 -4.6108400000     -0.7285930000      0.6271140000
H                 -4.1551270000      1.6645930000      1.0008060000
H                 -2.5024270000      3.3688710000      1.3180930000
H                 -0.9129900000      3.1980340000      0.6568850000
H                  1.9670530000     -2.9972380000     -1.0620630000
H                  4.3267230000     -2.1839530000     -1.2160140000
H                  4.8327700000      0.1995570000     -0.6330040000
$end
$rem
MAX_SCF_CYCLES=200
BASIS  =  6-311++G(d,p)
GUI  =  2
JOB_TYPE  =  SP
METHOD  =  B3LYP
SOLVENT_METHOD = PCM
$end
$pcm
theory = CPCM
$end
$solvent
dielectric 37.219
opticaldielectric 1.43
$end

--------------------------------------------------------------

             Standard Nuclear Orientation (Angstroms)
    I     Atom           X                Y                Z
 ----------------------------------------------------------------
    1      N      -2.9306670000    -2.5453800000    -0.2116300000
    2      C      -2.5981760000    -1.2251160000     0.0840530000
    3      C      -3.6009300000    -0.3475750000     0.5006010000
    4      C      -3.3439430000     1.0021240000     0.7107600000
    5      C      -2.0710400000     1.5443990000     0.5185160000
    6      N      -1.8940110000     2.9187470000     0.6511860000
    7      C      -0.9978130000     0.6728470000     0.1552350000
    8      C       0.3586200000     1.2062600000     0.0584180000
    9      O       0.6319040000     2.4355780000     0.1720360000
   10      C       1.4361510000     0.2610520000    -0.1884410000
   11      C       1.1690750000    -1.1062480000    -0.4813870000
   12      C       2.2239180000    -1.9679400000    -0.8440390000
   13      C       3.5242170000    -1.5146070000    -0.9255090000
   14      C       3.8160240000    -0.1737210000    -0.6088880000
   15      C       2.7922950000     0.6644000000    -0.2268060000
   16      N       3.2378600000     2.0022260000     0.2372570000
   17      O       3.1791500000     2.2322620000     1.4364660000
   18      O       3.7560300000     2.7434130000    -0.5929530000
   19      C      -0.1866090000    -1.6472780000    -0.4151810000
   20      O      -0.3684520000    -2.8814190000    -0.6413410000
   21      C      -1.2659130000    -0.7297610000    -0.0692780000
   22      H      -3.7007960000    -2.9230280000     0.3194750000
   23      H      -2.1120570000    -3.1425050000    -0.3303670000
   24      H      -4.6108400000    -0.7285930000     0.6271140000
   25      H      -4.1551270000     1.6645930000     1.0008060000
   26      H      -2.5024270000     3.3688710000     1.3180930000
   27      H      -0.9129900000     3.1980340000     0.6568850000
   28      H       1.9670530000    -2.9972380000    -1.0620630000
   29      H       4.3267230000    -2.1839530000    -1.2160140000
   30      H       4.8327700000     0.1995570000    -0.6330040000
 ----------------------------------------------------------------

   10   -1004.4197012856      7.27e-06  Convergence criterion met
 Total energy in the final basis set =    -1004.4197012856

                    Orbital Energies (a.u.)
 --------------------------------------------------------------

 Alpha MOs
 -- Occupied --
-19.1679 -19.1673 -19.0817 -19.0814 -14.5563 -14.3020 -14.3016 -10.2351
-10.2346 -10.2341 -10.2119 -10.2115 -10.1934 -10.1921 -10.1830 -10.1828
-10.1807 -10.1781 -10.1769 -10.1683 -10.1674  -1.2420  -1.0690  -1.0138
 -1.0095  -0.9147  -0.9037  -0.8847  -0.8291  -0.8047  -0.7885  -0.7495
 -0.7218  -0.7016  -0.6703  -0.6415  -0.6359  -0.5874  -0.5733  -0.5668
 -0.5395  -0.5336  -0.5294  -0.5263  -0.5071  -0.4895  -0.4797  -0.4717
 -0.4675  -0.4507  -0.4462  -0.4334  -0.4215  -0.4164  -0.3967  -0.3956
 -0.3908  -0.3847  -0.3817  -0.3675  -0.3581  -0.3566  -0.3409  -0.3283
 -0.3200  -0.3186  -0.2814  -0.2668  -0.2656  -0.2553  -0.2519  -0.2454
 -0.1969  -0.1404

 Beta MOs
 -- Occupied --
-19.1676 -19.1670 -19.0776 -19.0771 -14.5558 -14.3012 -14.3007 -10.2350
-10.2329 -10.2325 -10.2113 -10.2109 -10.1932 -10.1909 -10.1821 -10.1819
-10.1809 -10.1784 -10.1771 -10.1672 -10.1664  -1.2412  -1.0683  -1.0064
 -1.0023  -0.9127  -0.9019  -0.8828  -0.8271  -0.8029  -0.7851  -0.7479
 -0.7183  -0.6997  -0.6652  -0.6392  -0.6336  -0.5865  -0.5717  -0.5644
 -0.5382  -0.5319  -0.5288  -0.5251  -0.5058  -0.4880  -0.4776  -0.4705
 -0.4664  -0.4493  -0.4447  -0.4246  -0.4199  -0.4121  -0.3951  -0.3923
 -0.3830  -0.3808  -0.3748  -0.3655  -0.3553  -0.3480  -0.3337  -0.3252
 -0.3190  -0.3159  -0.2701  -0.2611  -0.2556  -0.2497  -0.2482  -0.2416
 -0.1854

          Ground-State Mulliken Net Atomic Charges

     Atom                 Charge (a.u.)    Spin (a.u.)
  --------------------------------------------------------
      1 N                    -0.448461       0.033630
      2 C                    -0.073619       0.048296
      3 C                    -0.417116       0.079791
      4 C                    -0.348396       0.074497
      5 C                    -0.117492       0.054288
      6 N                    -0.446943       0.037096
      7 C                     0.429513      -0.027434
      8 C                    -0.473452       0.090575
      9 O                    -0.428089       0.160517
     10 C                     0.269327       0.074657
     11 C                     0.469534       0.066459
     12 C                    -0.246161      -0.006103
     13 C                    -0.490773       0.070502
     14 C                    -0.043738       0.006488
     15 C                    -0.287731       0.025722
     16 N                    -0.135432       0.016161
     17 O                    -0.054357       0.009863
     18 O                    -0.051447       0.014450
     19 C                    -0.367673       0.073052
     20 O                    -0.467252       0.149215
     21 C                     0.493517      -0.026963
     22 H                     0.278672      -0.001193
     23 H                     0.319301      -0.002618
     24 H                     0.194855      -0.006137
     25 H                     0.197950      -0.005955
     26 H                     0.278502      -0.001243
     27 H                     0.324695      -0.002713
     28 H                     0.183358       0.000640
     29 H                     0.220466      -0.004296
     30 H                     0.238443      -0.001244
  --------------------------------------------------------
  Sum of atomic charges =    -1.000000

                    Cartesian Multipole Moments
 -----------------------------------------------------------------
    Charge (ESU x 10^10)
                -4.8032
    Dipole Moment (Debye)
         X      -4.9933      Y      -4.7144      Z       2.0522
       Tot       7.1673
    Quadrupole Moments (Debye-Ang)
        XX    -125.3675     XY     -24.4534     YY    -157.0680
        XZ     -13.9216     YZ      -2.3281     ZZ    -130.5692

 Total job time:  126.08s(wall), 653.26s(cpu)
        *  Thank you very much for using Q-Chem.  Have a nice day.  *
