 Gaussian 16, Revision A.03,
 Gaussian 16:  ES64L-G16RevA.03 25-Dec-2016

 ----------------------------------------------------------------
 #P UB3LYP/6-311++G(d,p) SCRF=(PCM,Solvent=n,n-DiMethylFormamide)
 ----------------------------------------------------------------

 ------------------
 Quinone PCM in DMF
 ------------------
 Symbolic Z-matrix:
 Charge =  0 Multiplicity = 1

                         Standard orientation:
 ---------------------------------------------------------------------
 Center     Atomic      Atomic             Coordinates (Angstroms)
 Number     Number       Type             X           Y           Z
 ---------------------------------------------------------------------
      1          7           0        2.235859   -2.788643   -0.030904
      2          6           0        2.158575   -1.429402   -0.001584
      3          6           0        3.368682   -0.681678    0.021822
      4          6           0        3.368627    0.681762    0.021573
      5          6           0        2.158484    1.429381   -0.002078
      6          7           0        2.235801    2.788733   -0.032827
      7          6           0        0.934763    0.720732   -0.011566
      8          6           0       -0.326115    1.467147   -0.006150
      9          8           0       -0.368459    2.707215   -0.002815
     10          6           0       -1.598726    0.701142   -0.000413
     11          6           0       -2.815193    1.395554    0.004438
     12          6           0       -4.016004    0.699788    0.008947
     13          6           0       -4.015993   -0.699813    0.008469
     14          6           0       -2.815193   -1.395587    0.003533
     15          6           0       -1.598696   -0.701189   -0.000833
     16          6           0       -0.326051   -1.467134   -0.006553
     17          8           0       -0.368448   -2.707242   -0.003549
     18          6           0        0.934749   -0.720742   -0.011470
     19          1           0        1.368905   -3.311349    0.020684
     20          1           0        3.125711   -3.239852    0.093182
     21          1           0        4.311439   -1.219537    0.033714
     22          1           0        4.311366    1.219656    0.033214
     23          1           0        3.125209    3.239757    0.095343
     24          1           0        1.368868    3.311241    0.021044
     25          1           0       -2.789446    2.477834    0.004115
     26          1           0       -4.955212    1.241614    0.012598
     27          1           0       -4.955191   -1.241665    0.011710
     28          1           0       -2.789464   -2.477871    0.002607
 ---------------------------------------------------------------------

 SCF Done:  E(UB3LYP) =  -799.732107701     A.U. after   14 cycles

 The electronic state is 1-A.
 Alpha  occ. eigenvalues --  -19.11442 -19.11441 -14.33348 -14.33344 -10.26759
 Alpha  occ. eigenvalues --  -10.26757 -10.24315 -10.24311 -10.19945 -10.19945
 Alpha  occ. eigenvalues --  -10.19893 -10.19876 -10.19595 -10.19555 -10.19267
 Alpha  occ. eigenvalues --  -10.19216 -10.19026 -10.19026  -1.04907  -1.04696
 Alpha  occ. eigenvalues --   -0.94660  -0.93640  -0.88288  -0.85033  -0.80649
 Alpha  occ. eigenvalues --   -0.77164  -0.76665  -0.74266  -0.68449  -0.66354
 Alpha  occ. eigenvalues --   -0.65038  -0.61217  -0.58907  -0.57353  -0.56657
 Alpha  occ. eigenvalues --   -0.53973  -0.52445  -0.50467  -0.50186  -0.48454
 Alpha  occ. eigenvalues --   -0.47505  -0.46403  -0.45115  -0.44531  -0.44356
 Alpha  occ. eigenvalues --   -0.43893  -0.42666  -0.41175  -0.41156  -0.40581
 Alpha  occ. eigenvalues --   -0.39282  -0.37275  -0.36725  -0.36499  -0.36177
 Alpha  occ. eigenvalues --   -0.29320  -0.28240  -0.27690  -0.27261  -0.27053
 Alpha  occ. eigenvalues --   -0.26617  -0.20238
 Alpha virt. eigenvalues --   -0.10754  -0.06043  -0.03352  -0.00672  -0.00616
 Alpha virt. eigenvalues --    0.00069   0.00439   0.01633   0.01843   0.03025
 Alpha virt. eigenvalues --    0.03714   0.03942   0.03956   0.04358   0.04907

  Beta  occ. eigenvalues --  -19.11442 -19.11441 -14.33348 -14.33344 -10.26759
  Beta  occ. eigenvalues --  -10.26757 -10.24315 -10.24311 -10.19945 -10.19945
  Beta  occ. eigenvalues --  -10.19893 -10.19876 -10.19595 -10.19555 -10.19267
  Beta  occ. eigenvalues --  -10.19216 -10.19026 -10.19026  -1.04907  -1.04696
  Beta  occ. eigenvalues --   -0.94660  -0.93640  -0.88288  -0.85033  -0.80649
  Beta  occ. eigenvalues --   -0.77164  -0.76665  -0.74266  -0.68449  -0.66354
  Beta  occ. eigenvalues --   -0.65038  -0.61217  -0.58907  -0.57353  -0.56657
  Beta  occ. eigenvalues --   -0.53973  -0.52445  -0.50467  -0.50186  -0.48454
  Beta  occ. eigenvalues --   -0.47505  -0.46403  -0.45115  -0.44531  -0.44356
  Beta  occ. eigenvalues --   -0.43893  -0.42666  -0.41175  -0.41156  -0.40581
  Beta  occ. eigenvalues --   -0.39282  -0.37275  -0.36725  -0.36499  -0.36177
  Beta  occ. eigenvalues --   -0.29320  -0.28240  -0.27690  -0.27261  -0.27053
  Beta  occ. eigenvalues --   -0.26617  -0.20238
  Beta virt. eigenvalues --   -0.10754  -0.06043  -0.03352  -0.00672  -0.00616
  Beta virt. eigenvalues --    0.00069   0.00439   0.01633   0.01843   0.03025
  Beta virt. eigenvalues --    0.03714   0.03942   0.03956   0.04358   0.04907

 Mulliken charges and spin densities:
               1          2
     1  N   -0.423531  -0.000000
     2  C   -0.023261   0.000000
     3  C   -0.300580   0.000000
     4  C   -0.300661   0.000000
     5  C   -0.024070  -0.000000
     6  N   -0.422160  -0.000000
     7  C    0.485378  -0.000000
     8  C   -0.352444   0.000000
     9  O   -0.352217   0.000000
    10  C    0.160462   0.000000
    11  C    0.143288   0.000000
    12  C   -0.561668  -0.000000
    13  C   -0.561856   0.000000
    14  C    0.143105  -0.000000
    15  C    0.161000  -0.000000
    16  C   -0.352469   0.000000
    17  O   -0.352373  -0.000000
    18  C    0.484737  -0.000000
    19  H    0.335765   0.000000
    20  H    0.299345   0.000000
    21  H    0.203406   0.000000
    22  H    0.203435  -0.000000
    23  H    0.298737  -0.000000
    24  H    0.335396  -0.000000
    25  H    0.188579   0.000000
    26  H    0.198034  -0.000000
    27  H    0.198034  -0.000000
    28  H    0.188587  -0.000000
 Sum of Mulliken charges =  -0.00000  -0.00000

 Dipole moment (field-independent basis, Debye):
    X=              4.7407    Y=             -0.0040    Z=              0.6740  Tot=              4.7884
 Quadrupole moment (field-independent basis, Debye-Ang):
   XX=            -64.7246   YY=           -102.9837   ZZ=           -109.4223
   XY=             -0.0168   XZ=              1.8407   YZ=              0.0336

 Normal termination of Gaussian 16 at Sun Jan 14 01:06:41 2024.
