 Q-Chem 5.4, Q-Chem, Inc., Pleasanton, CA (2021)
 Q-Chem 5.4.0 for Intel X86 EM64T Linux

User input:
--------------------------------------------------------------
$molecule
-1 2
O                  4.6096990000      1.5042680000     -1.4117710000
C                  3.4997010000      0.9532340000     -0.8163250000
C                  2.2353340000      1.1970690000     -1.3156810000
C                  1.1064300000      0.6243340000     -0.6943250000
C                 -0.2227840000      0.8772200000     -1.2147870000
O                 -0.4186450000      1.6190180000     -2.2424890000
C                 -1.3363840000      0.2588920000     -0.5298590000
C                 -2.6508650000      0.4835040000     -1.0099000000
O                 -2.8856130000      1.2621180000     -2.0931450000
C                 -3.7588400000     -0.0851260000     -0.3909060000
O                 -5.0144790000      0.1558980000     -0.8852820000
C                 -3.5755210000     -0.9028350000      0.7381880000
O                 -4.7053670000     -1.4406400000      1.3125430000
C                 -2.3035090000     -1.1400250000      1.2295540000
C                 -1.1709240000     -0.5721360000      0.6148430000
C                  0.1537180000     -0.8263380000      1.1363900000
O                  0.3470820000     -1.5701750000      2.1671450000
C                  1.2663540000     -0.2094360000      0.4529400000
C                  2.5778250000     -0.4397700000      0.9408590000
O                  2.8137030000     -1.2180920000      2.0241980000
C                  3.6687600000      0.1343150000      0.3126000000
O                  4.9526210000     -0.0819230000      0.7781310000
H                  5.3807520000      1.2102370000     -0.9106540000
H                  2.0997590000      1.8269570000     -2.1847950000
H                 -1.9516150000      1.5674530000     -2.3801530000
H                 -4.8844430000      0.7351960000     -1.6502920000
H                 -4.4251640000     -1.9707650000      2.0655450000
H                 -2.1519540000     -1.7697620000      2.1004940000
H                  1.8760440000     -1.5220510000      2.3078950000
H                  4.8683280000     -0.6606430000      1.5490390000
$end
$rem
MAX_SCF_CYCLES=200
BASIS  =  6-311++G(d,p)
GUI  =  2
JOB_TYPE  =  SP
METHOD  =  B3LYP
SOLVENT_METHOD = COSMO
$end
$solvent
dielectric 37.219
opticaldielectric 1.43
$end

--------------------------------------------------------------

             Standard Nuclear Orientation (Angstroms)
    I     Atom           X                Y                Z
 ----------------------------------------------------------------
    1      O       4.6934343477    -1.8962581155     0.0003853055
    2      C       3.5639396179    -1.1123375328     0.0000065721
    3      C       2.3067606258    -1.6841214117    -0.0000953098
    4      C       1.1575850235    -0.8668525950     0.0000327907
    5      C      -0.1641939641    -1.4622870481     0.0000212387
    6      O      -0.3351641571    -2.7333363372    -0.0002994728
    7      C      -1.2995937596    -0.5665035268     0.0001886826
    8      C      -2.6075739463    -1.1123405144     0.0000284372
    9      O      -2.8162391076    -2.4507070428     0.0000543151
   10      C      -3.7356532294    -0.2989898072    -0.0000598933
   11      O      -4.9841915997    -0.8649239226    -0.0001668330
   12      C      -3.5797800625     1.0984402200    -0.0000680778
   13      O      -4.7287100544     1.8571428882    -0.0001193928
   14      C      -2.3147268594     1.6600045950     0.0000601131
   15      C      -1.1620431698     0.8510320290     0.0001666379
   16      C       0.1551132034     1.4480290502     0.0002238260
   17      O       0.3235354351     2.7226948644     0.0001677370
   18      C       1.2894900928     0.5542617870     0.0002451213
   19      C       2.5942820745     1.1097730308     0.0000761518
   20      O       2.8040985729     2.4480644571    -0.0001491817
   21      C       3.7055037892     0.2853893751    -0.0000706415
   22      O       4.9831501617     0.8139692169    -0.0004572173
   23      H       5.4552084389    -1.3031346670     0.0002656837
   24      H       2.1923282064    -2.7599484579    -0.0000164002
   25      H      -1.8711735421    -2.8441614263     0.0002624086
   26      H      -4.8344998452    -1.8216517880    -0.0001007479
   27      H      -4.4661891959     2.7832319075     0.0003002945
   28      H      -2.1842999134     2.7375308835     0.0000530974
   29      H       1.8553853159     2.8379650693     0.0002119999
   30      H       4.8792751302     1.7760145017    -0.0008323108
 ----------------------------------------------------------------

    9   -1140.5490469594      8.16e-06  Convergence criterion met
 Total energy in the final basis set =    -1140.5490469594
    4   -1140.6339055676      6.85e-06  Convergence criterion met
 Total energy in the final basis set =    -1140.6339055676

                    Orbital Energies (a.u.)
 --------------------------------------------------------------

 Alpha MOs
 -- Occupied --
-19.1653 -19.1618 -19.1615 -19.1597 -19.1427 -19.1426 -19.0978 -19.0976
-10.2450 -10.2442 -10.2418 -10.2408 -10.2397 -10.2391 -10.2354 -10.2351
-10.1837 -10.1827 -10.1814 -10.1809 -10.1732 -10.1714  -1.0877  -1.0846
 -1.0676  -1.0668  -1.0515  -1.0509  -1.0122  -1.0103  -0.8705  -0.8532
 -0.7921  -0.7583  -0.7477  -0.7451  -0.6835  -0.6656  -0.6458  -0.6371
 -0.6018  -0.5762  -0.5599  -0.5571  -0.5424  -0.5351  -0.5140  -0.4980
 -0.4937  -0.4808  -0.4607  -0.4603  -0.4512  -0.4477  -0.4332  -0.4294
 -0.4242  -0.4190  -0.4161  -0.4097  -0.3988  -0.3952  -0.3879  -0.3831
 -0.3800  -0.3746  -0.3742  -0.3695  -0.3641  -0.3579  -0.3193  -0.3188
 -0.2721  -0.2598  -0.2513  -0.2405  -0.2262  -0.2226  -0.1488

 Beta MOs
 -- Occupied --
-19.1650 -19.1616 -19.1614 -19.1594 -19.1424 -19.1423 -19.0934 -19.0931
-10.2450 -10.2440 -10.2414 -10.2405 -10.2372 -10.2365 -10.2347 -10.2343
-10.1832 -10.1823 -10.1814 -10.1809 -10.1722 -10.1706  -1.0870  -1.0838
 -1.0670  -1.0661  -1.0502  -1.0498  -1.0050  -1.0029  -0.8679  -0.8519
 -0.7886  -0.7546  -0.7459  -0.7437  -0.6768  -0.6642  -0.6441  -0.6359
 -0.5999  -0.5747  -0.5594  -0.5558  -0.5412  -0.5340  -0.5126  -0.4964
 -0.4922  -0.4800  -0.4591  -0.4551  -0.4483  -0.4453  -0.4307  -0.4265
 -0.4234  -0.4152  -0.4098  -0.4029  -0.3979  -0.3909  -0.3872  -0.3792
 -0.3740  -0.3732  -0.3724  -0.3616  -0.3603  -0.3561  -0.3155  -0.3049
 -0.2684  -0.2562  -0.2405  -0.2292  -0.2201  -0.2179

          Ground-State Mulliken Net Atomic Charges

     Atom                 Charge (a.u.)    Spin (a.u.)
  --------------------------------------------------------
      1 O                    -0.312322       0.004237
      2 C                    -0.450160       0.007156
      3 C                    -0.321587       0.083490
      4 C                     0.653400       0.015709
      5 C                    -0.586999       0.141295
      6 O                    -0.523946       0.159803
      7 C                     0.653827      -0.012232
      8 C                    -0.050179       0.040525
      9 O                    -0.494224       0.009772
     10 C                    -0.241080       0.055400
     11 O                    -0.347096       0.008814
     12 C                    -0.479332      -0.001905
     13 O                    -0.319864       0.003763
     14 C                    -0.013552       0.092540
     15 C                     0.700849       0.009977
     16 C                    -0.461032       0.148314
     17 O                    -0.535043       0.158703
     18 C                     0.569071      -0.016878
     19 C                    -0.094341       0.043310
     20 O                    -0.485270       0.009872
     21 C                    -0.056718       0.049914
     22 O                    -0.361167       0.007045
     23 H                     0.324913      -0.000243
     24 H                     0.202510      -0.004916
     25 H                     0.424021      -0.003469
     26 H                     0.337618      -0.000304
     27 H                     0.331163      -0.000379
     28 H                     0.184445      -0.005625
     29 H                     0.412832      -0.003485
     30 H                     0.339262      -0.000202
  --------------------------------------------------------
  Sum of atomic charges =    -1.000000

                    Cartesian Multipole Moments
 -----------------------------------------------------------------
    Charge (ESU x 10^10)
                -4.8032
    Dipole Moment (Debye)
         X       2.0975      Y       3.1832      Z       0.0007
       Tot       3.8121
    Quadrupole Moments (Debye-Ang)
        XX    -162.9898     XY      -2.3591     YY    -151.1968
        XZ      -0.0077     YZ      -0.0025     ZZ    -131.0070

 Total job time:  127.93s(wall), 923.80s(cpu)
        *  Thank you very much for using Q-Chem.  Have a nice day.  *
