 Gaussian 16, Revision A.03,
 Gaussian 16:  ES64L-G16RevA.03 25-Dec-2016

 ----------------------------------------------------------------------
 #P UB3LYP/6-311++G(d,p) nosym opt freq SCRF=(PCM,Solvent=n,n-DiMethylF
 ormamide)
 ----------------------------------------------------------------------

 -------
 Reduced
 -------
 Symbolic Z-matrix:
 Charge = -2 Multiplicity = 1

 SCF Done:  E(UB3LYP) =  -1352.41318440     A.U. after   20 cycles
 SCF Done:  E(UB3LYP) =  -1352.41494353     A.U. after   15 cycles
 SCF Done:  E(UB3LYP) =  -1352.41587071     A.U. after   15 cycles
 SCF Done:  E(UB3LYP) =  -1352.41607664     A.U. after   14 cycles
 SCF Done:  E(UB3LYP) =  -1352.41612918     A.U. after   13 cycles
 SCF Done:  E(UB3LYP) =  -1352.41614518     A.U. after   13 cycles
 SCF Done:  E(UB3LYP) =  -1352.41615110     A.U. after   13 cycles
 SCF Done:  E(UB3LYP) =  -1352.41615461     A.U. after   13 cycles
 SCF Done:  E(UB3LYP) =  -1352.41615789     A.U. after   11 cycles
 SCF Done:  E(UB3LYP) =  -1352.41615863     A.U. after   11 cycles
 SCF Done:  E(UB3LYP) =  -1352.41615889     A.U. after   10 cycles
 SCF Done:  E(UB3LYP) =  -1352.41615896     A.U. after   10 cycles
 Optimization completed.
    -- Stationary point found.
 Normal termination of Gaussian 16 at Sat Feb 10 23:13:23 2024.

 ----------------------------------------------------------------------
 #P Geom=AllCheck Guess=TCheck SCRF=Check GenChk UB3LYP/6-311++G(d,p) F
 req
 ----------------------------------------------------------------------

 Structure from the checkpoint file:  "215-an.chk"
 -------
 Reduced
 -------
 Charge = -2 Multiplicity = 1

                          Input orientation:
 ---------------------------------------------------------------------
 Center     Atomic      Atomic             Coordinates (Angstroms)
 Number     Number       Type             X           Y           Z
 ---------------------------------------------------------------------
      1          6           0        5.033762   -2.329146    0.592539
      2          6           0        5.826512   -1.647889   -0.305253
      3          6           0        5.219122   -0.874921   -1.326755
      4          6           0        3.616366   -2.284439    0.531350
      5          6           0        2.996253   -1.499049   -0.506139
      6          6           0        3.845949   -0.810216   -1.414920
      7          6           0        2.838373   -3.023207    1.507940
      8          6           0        1.408210   -2.913678    1.353238
      9          6           0        0.789069   -2.111919    0.297685
     10          6           0        1.556546   -1.387311   -0.655739
     11          6           0        0.574835   -3.608597    2.246922
     12          6           0       -0.640174   -2.074522    0.247469
     13          6           0       -1.437139   -2.750870    1.129336
     14          8           0        3.389473   -3.721929    2.436341
     15          8           0        1.025017   -0.670319   -1.601960
     16          1           0        5.479668   -2.925552    1.380327
     17          1           0        6.908127   -1.700788   -0.233396
     18          1           0        5.837848   -0.335689   -2.037446
     19          1           0       -2.516851   -2.694875    1.073274
     20          1           0        3.368593   -0.223714   -2.191325
     21          1           0        1.044820   -4.204785    3.019067
     22          1           0       -1.090985   -1.471762   -0.532563
     23          6           0       -0.803220   -3.531630    2.154597
     24         16           0       -1.781762   -4.453964    3.260347
     25          8           0       -1.007761   -4.921845    4.418610
     26          8           0       -3.063849   -3.785016    3.532540
     27          8           0       -2.131792   -5.784390    2.332798
     28          6           0       -3.083334   -6.728493    2.885471
     29          1           0       -2.711641   -7.142400    3.824478
     30          1           0       -3.165216   -7.516630    2.139966
     31          1           0       -4.052570   -6.250494    3.033558
 ---------------------------------------------------------------------

 SCF Done:  E(UB3LYP) =  -1352.41615896     A.U. after    2 cycles

 Alpha  occ. eigenvalues --  -89.07383 -19.16546 -19.12333 -19.12249 -19.03552
 Alpha  occ. eigenvalues --  -19.02131 -10.22514 -10.19297 -10.19250 -10.17925
 Alpha  occ. eigenvalues --  -10.17639 -10.16547 -10.15825 -10.15776 -10.15631
 Alpha  occ. eigenvalues --  -10.15498 -10.15261 -10.15064 -10.15008 -10.14964
 Alpha  occ. eigenvalues --  -10.14302  -8.13476  -6.09849  -6.09702  -6.09498
 Alpha  occ. eigenvalues --   -1.13967  -1.03331  -1.01134  -0.95263  -0.93407
 Alpha  occ. eigenvalues --   -0.84951  -0.83391  -0.77989  -0.75170  -0.73591
 Alpha  occ. eigenvalues --   -0.73122  -0.71418  -0.66202  -0.64081  -0.61242
 Alpha  occ. eigenvalues --   -0.59150  -0.57204  -0.54942  -0.53467  -0.51596
 Alpha  occ. eigenvalues --   -0.51360  -0.48314  -0.48069  -0.45694  -0.45076
 Alpha  occ. eigenvalues --   -0.44529  -0.44325  -0.43544  -0.41960  -0.40710
 Alpha  occ. eigenvalues --   -0.40022  -0.39465  -0.39156  -0.38239  -0.37993
 Alpha  occ. eigenvalues --   -0.36420  -0.35579  -0.34595  -0.34548  -0.33513
 Alpha  occ. eigenvalues --   -0.33369  -0.32810  -0.32263  -0.32170  -0.31061
 Alpha  occ. eigenvalues --   -0.30769  -0.29353  -0.25037  -0.23613  -0.23348
 Alpha  occ. eigenvalues --   -0.22847  -0.21277  -0.20110  -0.11877
 Alpha virt. eigenvalues --   -0.04683  -0.02018  -0.00293   0.00376   0.00828
 Alpha virt. eigenvalues --    0.01345   0.01633   0.02434   0.02598   0.03270
 Alpha virt. eigenvalues --    0.03943   0.04018   0.04695   0.04997   0.05261

  Beta  occ. eigenvalues --  -89.07383 -19.16546 -19.12333 -19.12249 -19.03552
  Beta  occ. eigenvalues --  -19.02131 -10.22514 -10.19297 -10.19250 -10.17925
  Beta  occ. eigenvalues --  -10.17639 -10.16547 -10.15825 -10.15776 -10.15631
  Beta  occ. eigenvalues --  -10.15498 -10.15261 -10.15064 -10.15008 -10.14964
  Beta  occ. eigenvalues --  -10.14302  -8.13476  -6.09849  -6.09702  -6.09498
  Beta  occ. eigenvalues --   -1.13967  -1.03331  -1.01134  -0.95263  -0.93407
  Beta  occ. eigenvalues --   -0.84951  -0.83391  -0.77989  -0.75170  -0.73591
  Beta  occ. eigenvalues --   -0.73122  -0.71418  -0.66202  -0.64081  -0.61242
  Beta  occ. eigenvalues --   -0.59150  -0.57204  -0.54942  -0.53467  -0.51596
  Beta  occ. eigenvalues --   -0.51360  -0.48314  -0.48069  -0.45694  -0.45076
  Beta  occ. eigenvalues --   -0.44529  -0.44325  -0.43544  -0.41960  -0.40710
  Beta  occ. eigenvalues --   -0.40022  -0.39465  -0.39156  -0.38239  -0.37993
  Beta  occ. eigenvalues --   -0.36420  -0.35579  -0.34595  -0.34548  -0.33513
  Beta  occ. eigenvalues --   -0.33369  -0.32810  -0.32263  -0.32170  -0.31061
  Beta  occ. eigenvalues --   -0.30769  -0.29353  -0.25037  -0.23613  -0.23348
  Beta  occ. eigenvalues --   -0.22847  -0.21277  -0.20110  -0.11877
  Beta virt. eigenvalues --   -0.04683  -0.02018  -0.00293   0.00376   0.00828
  Beta virt. eigenvalues --    0.01345   0.01633   0.02434   0.02598   0.03270
  Beta virt. eigenvalues --    0.03943   0.04018   0.04695   0.04997   0.05261

 Mulliken charges and spin densities:
               1          2
     1  C   -0.000763   0.000000
     2  C   -0.486203   0.000000
     3  C   -0.485926   0.000000
     4  C    0.347127   0.000000
     5  C    0.473120   0.000000
     6  C   -0.027098   0.000000
     7  C   -0.786306  -0.000000
     8  C    0.320869  -0.000000
     9  C    0.749438  -0.000000
    10  C   -0.381096  -0.000000
    11  C    0.175947   0.000000
    12  C   -0.210894   0.000000
    13  C   -0.510020  -0.000000
    14  O   -0.591281   0.000000
    15  O   -0.660390   0.000000
    16  H    0.151962  -0.000000
    17  H    0.165812   0.000000
    18  H    0.166045   0.000000
    19  H    0.207940   0.000000
    20  H    0.153666   0.000000
    21  H    0.209125  -0.000000
    22  H    0.148000   0.000000
    23  C   -1.216387   0.000000
    24  S    0.352911  -0.000000
    25  O   -0.249951  -0.000000
    26  O   -0.292002   0.000000
    27  O   -0.094814  -0.000000
    28  C   -0.150286  -0.000000
    29  H    0.170975   0.000000
    30  H    0.180458  -0.000000
    31  H    0.170020   0.000000
 Sum of Mulliken charges =  -2.00000   0.00000

 Dipole moment (field-independent basis, Debye):
    X=            -14.0838    Y=             22.6176    Z=            -10.2297  Tot=             28.5405
 Quadrupole moment (field-independent basis, Debye-Ang):
   XX=           -193.9466   YY=           -203.5645   ZZ=           -201.8664
   XY=             42.3042   XZ=             -5.2505   YZ=             52.6845

  Exact polarizability: 675.998  97.184 302.676-108.896-136.408 361.423
 Approx polarizability: 752.329  79.112 333.157 -97.550-151.492 411.762

                      1                      2                      3
                      A                      A                      A
 Frequencies --     26.3240                38.3755                63.0643
 Red. masses --      5.3001                 6.2686                 2.8831
 Frc consts  --      0.0022                 0.0054                 0.0068
 IR Inten    --      6.0463                 4.3971                 3.8169

                      4                      5                      6
                      A                      A                      A
 Frequencies --     75.1199               109.0702               120.9936
 Red. masses --      6.5199                 6.8027                 3.5887
 Frc consts  --      0.0217                 0.0477                 0.0310
 IR Inten    --     13.7974                 0.8865                 3.1369

                      7                      8                      9
                      A                      A                      A
 Frequencies --    144.5590               151.0315               169.0084
 Red. masses --      1.5954                 2.7627                 8.4358
 Frc consts  --      0.0196                 0.0371                 0.1420
 IR Inten    --      1.5760                 4.2261                11.3916

                     10                     11                     12
                      A                      A                      A
 Frequencies --    213.1746               220.3624               235.4759
 Red. masses --      7.6473                 6.4762                 7.3058
 Frc consts  --      0.2048                 0.1853                 0.2387
 IR Inten    --      6.8136                18.5260                 9.6388

                     13                     14                     15
                      A                      A                      A
 Frequencies --    257.3629               289.5871               333.1623
 Red. masses --      4.9848                 8.1224                 5.8901
 Frc consts  --      0.1945                 0.4013                 0.3852
 IR Inten    --     38.0054                 5.4994                 7.0878

                     16                     17                     18
                      A                      A                      A
 Frequencies --    369.2651               371.9034               405.0003
 Red. masses --      8.6136                 9.4742                 6.5858
 Frc consts  --      0.6920                 0.7721                 0.6365
 IR Inten    --     14.5207                 9.5588                60.2931

                     19                     20                     21
                      A                      A                      A
 Frequencies --    413.2885               428.6830               451.7572
 Red. masses --      5.9151                 3.9257                 9.5194
 Frc consts  --      0.5953                 0.4250                 1.1446
 IR Inten    --      3.5216                 6.3546                56.0220

                     22                     23                     24
                      A                      A                      A
 Frequencies --    472.8402               477.5173               482.9997
 Red. masses --      7.8885                 3.2044                 9.7847
 Frc consts  --      1.0391                 0.4305                 1.3449
 IR Inten    --      6.3634                 8.4344                18.2078

                     25                     26                     27
                      A                      A                      A
 Frequencies --    502.4627               521.5319               590.7541
 Red. masses --      9.6177                 5.2764                 9.4498
 Frc consts  --      1.4306                 0.8456                 1.9431
 IR Inten    --    122.1633                48.5776               724.1066

                     28                     29                     30
                      A                      A                      A
 Frequencies --    617.3782               627.6923               638.5848
 Red. masses --      6.3588                 7.0727                 5.7690
 Frc consts  --      1.4280                 1.6418                 1.3861
 IR Inten    --    369.2910                47.3017               295.2446

                     31                     32                     33
                      A                      A                      A
 Frequencies --    656.1549               685.9690               698.6174
 Red. masses --      7.2474                 6.3236                 2.5127
 Frc consts  --      1.8384                 1.7532                 0.7226
 IR Inten    --    343.0030                19.1181               116.9613

                     34                     35                     36
                      A                      A                      A
 Frequencies --    706.6375               722.5801               768.8201
 Red. masses --      7.0337                 3.9895                 1.4800
 Frc consts  --      2.0693                 1.2273                 0.5154
 IR Inten    --    261.2486                 9.1363                 2.0746

                     37                     38                     39
                      A                      A                      A
 Frequencies --    790.1230               816.0934               829.7517
 Red. masses --      2.0300                 3.4349                 6.6406
 Frc consts  --      0.7467                 1.3478                 2.6937
 IR Inten    --     62.8590                 4.8934                91.8350

                     40                     41                     42
                      A                      A                      A
 Frequencies --    874.8088               922.3783               955.1520
 Red. masses --      1.6554                 6.3415                 3.3832
 Frc consts  --      0.7464                 3.1788                 1.8186
 IR Inten    --      0.6134                72.9820               691.8490

                     43                     44                     45
                      A                      A                      A
 Frequencies --    956.2804               967.3324               980.9179
 Red. masses --      1.9765                 5.4678                 1.2892
 Frc consts  --      1.0649                 3.0145                 0.7309
 IR Inten    --    236.4635               187.9857                 1.4922

                     46                     47                     48
                      A                      A                      A
 Frequencies --    986.1719               994.4806              1023.2817
 Red. masses --      1.3533                 1.2632                 2.2284
 Frc consts  --      0.7755                 0.7361                 1.3748
 IR Inten    --      4.8073                 0.3639               898.8324

                     49                     50                     51
                      A                      A                      A
 Frequencies --   1031.9298              1058.6594              1094.0183
 Red. masses --      2.2463                 9.8197                 3.4115
 Frc consts  --      1.4094                 6.4843                 2.4057
 IR Inten    --    272.4120              1289.2975               581.4635

                     52                     53                     54
                      A                      A                      A
 Frequencies --   1121.8664              1133.6092              1161.7582
 Red. masses --      1.8842                 1.6402                 1.2989
 Frc consts  --      1.3972                 1.2419                 1.0329
 IR Inten    --    120.3989               185.0134                54.3861

                     55                     56                     57
                      A                      A                      A
 Frequencies --   1162.1756              1178.3527              1185.6309
 Red. masses --      1.7335                 1.3495                 2.5479
 Frc consts  --      1.3795                 1.1040                 2.1103
 IR Inten    --    231.4498                20.0227               127.9227

                     58                     59                     60
                      A                      A                      A
 Frequencies --   1204.9607              1214.4787              1221.6614
 Red. masses --      1.7378                 2.0660                12.0782
 Frc consts  --      1.4866                 1.7954                10.6207
 IR Inten    --     50.7240               432.4540               390.2610

                     61                     62                     63
                      A                      A                      A
 Frequencies --   1250.1461              1313.3259              1341.1236
 Red. masses --      2.4596                 3.3678                 4.5998
 Frc consts  --      2.2648                 3.4225                 4.8745
 IR Inten    --    380.3657               469.8739               751.4666

                     64                     65                     66
                      A                      A                      A
 Frequencies --   1355.2654              1369.2596              1431.4172
 Red. masses --      6.8577                 2.6306                 4.4460
 Frc consts  --      7.4213                 2.9059                 5.3673
 IR Inten    --    647.0755              1434.9869               222.0019

                     67                     68                     69
                      A                      A                      A
 Frequencies --   1453.3757              1456.6910              1465.8175
 Red. masses --      1.1712                 2.4639                 3.0674
 Frc consts  --      1.4576                 3.0805                 3.8831
 IR Inten    --     17.9822               151.8229               262.0027

                     70                     71                     72
                      A                      A                      A
 Frequencies --   1474.2139              1482.4758              1492.2948
 Red. masses --      1.0468                 4.5727                 1.0482
 Frc consts  --      1.3404                 5.9210                 1.3753
 IR Inten    --      9.7573               132.9904                18.3601

                     73                     74                     75
                      A                      A                      A
 Frequencies --   1499.6963              1517.2463              1556.4187
 Red. masses --      5.4054                 5.8459                 6.1158
 Frc consts  --      7.1628                 7.9290                 8.7289
 IR Inten    --     71.4042                22.1654               330.5293

                     76                     77                     78
                      A                      A                      A
 Frequencies --   1594.2753              1618.3831              3042.9971
 Red. masses --      7.1603                 5.5232                 1.0291
 Frc consts  --     10.7228                 8.5232                 5.6145
 IR Inten    --     25.3512                26.0293                84.1426

                     79                     80                     81
                      A                      A                      A
 Frequencies --   3122.5855              3145.4118              3151.4972
 Red. masses --      1.1083                 1.0852                 1.1055
 Frc consts  --      6.3669                 6.3260                 6.4689
 IR Inten    --     25.2402                20.6608                11.1658

                     82                     83                     84
                      A                      A                      A
 Frequencies --   3160.7708              3174.7260              3178.5281
 Red. masses --      1.0896                 1.0860                 1.0912
 Frc consts  --      6.4135                 6.4487                 6.4954
 IR Inten    --     32.5413                14.5151                28.1458

                     85                     86                     87
                      A                      A                      A
 Frequencies --   3182.1657              3194.8700              3196.6580
 Red. masses --      1.0939                 1.0937                 1.0895
 Frc consts  --      6.5265                 6.5774                 6.5594
 IR Inten    --     87.6945                22.7281                 6.2882

 - Thermochemistry -
 -------------------
 Temperature   298.150 Kelvin.  Pressure   1.00000 Atm.
 Atom     1 has atomic number  6 and mass  12.00000

 Molecular mass:   302.02490 amu.
 Principal axes and moments of inertia in atomic units:
                           1         2         3
     Eigenvalues --  2406.59908********************
           X            0.78066   0.62366  -0.04021
           Y            0.43043  -0.48991   0.75810
           Z           -0.45310   0.60913   0.65090
 This molecule is an asymmetric top.
 Rotational symmetry number  1.
 Warning -- assumption of classical behavior for rotation
           may cause significant error
 Rotational temperatures (Kelvin)      0.03599     0.00697     0.00613
 Rotational constants (GHZ):           0.74991     0.14521     0.12782
 Zero-point vibrational energy     569091.2 (Joules/Mol)
                                  136.01606 (Kcal/Mol)
 Warning -- explicit consideration of  28 degrees of freedom as
           vibrations may cause significant error
 Vibrational temperatures:     37.87    55.21    90.74   108.08   156.93
          (Kelvin)            174.08   207.99   217.30   243.17   306.71
                              317.05   338.80   370.29   416.65   479.35
                              531.29   535.09   582.71   594.63   616.78
                              649.98   680.31   687.04   694.93   722.93
                              750.37   849.96   888.27   903.11   918.78
                              944.06   986.96  1005.15  1016.69  1039.63
                             1106.16  1136.81  1174.18  1193.83  1258.65
                             1327.10  1374.25  1375.87  1391.78  1411.32
                             1418.88  1430.84  1472.27  1484.72  1523.17
                             1574.05  1614.12  1631.01  1671.51  1672.11
                             1695.39  1705.86  1733.67  1747.36  1757.70
                             1798.68  1889.58  1929.58  1949.92  1970.06
                             2059.49  2091.08  2095.85  2108.98  2121.06
                             2132.95  2147.08  2157.73  2182.98  2239.34
                             2293.81  2328.49  4378.19  4492.70  4525.55
                             4534.30  4547.64  4567.72  4573.19  4578.43
                             4596.71  4599.28

 Zero-point correction=                           0.216755 (Hartree/Particle)
 Thermal correction to Energy=                    0.234332
 Thermal correction to Enthalpy=                  0.235276
 Thermal correction to Gibbs Free Energy=         0.170329
 Sum of electronic and zero-point Energies=          -1352.199404
 Sum of electronic and thermal Energies=             -1352.181827
 Sum of electronic and thermal Enthalpies=           -1352.180883
 Sum of electronic and thermal Free Energies=        -1352.245830

                     E (Thermal)             CV                S
                      KCal/Mol        Cal/Mol-Kelvin    Cal/Mol-Kelvin
 Total                  147.046             68.089            136.694
 Electronic               0.000              0.000              0.000
 Translational            0.889              2.981             43.013
 Rotational               0.889              2.981             34.401
 Vibrational            145.268             62.128             59.280
 Vibration     1          0.593              1.985              6.089
 Vibration     2          0.594              1.982              5.341
 Vibration     3          0.597              1.972              4.359
 Vibration     4          0.599              1.966              4.015
 Vibration     5          0.606              1.942              3.285
 Vibration     6          0.609              1.932              3.084
 Vibration     7          0.616              1.909              2.743
 Vibration     8          0.618              1.902              2.659
 Vibration     9          0.625              1.881              2.446
 Vibration    10          0.644              1.821              2.016
 Vibration    11          0.647              1.810              1.956
 Vibration    12          0.655              1.787              1.837
 Vibration    13          0.667              1.750              1.680
 Vibration    14          0.686              1.693              1.476
 Vibration    15          0.715              1.609              1.245
 Vibration    16          0.742              1.535              1.083
 Vibration    17          0.744              1.530              1.072
 Vibration    18          0.770              1.459              0.944
 Vibration    19          0.777              1.441              0.915
 Vibration    20          0.790              1.408              0.863
 Vibration    21          0.810              1.357              0.790
 Vibration    22          0.830              1.310              0.730
 Vibration    23          0.834              1.300              0.717
 Vibration    24          0.839              1.288              0.702
 Vibration    25          0.858              1.245              0.652
 Vibration    26          0.877              1.202              0.606
 Vibration    27          0.948              1.051              0.466
 Vibration    28          0.977              0.995              0.421

 Optimization completed.
    -- Stationary point found.
 Normal termination of Gaussian 16 at Sun Feb 11 00:10:18 2024.
