 Q-Chem 5.4, Q-Chem, Inc., Pleasanton, CA (2021)
 Q-Chem 5.4.0 for Intel X86 EM64T Linux

User input:
--------------------------------------------------------------
$molecule
-1 2
C                  1.2941720000      1.1670330000     -2.8722920000
C                 -0.0156360000      1.5133240000     -3.3841610000
C                 -1.1061240000      0.7234350000     -3.1723790000
C                 -1.0397570000     -0.5138600000     -2.4229100000
C                  0.2698380000     -0.8933840000     -1.8991590000
O                  2.2880830000      1.9281920000     -3.0201520000
O                 -2.0663750000     -1.2287550000     -2.2387100000
H                 -0.0858740000      2.4476830000     -3.9338900000
C                  1.3813810000     -0.0956090000     -2.1403750000
C                  2.7232830000     -0.4691770000     -1.6042550000
C                  3.8952420000     -0.5585060000     -2.5518440000
C                  5.1903640000     -0.5721550000     -2.0215880000
C                  3.7267770000     -0.7142790000     -3.9314300000
C                  6.2959630000     -0.7220220000     -2.8529790000
C                  6.1189030000     -0.8812050000     -4.2284900000
C                  4.8309120000     -0.8813010000     -4.7637080000
O                  2.8986570000     -0.7621720000     -0.4270620000
C                  0.3221620000     -2.1870120000     -1.1281500000
H                  5.3066280000     -0.4624490000     -0.9500000000
H                  2.7271280000     -0.7019050000     -4.3478230000
H                  7.2961820000     -0.7171850000     -2.4312950000
H                  6.9795020000     -1.0022620000     -4.8788510000
H                  4.6865690000     -1.0040460000     -5.8321160000
H                 -2.0852250000      0.9974360000     -3.5557770000
H                  0.0528490000     -2.0208320000     -0.0786540000
H                  1.3141140000     -2.6393140000     -1.1359340000
H                 -0.4153090000     -2.8804740000     -1.5368950000
$end
$rem
MAX_SCF_CYCLES=200
BASIS  =  6-311++G(d,p)
GUI  =  2
JOB_TYPE  =  SP
METHOD  =  B3LYP
SOLVENT_METHOD = PCM
$end
$pcm
theory = CPCM
$end
$solvent
dielectric 37.219
opticaldielectric 1.43
$end

--------------------------------------------------------------

             Standard Nuclear Orientation (Angstroms)
    I     Atom           X                Y                Z
 ----------------------------------------------------------------
    1      C       1.2941720000     1.1670330000    -2.8722920000
    2      C      -0.0156360000     1.5133240000    -3.3841610000
    3      C      -1.1061240000     0.7234350000    -3.1723790000
    4      C      -1.0397570000    -0.5138600000    -2.4229100000
    5      C       0.2698380000    -0.8933840000    -1.8991590000
    6      O       2.2880830000     1.9281920000    -3.0201520000
    7      O      -2.0663750000    -1.2287550000    -2.2387100000
    8      H      -0.0858740000     2.4476830000    -3.9338900000
    9      C       1.3813810000    -0.0956090000    -2.1403750000
   10      C       2.7232830000    -0.4691770000    -1.6042550000
   11      C       3.8952420000    -0.5585060000    -2.5518440000
   12      C       5.1903640000    -0.5721550000    -2.0215880000
   13      C       3.7267770000    -0.7142790000    -3.9314300000
   14      C       6.2959630000    -0.7220220000    -2.8529790000
   15      C       6.1189030000    -0.8812050000    -4.2284900000
   16      C       4.8309120000    -0.8813010000    -4.7637080000
   17      O       2.8986570000    -0.7621720000    -0.4270620000
   18      C       0.3221620000    -2.1870120000    -1.1281500000
   19      H       5.3066280000    -0.4624490000    -0.9500000000
   20      H       2.7271280000    -0.7019050000    -4.3478230000
   21      H       7.2961820000    -0.7171850000    -2.4312950000
   22      H       6.9795020000    -1.0022620000    -4.8788510000
   23      H       4.6865690000    -1.0040460000    -5.8321160000
   24      H      -2.0852250000     0.9974360000    -3.5557770000
   25      H       0.0528490000    -2.0208320000    -0.0786540000
   26      H       1.3141140000    -2.6393140000    -1.1359340000
   27      H      -0.4153090000    -2.8804740000    -1.5368950000
 ----------------------------------------------------------------

    9    -765.5294937556      4.24e-06  Convergence criterion met
 Total energy in the final basis set =     -765.5294937556

                    Orbital Energies (a.u.)
 --------------------------------------------------------------

 Alpha MOs
 -- Occupied --
-19.1165 -19.0834 -19.0829 -10.2665 -10.2300 -10.2236 -10.1863 -10.1857
-10.1822 -10.1818 -10.1799 -10.1789 -10.1787 -10.1745 -10.1685 -10.1672
-10.1553  -1.0488  -1.0077  -1.0043  -0.8651  -0.8333  -0.7764  -0.7640
 -0.7534  -0.7165  -0.6679  -0.6452  -0.6149  -0.6006  -0.5648  -0.5506
 -0.5133  -0.4906  -0.4793  -0.4630  -0.4592  -0.4445  -0.4397  -0.4288
 -0.4229  -0.4186  -0.4108  -0.4038  -0.3940  -0.3921  -0.3759  -0.3683
 -0.3664  -0.3628  -0.3565  -0.3472  -0.2871  -0.2749  -0.2641  -0.2619
 -0.2565  -0.2484  -0.2378  -0.1684

 Beta MOs
 -- Occupied --
-19.1162 -19.0766 -19.0763 -10.2666 -10.2287 -10.2221 -10.1857 -10.1844
-10.1822 -10.1817 -10.1799 -10.1789 -10.1787 -10.1738 -10.1678 -10.1660
-10.1555  -1.0482  -0.9966  -0.9917  -0.8651  -0.8273  -0.7744  -0.7627
 -0.7533  -0.7125  -0.6604  -0.6436  -0.6144  -0.5988  -0.5609  -0.5495
 -0.5119  -0.4884  -0.4774  -0.4618  -0.4573  -0.4428  -0.4378  -0.4274
 -0.4171  -0.4146  -0.4071  -0.4001  -0.3915  -0.3793  -0.3679  -0.3660
 -0.3619  -0.3551  -0.3484  -0.3454  -0.2745  -0.2654  -0.2605  -0.2546
 -0.2474  -0.2425  -0.2326

          Ground-State Mulliken Net Atomic Charges

     Atom                 Charge (a.u.)    Spin (a.u.)
  --------------------------------------------------------
      1 C                    -0.695861       0.111553
      2 C                    -0.149219       0.079486
      3 C                    -0.037468       0.061130
      4 C                    -0.385094       0.102724
      5 C                     0.696945       0.107347
      6 O                    -0.465132       0.227177
      7 O                    -0.504808       0.257041
      8 H                     0.212384      -0.008312
      9 C                     0.891954       0.024482
     10 C                    -1.109351       0.027416
     11 C                     1.169118       0.000332
     12 C                     0.702916      -0.009528
     13 C                    -0.975898       0.005270
     14 C                    -0.563126       0.002997
     15 C                    -0.249918       0.001081
     16 C                    -0.510075      -0.001873
     17 O                    -0.278236       0.007680
     18 C                    -0.539828      -0.003663
     19 H                     0.224379      -0.000517
     20 H                     0.193765       0.001984
     21 H                     0.211175       0.000092
     22 H                     0.200240      -0.000053
     23 H                     0.218782      -0.000111
     24 H                     0.207392      -0.005383
     25 H                     0.200500       0.008952
     26 H                     0.170760       0.001350
     27 H                     0.163702       0.001348
  --------------------------------------------------------
  Sum of atomic charges =    -1.000000

                    Cartesian Multipole Moments
 -----------------------------------------------------------------
    Charge (ESU x 10^10)
                -4.8032
    Dipole Moment (Debye)
         X      -1.7463      Y      -0.9515      Z       8.4277
       Tot       8.6592
    Quadrupole Moments (Debye-Ang)
        XX    -119.8603     XY     -18.1668     YY    -116.5277
        XZ      -3.4187     YZ       8.2826     ZZ    -116.9483

 Total job time:  52.61s(wall), 400.15s(cpu)
        *  Thank you very much for using Q-Chem.  Have a nice day.  *
