 Q-Chem 5.4, Q-Chem, Inc., Pleasanton, CA (2021)
 Q-Chem 5.4.0 for Intel X86 EM64T Linux

User input:
--------------------------------------------------------------
$molecule
-1 1
C                  2.7800980000      0.5335120000      0.2074580000
C                  2.7392180000     -0.6745790000      0.9064800000
C                  1.5366620000     -1.3551130000      1.0575640000
C                 -0.9076950000     -1.5894270000      0.6970470000
O                 -0.9621930000     -2.6485410000      1.3108080000
C                 -2.1493020000     -1.0049880000      0.0954360000
C                 -3.3629310000     -1.6846640000      0.2432370000
C                 -4.5287060000     -1.1643970000     -0.3055520000
C                 -4.4922480000      0.0431700000     -1.0095540000
C                 -3.2903180000      0.7240180000     -1.1608300000
C                 -2.1128330000      0.2072420000     -0.6109260000
C                 -0.8308830000      0.9656600000     -0.7918020000
O                 -0.8256380000      2.0186920000     -1.4106760000
C                  0.3978720000      0.3831470000     -0.1948040000
C                  1.6114520000      1.0575750000     -0.3429250000
H                  3.6655130000     -1.0645050000      1.3113020000
H                  1.4901800000     -2.2945880000      1.5951820000
H                 -3.3632750000     -2.6180360000      0.7928990000
H                 -5.4670840000     -1.6956940000     -0.1876990000
H                 -5.4022520000      0.4491990000     -1.4381450000
H                 -3.2341070000      1.6610860000     -1.7012770000
H                  1.6411350000      1.9873320000     -0.8968040000
C                  0.3547960000     -0.8405720000      0.5149170000
S                  4.3597770000      1.4522560000      0.0543460000
O                  5.3892150000      0.4487750000      0.4182870000
O                  4.3813950000      1.8848920000     -1.3621860000
O                  4.2022320000      2.5562650000      1.0322280000
$end
$rem
MAX_SCF_CYCLES=200
BASIS  =  6-311++G(d,p)
GUI  =  2
JOB_TYPE  =  SP
METHOD  =  B3LYP
SOLVENT_METHOD = PCM
$end
$pcm
theory = CPCM
$end
$solvent
dielectric 37.219
opticaldielectric 1.43
$end

--------------------------------------------------------------

             Standard Nuclear Orientation (Angstroms)
    I     Atom           X                Y                Z
 ----------------------------------------------------------------
    1      C       2.7800980000     0.5335120000     0.2074580000
    2      C       2.7392180000    -0.6745790000     0.9064800000
    3      C       1.5366620000    -1.3551130000     1.0575640000
    4      C      -0.9076950000    -1.5894270000     0.6970470000
    5      O      -0.9621930000    -2.6485410000     1.3108080000
    6      C      -2.1493020000    -1.0049880000     0.0954360000
    7      C      -3.3629310000    -1.6846640000     0.2432370000
    8      C      -4.5287060000    -1.1643970000    -0.3055520000
    9      C      -4.4922480000     0.0431700000    -1.0095540000
   10      C      -3.2903180000     0.7240180000    -1.1608300000
   11      C      -2.1128330000     0.2072420000    -0.6109260000
   12      C      -0.8308830000     0.9656600000    -0.7918020000
   13      O      -0.8256380000     2.0186920000    -1.4106760000
   14      C       0.3978720000     0.3831470000    -0.1948040000
   15      C       1.6114520000     1.0575750000    -0.3429250000
   16      H       3.6655130000    -1.0645050000     1.3113020000
   17      H       1.4901800000    -2.2945880000     1.5951820000
   18      H      -3.3632750000    -2.6180360000     0.7928990000
   19      H      -5.4670840000    -1.6956940000    -0.1876990000
   20      H      -5.4022520000     0.4491990000    -1.4381450000
   21      H      -3.2341070000     1.6610860000    -1.7012770000
   22      H       1.6411350000     1.9873320000    -0.8968040000
   23      C       0.3547960000    -0.8405720000     0.5149170000
   24      S       4.3597770000     1.4522560000     0.0543460000
   25      O       5.3892150000     0.4487750000     0.4182870000
   26      O       4.3813950000     1.8848920000    -1.3621860000
   27      O       4.2022320000     2.5562650000     1.0322280000
 ----------------------------------------------------------------

    9   -1312.4346627746      4.60e-06  Convergence criterion met
 Total energy in the final basis set =    -1312.4346627746

                    Orbital Energies (a.u.)
 --------------------------------------------------------------

 Alpha MOs
 -- Occupied --
-89.0539 -19.1320 -19.1315 -19.0994 -19.0994 -19.0988 -10.2842 -10.2838
-10.2156 -10.2126 -10.2111 -10.2066 -10.2060 -10.2031 -10.2005 -10.1998
-10.1956 -10.1951 -10.1944 -10.1943  -8.1127  -6.0754  -6.0753  -6.0746
 -1.1200  -1.0664  -1.0635  -0.9848  -0.9832  -0.8955  -0.8822  -0.8148
 -0.7835  -0.7751  -0.7720  -0.6945  -0.6752  -0.6491  -0.6203  -0.6026
 -0.5855  -0.5599  -0.5452  -0.5109  -0.4991  -0.4902  -0.4853  -0.4622
 -0.4604  -0.4587  -0.4549  -0.4542  -0.4507  -0.4469  -0.4398  -0.4196
 -0.4173  -0.3949  -0.3826  -0.3746  -0.3717  -0.3645  -0.3443  -0.3437
 -0.3198  -0.3071  -0.2988  -0.2884  -0.2873  -0.2791  -0.2759  -0.2758
 -0.2701  -0.2652

          Ground-State Mulliken Net Atomic Charges

     Atom                 Charge (a.u.)
  ----------------------------------------
      1 C                    -0.982382
      2 C                    -0.124811
      3 C                     0.206068
      4 C                    -0.539994
      5 O                    -0.284438
      6 C                     0.230481
      7 C                     0.171288
      8 C                    -0.459037
      9 C                    -0.421383
     10 C                     0.115834
     11 C                     0.397828
     12 C                    -0.683385
     13 O                    -0.278199
     14 C                     0.341375
     15 C                    -0.173912
     16 H                     0.256154
     17 H                     0.204239
     18 H                     0.197322
     19 H                     0.223180
     20 H                     0.224680
     21 H                     0.194659
     22 H                     0.215676
     23 C                     0.353475
     24 S                     0.760381
     25 O                    -0.401456
     26 O                    -0.386408
     27 O                    -0.357247
  ----------------------------------------
  Sum of atomic charges =    -1.000011

                    Cartesian Multipole Moments
 -----------------------------------------------------------------
    Charge (ESU x 10^10)
                -4.8033
    Dipole Moment (Debye)
         X     -24.0592      Y      -8.9923      Z       0.0635
       Tot      25.6848
    Quadrupole Moments (Debye-Ang)
        XX    -211.2085     XY     -37.6605     YY    -154.4497
        XZ       5.4167     YZ       4.3938     ZZ    -135.0472

 Total job time:  61.03s(wall), 441.61s(cpu)
        *  Thank you very much for using Q-Chem.  Have a nice day.  *
