 Q-Chem 5.4, Q-Chem, Inc., Pleasanton, CA (2021)
 Q-Chem 5.4.0 for Intel X86 EM64T Linux

User input:
--------------------------------------------------------------
$molecule
0 1
C                 -1.4503660000      0.2148860000     -0.1893600000
C                 -0.9964210000     -1.0393270000     -0.3741520000
C                  0.4172610000     -1.3734450000     -0.0217330000
C                  1.3562800000     -0.2834760000      0.3838580000
C                  0.9636660000      1.0015230000      0.2947770000
C                 -0.4807920000      1.3201680000      0.0798220000
O                 -0.8676610000      2.4802790000      0.1238620000
O                  0.8039660000     -2.5336410000     -0.0650190000
C                  1.9161270000      2.1623160000      0.4261020000
C                  2.7274520000     -0.6923320000      0.8578220000
C                  3.6848110000      0.4744910000      1.0088710000
C                  3.3029710000      1.7540580000      0.8852450000
C                 -2.9110360000      0.5790520000     -0.2645580000
C                 -3.7859850000     -0.5460990000     -0.7834950000
C                 -3.3275560000     -1.7873440000     -1.0015930000
C                 -1.8590500000     -2.1550220000     -0.9061900000
H                  1.4921580000      2.8718590000      1.1479940000
C                  2.0073590000      2.9145150000     -0.9323270000
H                  3.1405270000     -1.4055600000      0.1332520000
C                  2.6035560000     -1.4548460000      2.2078450000
C                  5.1057680000      0.0837210000      1.3610170000
C                  4.2465360000      2.9099320000      1.1486590000
C                 -5.2391860000     -0.1712180000     -0.9918990000
C                 -4.2381440000     -2.9264290000     -1.4128630000
C                 -1.3319320000     -2.5981410000     -2.3008780000
H                  2.4208290000      2.2554140000     -1.7008160000
H                  2.6603710000      3.7850620000     -0.8447600000
H                  1.0257210000      3.2639890000     -1.2500830000
H                  2.1901000000     -0.7956740000      2.9762810000
H                  3.5838030000     -1.7968160000      2.5456730000
H                  1.9625390000     -2.3293690000      2.1029730000
H                  5.3434940000     -0.9049140000      0.9577950000
H                  5.2653350000      0.0319930000      2.4444420000
H                  5.8357500000      0.7858030000      0.9562570000
H                  4.9696520000      2.6779200000      1.9315340000
H                  3.6895600000      3.7951660000      1.4690190000
H                  4.8115420000      3.1963480000      0.2538580000
H                 -5.3304700000      0.8905570000     -1.2384640000
H                 -5.8446290000     -0.3423710000     -0.0940790000
H                 -5.6948290000     -0.7360720000     -1.8061200000
H                 -5.2347910000     -2.8304390000     -0.9803020000
H                 -3.8280870000     -3.8848600000     -1.0815340000
H                 -4.3568930000     -2.9905120000     -2.5008590000
C                 -3.4057900000      1.0311900000      1.1390640000
H                 -3.0123940000      1.4485940000     -0.9263210000
H                 -1.7468750000     -3.0203770000     -0.2406730000
H                 -1.4126980000     -1.7727360000     -3.0137120000
H                 -1.9186980000     -3.4355700000     -2.6834740000
H                 -0.2926200000     -2.9187610000     -2.2399120000
H                 -3.3246940000      0.2051450000      1.8511190000
H                 -4.4521190000      1.3398130000      1.0950900000
H                 -2.8231910000      1.8766760000      1.5030090000
$end

$rem
BASIS  =  6-311++G(d,p)
GUI  =  2
JOB_TYPE  =  SP
METHOD  =  B3LYP
SCF_CONVERGENCE  = 8
SOLVENT_METHOD = sm12
$end

$smx
solvent dimethylformamide
charges CM5
$end

--------------------------------------------------------------

             Standard Nuclear Orientation (Angstroms)
    I     Atom           X                Y                Z
 ----------------------------------------------------------------
    1      C      -1.4503660000     0.2148860000    -0.1893600000
    2      C      -0.9964210000    -1.0393270000    -0.3741520000
    3      C       0.4172610000    -1.3734450000    -0.0217330000
    4      C       1.3562800000    -0.2834760000     0.3838580000
    5      C       0.9636660000     1.0015230000     0.2947770000
    6      C      -0.4807920000     1.3201680000     0.0798220000
    7      O      -0.8676610000     2.4802790000     0.1238620000
    8      O       0.8039660000    -2.5336410000    -0.0650190000
    9      C       1.9161270000     2.1623160000     0.4261020000
   10      C       2.7274520000    -0.6923320000     0.8578220000
   11      C       3.6848110000     0.4744910000     1.0088710000
   12      C       3.3029710000     1.7540580000     0.8852450000
   13      C      -2.9110360000     0.5790520000    -0.2645580000
   14      C      -3.7859850000    -0.5460990000    -0.7834950000
   15      C      -3.3275560000    -1.7873440000    -1.0015930000
   16      C      -1.8590500000    -2.1550220000    -0.9061900000
   17      H       1.4921580000     2.8718590000     1.1479940000
   18      C       2.0073590000     2.9145150000    -0.9323270000
   19      H       3.1405270000    -1.4055600000     0.1332520000
   20      C       2.6035560000    -1.4548460000     2.2078450000
   21      C       5.1057680000     0.0837210000     1.3610170000
   22      C       4.2465360000     2.9099320000     1.1486590000
   23      C      -5.2391860000    -0.1712180000    -0.9918990000
   24      C      -4.2381440000    -2.9264290000    -1.4128630000
   25      C      -1.3319320000    -2.5981410000    -2.3008780000
   26      H       2.4208290000     2.2554140000    -1.7008160000
   27      H       2.6603710000     3.7850620000    -0.8447600000
   28      H       1.0257210000     3.2639890000    -1.2500830000
   29      H       2.1901000000    -0.7956740000     2.9762810000
   30      H       3.5838030000    -1.7968160000     2.5456730000
   31      H       1.9625390000    -2.3293690000     2.1029730000
   32      H       5.3434940000    -0.9049140000     0.9577950000
   33      H       5.2653350000     0.0319930000     2.4444420000
   34      H       5.8357500000     0.7858030000     0.9562570000
   35      H       4.9696520000     2.6779200000     1.9315340000
   36      H       3.6895600000     3.7951660000     1.4690190000
   37      H       4.8115420000     3.1963480000     0.2538580000
   38      H      -5.3304700000     0.8905570000    -1.2384640000
   39      H      -5.8446290000    -0.3423710000    -0.0940790000
   40      H      -5.6948290000    -0.7360720000    -1.8061200000
   41      H      -5.2347910000    -2.8304390000    -0.9803020000
   42      H      -3.8280870000    -3.8848600000    -1.0815340000
   43      H      -4.3568930000    -2.9905120000    -2.5008590000
   44      C      -3.4057900000     1.0311900000     1.1390640000
   45      H      -3.0123940000     1.4485940000    -0.9263210000
   46      H      -1.7468750000    -3.0203770000    -0.2406730000
   47      H      -1.4126980000    -1.7727360000    -3.0137120000
   48      H      -1.9186980000    -3.4355700000    -2.6834740000
   49      H      -0.2926200000    -2.9187610000    -2.2399120000
   50      H      -3.3246940000     0.2051450000     1.8511190000
   51      H      -4.4521190000     1.3398130000     1.0950900000
   52      H      -2.8231910000     1.8766760000     1.5030090000
 ----------------------------------------------------------------

   14   -1005.8958188140      5.65e-09  Convergence criterion met
 Total energy in the final basis set =    -1005.9103759809

                    Orbital Energies (a.u.)
 --------------------------------------------------------------

 Alpha MOs
 -- Occupied --
-19.1324 -19.1324 -10.2786 -10.2786 -10.2072 -10.2071 -10.2064 -10.2063
-10.1921 -10.1921 -10.1920 -10.1920 -10.1760 -10.1758 -10.1752 -10.1750
-10.1635 -10.1635 -10.1634 -10.1634 -10.1627 -10.1627 -10.1626 -10.1625
 -1.0658  -1.0638  -0.8828  -0.8679  -0.8214  -0.8011  -0.7996  -0.7902
 -0.7409  -0.7211  -0.7170  -0.7140  -0.6880  -0.6801  -0.6681  -0.6596
 -0.6261  -0.6158  -0.5967  -0.5891  -0.5730  -0.5360  -0.5117  -0.5011
 -0.4824  -0.4796  -0.4725  -0.4707  -0.4669  -0.4516  -0.4405  -0.4402
 -0.4288  -0.4275  -0.4254  -0.4247  -0.4165  -0.4146  -0.4053  -0.4024
 -0.3986  -0.3954  -0.3949  -0.3948  -0.3872  -0.3815  -0.3764  -0.3758
 -0.3735  -0.3687  -0.3644  -0.3628  -0.3626  -0.3599  -0.3421  -0.3377
 -0.3282  -0.3254  -0.2939  -0.2837  -0.2701  -0.2619  -0.2341  -0.2337

          Ground-State Mulliken Net Atomic Charges

     Atom                 Charge (a.u.)
  ----------------------------------------
      1 C                     0.020551
      2 C                     0.010835
      3 C                    -1.410741
      4 C                     0.007521
      5 C                     0.009221
      6 C                    -1.417308
      7 O                    -0.181638
      8 O                    -0.181674
      9 C                     0.204979
     10 C                     0.207204
     11 C                     0.066749
     12 C                     0.071707
     13 C                     0.211296
     14 C                     0.071673
     15 C                     0.074153
     16 C                     0.209747
     17 H                     0.195371
     18 C                    -0.733681
     19 H                     0.194638
     20 C                    -0.732478
     21 C                    -0.067195
     22 C                    -0.069737
     23 C                    -0.064318
     24 C                    -0.065504
     25 C                    -0.730542
     26 H                     0.137511
     27 H                     0.200795
     28 H                     0.152963
     29 H                     0.137229
     30 H                     0.200669
     31 H                     0.153224
     32 H                     0.201938
     33 H                     0.222296
     34 H                     0.195126
     35 H                     0.195205
     36 H                     0.201870
     37 H                     0.221987
     38 H                     0.201902
     39 H                     0.222140
     40 H                     0.195318
     41 H                     0.195265
     42 H                     0.201957
     43 H                     0.222055
     44 C                    -0.730295
     45 H                     0.194653
     46 H                     0.194638
     47 H                     0.136687
     48 H                     0.201159
     49 H                     0.152215
     50 H                     0.136453
     51 H                     0.201070
     52 H                     0.153141
  ----------------------------------------
  Sum of atomic charges =     0.000000

                    Cartesian Multipole Moments
 -----------------------------------------------------------------
    Charge (ESU x 10^10)
                -0.0000
    Dipole Moment (Debye)
         X      -0.0057      Y      -0.0006      Z      -0.0058
       Tot       0.0081
    Quadrupole Moments (Debye-Ang)
        XX    -129.5424     XY       8.9766     YY    -154.0847
        XZ       4.9424     YZ       1.2194     ZZ    -145.7990

 Total job time:  3411.30s(wall), 21097.55s(cpu)
        *  Thank you very much for using Q-Chem.  Have a nice day.  *
