 Gaussian 16, Revision A.03,
 Gaussian 16:  ES64L-G16RevA.03 25-Dec-2016

 ---------------------------------------------------
 #P UB3LYP/6-311++G(d,p) nosym opt freq Int=Acc2E=11
 ---------------------------------------------------

 --------
 Oxidized
 --------
 Symbolic Z-matrix:
 Charge =  0 Multiplicity = 1

 SCF Done:  E(UB3LYP) =  -1005.89626639     A.U. after   14 cycles
 Optimization completed.
    -- Stationary point found.
 Normal termination of Gaussian 16 at Sat Jan  6 20:04:34 2024.

 ----------------------------------------------------------------------
 #P Geom=AllCheck Guess=TCheck SCRF=Check GenChk UB3LYP/6-311++G(d,p) F
 req
 ----------------------------------------------------------------------

 Structure from the checkpoint file:  "055.chk"
 --------
 Oxidized
 --------
 Charge =  0 Multiplicity = 1

                          Input orientation:
 ---------------------------------------------------------------------
 Center     Atomic      Atomic             Coordinates (Angstroms)
 Number     Number       Type             X           Y           Z
 ---------------------------------------------------------------------
      1          6           0       -1.450366    0.214886   -0.189360
      2          6           0       -0.996421   -1.039327   -0.374152
      3          6           0        0.417261   -1.373445   -0.021733
      4          6           0        1.356280   -0.283476    0.383858
      5          6           0        0.963666    1.001523    0.294777
      6          6           0       -0.480792    1.320168    0.079822
      7          8           0       -0.867661    2.480279    0.123862
      8          8           0        0.803966   -2.533641   -0.065019
      9          6           0        1.916127    2.162316    0.426102
     10          6           0        2.727452   -0.692332    0.857822
     11          6           0        3.684811    0.474491    1.008871
     12          6           0        3.302971    1.754058    0.885245
     13          6           0       -2.911036    0.579052   -0.264558
     14          6           0       -3.785985   -0.546099   -0.783495
     15          6           0       -3.327556   -1.787344   -1.001593
     16          6           0       -1.859050   -2.155022   -0.906190
     17          1           0        1.492158    2.871859    1.147994
     18          6           0        2.007359    2.914515   -0.932327
     19          1           0        3.140527   -1.405560    0.133252
     20          6           0        2.603556   -1.454846    2.207845
     21          6           0        5.105768    0.083721    1.361017
     22          6           0        4.246536    2.909932    1.148659
     23          6           0       -5.239186   -0.171218   -0.991899
     24          6           0       -4.238144   -2.926429   -1.412863
     25          6           0       -1.331932   -2.598141   -2.300878
     26          1           0        2.420829    2.255414   -1.700816
     27          1           0        2.660371    3.785062   -0.844760
     28          1           0        1.025721    3.263989   -1.250083
     29          1           0        2.190100   -0.795674    2.976281
     30          1           0        3.583803   -1.796816    2.545673
     31          1           0        1.962539   -2.329369    2.102973
     32          1           0        5.343494   -0.904914    0.957795
     33          1           0        5.265335    0.031993    2.444442
     34          1           0        5.835750    0.785803    0.956257
     35          1           0        4.969652    2.677920    1.931534
     36          1           0        3.689560    3.795166    1.469019
     37          1           0        4.811542    3.196348    0.253858
     38          1           0       -5.330470    0.890557   -1.238464
     39          1           0       -5.844629   -0.342371   -0.094079
     40          1           0       -5.694829   -0.736072   -1.806120
     41          1           0       -5.234791   -2.830439   -0.980302
     42          1           0       -3.828087   -3.884860   -1.081534
     43          1           0       -4.356893   -2.990512   -2.500859
     44          6           0       -3.405790    1.031190    1.139064
     45          1           0       -3.012394    1.448594   -0.926321
     46          1           0       -1.746875   -3.020377   -0.240673
     47          1           0       -1.412698   -1.772736   -3.013712
     48          1           0       -1.918698   -3.435570   -2.683474
     49          1           0       -0.292620   -2.918761   -2.239912
     50          1           0       -3.324694    0.205145    1.851119
     51          1           0       -4.452119    1.339813    1.095090
     52          1           0       -2.823191    1.876676    1.503009
 ---------------------------------------------------------------------

 SCF Done:  E(UB3LYP) =  -1005.89626639     A.U. after    2 cycles

 Alpha  occ. eigenvalues --  -19.12809 -19.12809 -10.27437 -10.27436 -10.20392
 Alpha  occ. eigenvalues --  -10.20391 -10.20314 -10.20314 -10.19048 -10.19047
 Alpha  occ. eigenvalues --  -10.19047 -10.19046 -10.17652 -10.17652 -10.17571
 Alpha  occ. eigenvalues --  -10.17571 -10.16744 -10.16744 -10.16743 -10.16743
 Alpha  occ. eigenvalues --  -10.16250 -10.16250 -10.16249 -10.16248  -1.06146
 Alpha  occ. eigenvalues --   -1.05938  -0.88074  -0.86681  -0.82109  -0.79991
 Alpha  occ. eigenvalues --   -0.79838  -0.79041  -0.74080  -0.71972  -0.71925
 Alpha  occ. eigenvalues --   -0.71715  -0.68582  -0.68097  -0.67027  -0.65791
 Alpha  occ. eigenvalues --   -0.62517  -0.61589  -0.59569  -0.58839  -0.57003
 Alpha  occ. eigenvalues --   -0.53339  -0.51191  -0.49981  -0.48088  -0.47970
 Alpha  occ. eigenvalues --   -0.47095  -0.46958  -0.46598  -0.44759  -0.44006
 Alpha  occ. eigenvalues --   -0.43983  -0.43162  -0.42655  -0.42591  -0.42232
 Alpha  occ. eigenvalues --   -0.41771  -0.41610  -0.40888  -0.40545  -0.40012
 Alpha  occ. eigenvalues --   -0.39890  -0.39754  -0.39421  -0.38916  -0.38151
 Alpha  occ. eigenvalues --   -0.38061  -0.37613  -0.37513  -0.36753  -0.36464
 Alpha  occ. eigenvalues --   -0.36282  -0.36165  -0.35824  -0.34169  -0.33717
 Alpha  occ. eigenvalues --   -0.32876  -0.32511  -0.29009  -0.27911  -0.26740
 Alpha  occ. eigenvalues --   -0.25826  -0.23424  -0.23374
 Alpha virt. eigenvalues --   -0.12091  -0.02034  -0.01046  -0.00860  -0.00087
 Alpha virt. eigenvalues --    0.00398   0.00412   0.00757   0.00838   0.01276
 Alpha virt. eigenvalues --    0.01288   0.01551   0.02336   0.02562   0.03101

  Beta  occ. eigenvalues --  -19.12809 -19.12809 -10.27437 -10.27436 -10.20392
  Beta  occ. eigenvalues --  -10.20391 -10.20314 -10.20314 -10.19048 -10.19047
  Beta  occ. eigenvalues --  -10.19047 -10.19046 -10.17652 -10.17652 -10.17571
  Beta  occ. eigenvalues --  -10.17571 -10.16744 -10.16744 -10.16743 -10.16743
  Beta  occ. eigenvalues --  -10.16250 -10.16250 -10.16249 -10.16248  -1.06146
  Beta  occ. eigenvalues --   -1.05938  -0.88074  -0.86681  -0.82109  -0.79991
  Beta  occ. eigenvalues --   -0.79838  -0.79041  -0.74080  -0.71972  -0.71925
  Beta  occ. eigenvalues --   -0.71715  -0.68582  -0.68097  -0.67027  -0.65791
  Beta  occ. eigenvalues --   -0.62517  -0.61589  -0.59569  -0.58839  -0.57003
  Beta  occ. eigenvalues --   -0.53339  -0.51191  -0.49981  -0.48088  -0.47970
  Beta  occ. eigenvalues --   -0.47095  -0.46958  -0.46598  -0.44759  -0.44006
  Beta  occ. eigenvalues --   -0.43983  -0.43162  -0.42655  -0.42591  -0.42232
  Beta  occ. eigenvalues --   -0.41771  -0.41610  -0.40888  -0.40545  -0.40012
  Beta  occ. eigenvalues --   -0.39890  -0.39754  -0.39421  -0.38916  -0.38151
  Beta  occ. eigenvalues --   -0.38061  -0.37613  -0.37513  -0.36753  -0.36464
  Beta  occ. eigenvalues --   -0.36282  -0.36165  -0.35824  -0.34169  -0.33717
  Beta  occ. eigenvalues --   -0.32876  -0.32511  -0.29009  -0.27911  -0.26740
  Beta  occ. eigenvalues --   -0.25826  -0.23424  -0.23374
  Beta virt. eigenvalues --   -0.12091  -0.02034  -0.01046  -0.00860  -0.00087
  Beta virt. eigenvalues --    0.00398   0.00412   0.00757   0.00838   0.01276
  Beta virt. eigenvalues --    0.01288   0.01551   0.02336   0.02562   0.03101

 Mulliken charges and spin densities:
               1          2
     1  C    0.410043  -0.000000
     2  C    0.408185  -0.000000
     3  C   -1.060563  -0.000000
     4  C    0.409985   0.000000
     5  C    0.409236   0.000000
     6  C   -1.064382   0.000000
     7  O   -0.158615  -0.000000
     8  O   -0.158639   0.000000
     9  C    0.202648   0.000000
    10  C    0.202205   0.000000
    11  C    0.222427   0.000000
    12  C    0.221904   0.000000
    13  C    0.203084  -0.000000
    14  C    0.221738   0.000000
    15  C    0.222670   0.000000
    16  C    0.202518   0.000000
    17  H    0.234674   0.000000
    18  C   -0.833127   0.000000
    19  H    0.234544   0.000000
    20  C   -0.832875  -0.000000
    21  C   -0.636211  -0.000000
    22  C   -0.635742  -0.000000
    23  C   -0.635361  -0.000000
    24  C   -0.636686  -0.000000
    25  C   -0.833389  -0.000000
    26  H    0.153061   0.000000
    27  H    0.154750  -0.000000
    28  H    0.193255  -0.000000
    29  H    0.153008  -0.000000
    30  H    0.154752   0.000000
    31  H    0.193279   0.000000
    32  H    0.160179  -0.000000
    33  H    0.190434  -0.000000
    34  H    0.159144   0.000000
    35  H    0.159134   0.000000
    36  H    0.160187  -0.000000
    37  H    0.190421  -0.000000
    38  H    0.160162   0.000000
    39  H    0.190418   0.000000
    40  H    0.159148  -0.000000
    41  H    0.159113   0.000000
    42  H    0.160200  -0.000000
    43  H    0.190380  -0.000000
    44  C   -0.832787   0.000000
    45  H    0.234590  -0.000000
    46  H    0.234705  -0.000000
    47  H    0.153105   0.000000
    48  H    0.154726   0.000000
    49  H    0.193218  -0.000000
    50  H    0.153023   0.000000
    51  H    0.154805  -0.000000
    52  H    0.193320  -0.000000
 Sum of Mulliken charges =  -0.00000  -0.00000

 Dipole moment (field-independent basis, Debye):
    X=              0.0007    Y=              0.0004    Z=             -0.0024  Tot=              0.0026
 Quadrupole moment (field-independent basis, Debye-Ang):
   XX=           -133.4914   YY=           -154.5846   ZZ=           -146.0743
   XY=              7.7335   XZ=              3.9163   YZ=              0.8878

  Exact polarizability: 291.015  -2.503 294.600  23.101  11.549 193.379
 Approx polarizability: 364.835 -68.798 546.907   7.678  12.752 299.325

                      1                      2                      3
                      A                      A                      A
 Frequencies --     24.7663                53.5049                62.0458
 Red. masses --      4.2946                 3.1904                 2.8910
 Frc consts  --      0.0016                 0.0054                 0.0066
 IR Inten    --      1.1448                 0.0004                 0.0022

                      4                      5                      6
                      A                      A                      A
 Frequencies --     72.5764                94.4086               110.8150
 Red. masses --      2.9846                 5.2934                 1.0835
 Frc consts  --      0.0093                 0.0278                 0.0078
 IR Inten    --      1.7116                 0.0091                 0.0293

                      7                      8                      9
                      A                      A                      A
 Frequencies --    113.4001               115.1926               117.4581
 Red. masses --      1.0873                 1.0977                 1.1408
 Frc consts  --      0.0082                 0.0086                 0.0093
 IR Inten    --      0.0327                 0.0504                 0.3697

                     10                     11                     12
                      A                      A                      A
 Frequencies --    126.5326               130.0483               131.3177
 Red. masses --      2.8104                 4.2366                 3.0932
 Frc consts  --      0.0265                 0.0422                 0.0314
 IR Inten    --      0.0028                 1.7421                 0.0763

                     13                     14                     15
                      A                      A                      A
 Frequencies --    135.8400               160.3748               201.3565
 Red. masses --      3.2588                 3.5467                 1.3073
 Frc consts  --      0.0354                 0.0537                 0.0312
 IR Inten    --      0.7194                 0.0053                 1.6437

                     16                     17                     18
                      A                      A                      A
 Frequencies --    202.7851               206.9731               216.1612
 Red. masses --      1.2870                 1.6364                 1.1521
 Frc consts  --      0.0312                 0.0413                 0.0317
 IR Inten    --      0.6194                 0.0037                 0.0451

                     19                     20                     21
                      A                      A                      A
 Frequencies --    234.5915               241.4974               253.4647
 Red. masses --      1.6620                 4.3437                 3.3225
 Frc consts  --      0.0539                 0.1493                 0.1258
 IR Inten    --      0.0001                 2.5830                 0.4913

                     22                     23                     24
                      A                      A                      A
 Frequencies --    270.5957               279.7249               281.2733
 Red. masses --      1.8443                 3.4618                 1.8685
 Frc consts  --      0.0796                 0.1596                 0.0871
 IR Inten    --      2.7912                 0.0010                 0.0601

                     25                     26                     27
                      A                      A                      A
 Frequencies --    313.6971               330.2059               343.2114
 Red. masses --      2.4904                 2.6148                 2.5461
 Frc consts  --      0.1444                 0.1680                 0.1767
 IR Inten    --      1.7083                 0.0000                 1.4498

                     28                     29                     30
                      A                      A                      A
 Frequencies --    344.3281               352.0723               352.9475
 Red. masses --      5.0817                 4.6656                 3.4860
 Frc consts  --      0.3550                 0.3407                 0.2559
 IR Inten    --      0.0017                 3.2993                 0.0174

                     31                     32                     33
                      A                      A                      A
 Frequencies --    355.8654               370.9887               435.9359
 Red. masses --      2.4986                 6.0330                 4.5062
 Frc consts  --      0.1864                 0.4892                 0.5045
 IR Inten    --      0.0112                15.8472                 0.4955

                     34                     35                     36
                      A                      A                      A
 Frequencies --    477.5811               478.8605               482.2742
 Red. masses --      3.6621                11.3175                 6.1093
 Frc consts  --      0.4921                 1.5290                 0.8372
 IR Inten    --      3.5681                 0.0008                 6.7639

                     37                     38                     39
                      A                      A                      A
 Frequencies --    521.3471               528.4700               562.3411
 Red. masses --      4.1443                 2.9732                 4.2624
 Frc consts  --      0.6637                 0.4892                 0.7941
 IR Inten    --      0.0726                 3.5392                 6.3538

                     40                     41                     42
                      A                      A                      A
 Frequencies --    577.6854               584.1993               586.8877
 Red. masses --      4.6856                 4.6504                 2.9495
 Frc consts  --      0.9213                 0.9351                 0.5986
 IR Inten    --      0.0000                 0.1612                 2.0708

                     43                     44                     45
                      A                      A                      A
 Frequencies --    595.9403               608.9896               677.8345
 Red. masses --      3.9882                 4.3083                 3.5718
 Frc consts  --      0.8345                 0.9414                 0.9669
 IR Inten    --      0.0001                 7.6943                 0.0209

                     46                     47                     48
                      A                      A                      A
 Frequencies --    706.7343               718.7474               728.2788
 Red. masses --      2.8725                 3.3221                 2.7857
 Frc consts  --      0.8453                 1.0111                 0.8705
 IR Inten    --      1.2277                 0.0001                 0.0001

                     49                     50                     51
                      A                      A                      A
 Frequencies --    760.9268               779.6568               830.3774
 Red. masses --      5.5029                 6.3847                 7.6255
 Frc consts  --      1.8773                 2.2866                 3.0979
 IR Inten    --      4.3278                12.9482                 2.7626

                     52                     53                     54
                      A                      A                      A
 Frequencies --    855.2921               863.7764               869.9177
 Red. masses --      2.3904                 2.4468                 2.1987
 Frc consts  --      1.0303                 1.0756                 0.9803
 IR Inten    --      0.0465                45.8172                 1.0035

                     55                     56                     57
                      A                      A                      A
 Frequencies --    924.3919               943.3949               951.1237
 Red. masses --      2.9321                 2.5576                 1.8842
 Frc consts  --      1.4762                 1.3411                 1.0043
 IR Inten    --      0.9059                 0.0022                 0.4032

                     58                     59                     60
                      A                      A                      A
 Frequencies --    967.0020               998.0204               998.9218
 Red. masses --      2.1952                 1.3802                 1.3431
 Frc consts  --      1.2094                 0.8099                 0.7896
 IR Inten    --     36.0646                 1.3728                 0.9855

                     61                     62                     63
                      A                      A                      A
 Frequencies --   1001.2716              1006.0934              1023.2734
 Red. masses --      1.4656                 1.5311                 2.5398
 Frc consts  --      0.8657                 0.9131                 1.5669
 IR Inten    --      0.0031                 0.9820                 0.2189

                     64                     65                     66
                      A                      A                      A
 Frequencies --   1024.7221              1035.9965              1045.8156
 Red. masses --      2.5582                 1.6201                 1.5232
 Frc consts  --      1.5827                 1.0245                 0.9816
 IR Inten    --      2.3445                 0.0001                 2.1793

                     67                     68                     69
                      A                      A                      A
 Frequencies --   1050.1727              1057.4616              1072.1280
 Red. masses --      1.8785                 1.7863                 1.8937
 Frc consts  --      1.2206                 1.1769                 1.2825
 IR Inten    --      0.0003                26.6245                 0.7856

                     70                     71                     72
                      A                      A                      A
 Frequencies --   1075.9543              1086.6037              1087.6172
 Red. masses --      1.7155                 1.9595                 1.9963
 Frc consts  --      1.1701                 1.3631                 1.3913
 IR Inten    --      0.8913                 4.1961                 0.0010

                     73                     74                     75
                      A                      A                      A
 Frequencies --   1099.2774              1109.7768              1127.4198
 Red. masses --      1.9038                 2.3212                 2.8719
 Frc consts  --      1.3555                 1.6844                 2.1508
 IR Inten    --     21.0273                 0.2482                 0.0001

                     76                     77                     78
                      A                      A                      A
 Frequencies --   1153.4009              1165.7963              1167.0070
 Red. masses --      2.8244                 2.0331                 2.0941
 Frc consts  --      2.2138                 1.6280                 1.6804
 IR Inten    --      0.0738                 0.0817                 0.7570

                     79                     80                     81
                      A                      A                      A
 Frequencies --   1167.1005              1219.3342              1233.6999
 Red. masses --      2.9285                 1.7894                 1.6036
 Frc consts  --      2.3502                 1.5675                 1.4380
 IR Inten    --      2.4876                26.3720                 0.0026

                     82                     83                     84
                      A                      A                      A
 Frequencies --   1254.9588              1283.3158              1300.2435
 Red. masses --      3.5305                 4.9901                 1.3283
 Frc consts  --      3.2760                 4.8420                 1.3231
 IR Inten    --      8.0885               243.9941                 0.1975

                     85                     86                     87
                      A                      A                      A
 Frequencies --   1300.6054              1301.4384              1302.0938
 Red. masses --      1.4101                 1.3392                 1.4401
 Frc consts  --      1.4053                 1.3364                 1.4386
 IR Inten    --      0.9139                 0.5370                13.0819

                     88                     89                     90
                      A                      A                      A
 Frequencies --   1307.6874              1352.7649              1355.0940
 Red. masses --      3.5625                 1.8693                 1.8525
 Frc consts  --      3.5894                 2.0155                 2.0042
 IR Inten    --      2.0662                16.8652                 0.0130

                     91                     92                     93
                      A                      A                      A
 Frequencies --   1396.2332              1396.5845              1396.7686
 Red. masses --      1.2122                 1.2044                 1.6229
 Frc consts  --      1.3923                 1.3841                 1.8655
 IR Inten    --      0.7854                 1.0597                 5.4157

                     94                     95                     96
                      A                      A                      A
 Frequencies --   1397.6396              1399.5534              1408.6790
 Red. masses --      1.2811                 1.4228                 1.3061
 Frc consts  --      1.4744                 1.6419                 1.5270
 IR Inten    --     17.3181                22.0349                 3.1364

                     97                     98                     99
                      A                      A                      A
 Frequencies --   1410.3071              1416.4562              1416.6614
 Red. masses --      1.4077                 1.2026                 1.2053
 Frc consts  --      1.6496                 1.4216                 1.4252
 IR Inten    --     10.1732                 5.5754                 5.9609

                    100                    101                    102
                      A                      A                      A
 Frequencies --   1417.1013              1481.4025              1481.5467
 Red. masses --      2.5481                 1.0608                 1.0607
 Frc consts  --      3.0149                 1.3716                 1.3717
 IR Inten    --      8.8775                 3.6207                 3.7625

                    103                    104                    105
                      A                      A                      A
 Frequencies --   1484.4826              1484.6784              1494.2527
 Red. masses --      1.0516                 1.0529                 1.0580
 Frc consts  --      1.3653                 1.3674                 1.3918
 IR Inten    --     19.4746                22.9395                 2.1500

                    106                    107                    108
                      A                      A                      A
 Frequencies --   1494.9440              1496.1909              1496.3533
 Red. masses --      1.0599                 1.0425                 1.0424
 Frc consts  --      1.3956                 1.3750                 1.3752
 IR Inten    --      0.0570                10.7473                17.6081

                    109                    110                    111
                      A                      A                      A
 Frequencies --   1500.4233              1500.9555              1511.7749
 Red. masses --      1.0870                 1.0895                 1.0435
 Frc consts  --      1.4418                 1.4461                 1.4051
 IR Inten    --      3.0151                 1.7308                 0.4886

                    112                    113                    114
                      A                      A                      A
 Frequencies --   1511.9236              1512.9302              1513.0900
 Red. masses --      1.0439                 1.0461                 1.0463
 Frc consts  --      1.4059                 1.4108                 1.4114
 IR Inten    --      0.2435                16.3473                 7.7204

                    115                    116                    117
                      A                      A                      A
 Frequencies --   1513.3817              1513.9765              1658.1356
 Red. masses --      1.0490                 1.0491                 9.8069
 Frc consts  --      1.4156                 1.4168                15.8862
 IR Inten    --      2.0357                 1.8290                72.4601

                    118                    119                    120
                      A                      A                      A
 Frequencies --   1692.6447              1694.1384              1695.4210
 Red. masses --     12.1064                 9.2763                12.5603
 Frc consts  --     20.4361                15.6864                21.2719
 IR Inten    --      0.0005                 0.0107               376.6017

                    121                    122                    123
                      A                      A                      A
 Frequencies --   1727.5715              1735.9651              3005.0553
 Red. masses --      8.3533                 9.0620                 1.0798
 Frc consts  --     14.6886                16.0900                 5.7450
 IR Inten    --      2.3522                 0.0002                 8.3579

                    124                    125                    126
                      A                      A                      A
 Frequencies --   3005.1545              3005.7897              3005.8564
 Red. masses --      1.0798                 1.0799                 1.0798
 Frc consts  --      5.7453                 5.7483                 5.7482
 IR Inten    --     17.8516                 0.3060                 0.0505

                    127                    128                    129
                      A                      A                      A
 Frequencies --   3013.9734              3014.0711              3014.1211
 Red. masses --      1.0456                 1.0454                 1.0453
 Frc consts  --      5.5963                 5.5955                 5.5954
 IR Inten    --     37.8759                29.0694                22.8709

                    130                    131                    132
                      A                      A                      A
 Frequencies --   3014.3237              3036.1474              3036.3048
 Red. masses --      1.0452                 1.0379                 1.0378
 Frc consts  --      5.5955                 5.6372                 5.6373
 IR Inten    --     25.4565                22.5977                12.9101

                    133                    134                    135
                      A                      A                      A
 Frequencies --   3036.3699              3036.6513              3064.3618
 Red. masses --      1.0380                 1.0378                 1.0928
 Frc consts  --      5.6382                 5.6386                 6.0463
 IR Inten    --     80.9601                 0.6453                39.5747

                    136                    137                    138
                      A                      A                      A
 Frequencies --   3064.4129              3067.0988              3067.1414
 Red. masses --      1.0928                 1.0936                 1.0936
 Frc consts  --      6.0463                 6.0613                 6.0615
 IR Inten    --     42.8098                 0.0608                 0.0566

                    139                    140                    141
                      A                      A                      A
 Frequencies --   3098.1635              3098.4130              3101.3164
 Red. masses --      1.1001                 1.1001                 1.1003
 Frc consts  --      6.2216                 6.2222                 6.2354
 IR Inten    --      7.0281                 9.3156                40.4442

                    142                    143                    144
                      A                      A                      A
 Frequencies --   3101.7061              3102.0534              3102.3060
 Red. masses --      1.1002                 1.1002                 1.1001
 Frc consts  --      6.2361                 6.2377                 6.2381
 IR Inten    --      9.0195                46.8335                45.3999

                    145                    146                    147
                      A                      A                      A
 Frequencies --   3110.6984              3110.8521              3130.6390
 Red. masses --      1.0976                 1.0976                 1.1003
 Frc consts  --      6.2578                 6.2582                 6.3538
 IR Inten    --     22.2980                15.8769                 7.2001

                    148                    149                    150
                      A                      A                      A
 Frequencies --   3130.8789              3130.9865              3131.2050
 Red. masses --      1.1003                 1.1002                 1.1002
 Frc consts  --      6.3547                 6.3543                 6.3552
 IR Inten    --      6.3365                25.3594                 8.4695

 - Thermochemistry -
 -------------------
 Temperature   298.150 Kelvin.  Pressure   1.00000 Atm.
 Atom     1 has atomic number  6 and mass  12.00000

 Molecular mass:   324.20893 amu.
 Principal axes and moments of inertia in atomic units:
                           1         2         3
     Eigenvalues --  3811.53668********************
           X            0.92343  -0.31598  -0.21777
           Y            0.29871   0.94810  -0.10903
           Z            0.24092   0.03564   0.96989
 This molecule is an asymmetric top.
 Rotational symmetry number  1.
 Warning -- assumption of classical behavior for rotation
           may cause significant error
 Rotational temperatures (Kelvin)      0.02272     0.00731     0.00609
 Rotational constants (GHZ):           0.47349     0.15233     0.12699
 Zero-point vibrational energy    1169177.9 (Joules/Mol)
                                  279.44022 (Kcal/Mol)
 Warning -- explicit consideration of  44 degrees of freedom as
           vibrations may cause significant error
 Vibrational temperatures:     35.63    76.98    89.27   104.42   135.83
          (Kelvin)            159.44   163.16   165.74   169.00   182.05
                              187.11   188.94   195.44   230.74   289.71
                              291.76   297.79   311.01   337.52   347.46
                              364.68   389.33   402.46   404.69   451.34
                              475.09   493.80   495.41   506.55   507.81
                              512.01   533.77   627.21   687.13   688.97
                              693.89   750.10   760.35   809.08   831.16
                              840.53   844.40   857.43   876.20   975.25
                             1016.83  1034.12  1047.83  1094.80  1121.75
                             1194.73  1230.57  1242.78  1251.62  1329.99
                             1357.33  1368.45  1391.30  1435.93  1437.23
                             1440.61  1447.54  1472.26  1474.35  1490.57
                             1504.70  1510.96  1521.45  1542.55  1548.06
                             1563.38  1564.84  1581.61  1596.72  1622.11
                             1659.49  1677.32  1679.06  1679.20  1754.35
                             1775.02  1805.61  1846.41  1870.76  1871.28
                             1872.48  1873.42  1881.47  1946.33  1949.68
                             2008.87  2009.37  2009.64  2010.89  2013.65
                             2026.77  2029.12  2037.96  2038.26  2038.89
                             2131.41  2131.62  2135.84  2136.12  2149.90
                             2150.89  2152.69  2152.92  2158.77  2159.54
                             2175.11  2175.32  2176.77  2177.00  2177.42
                             2178.27  2385.69  2435.34  2437.49  2439.33
                             2485.59  2497.67  4323.60  4323.75  4324.66
                             4324.76  4336.44  4336.58  4336.65  4336.94
                             4368.34  4368.57  4368.66  4369.06  4408.93
                             4409.01  4412.87  4412.93  4457.57  4457.93
                             4462.10  4462.66  4463.16  4463.53  4475.60
                             4475.82  4504.29  4504.64  4504.79  4505.11

 Zero-point correction=                           0.445316 (Hartree/Particle)
 Thermal correction to Energy=                    0.470700
 Thermal correction to Enthalpy=                  0.471644
 Thermal correction to Gibbs Free Energy=         0.391892
 Sum of electronic and zero-point Energies=          -1005.450950
 Sum of electronic and thermal Energies=             -1005.425567
 Sum of electronic and thermal Enthalpies=           -1005.424622
 Sum of electronic and thermal Free Energies=        -1005.504374

                     E (Thermal)             CV                S
                      KCal/Mol        Cal/Mol-Kelvin    Cal/Mol-Kelvin
 Total                  295.369             96.917            167.852
 Electronic               0.000              0.000              0.000
 Translational            0.889              2.981             43.224
 Rotational               0.889              2.981             34.816
 Vibrational            293.591             90.955             89.812
 Vibration     1          0.593              1.985              6.210
 Vibration     2          0.596              1.976              4.683
 Vibration     3          0.597              1.972              4.391
 Vibration     4          0.599              1.967              4.082
 Vibration     5          0.603              1.953              3.567
 Vibration     6          0.607              1.941              3.255
 Vibration     7          0.607              1.938              3.210
 Vibration     8          0.608              1.937              3.179
 Vibration     9          0.608              1.935              3.142
 Vibration    10          0.611              1.927              2.998
 Vibration    11          0.612              1.923              2.945
 Vibration    12          0.612              1.922              2.927
 Vibration    13          0.614              1.918              2.862
 Vibration    14          0.622              1.891              2.545
 Vibration    15          0.638              1.838              2.121
 Vibration    16          0.639              1.836              2.108
 Vibration    17          0.641              1.830              2.070
 Vibration    18          0.645              1.816              1.991
 Vibration    19          0.654              1.788              1.844
 Vibration    20          0.658              1.777              1.792
 Vibration    21          0.665              1.757              1.706
 Vibration    22          0.674              1.727              1.592
 Vibration    23          0.680              1.711              1.535
 Vibration    24          0.681              1.708              1.526
 Vibration    25          0.702              1.648              1.343
 Vibration    26          0.713              1.615              1.259
 Vibration    27          0.722              1.589              1.197
 Vibration    28          0.723              1.587              1.192
 Vibration    29          0.729              1.571              1.157
 Vibration    30          0.729              1.569              1.153
 Vibration    31          0.731              1.563              1.140
 Vibration    32          0.743              1.532              1.076
 Vibration    33          0.796              1.392              0.839
 Vibration    34          0.834              1.300              0.717
 Vibration    35          0.835              1.297              0.713
 Vibration    36          0.839              1.289              0.704
 Vibration    37          0.876              1.203              0.607
 Vibration    38          0.883              1.187              0.591
 Vibration    39          0.918              1.113              0.519
 Vibration    40          0.934              1.080              0.490
 Vibration    41          0.941              1.066              0.478
 Vibration    42          0.944              1.060              0.473
 Vibration    43          0.954              1.040              0.457
 Vibration    44          0.968              1.013              0.434

 Optimization completed.
    -- Stationary point found.
 Normal termination of Gaussian 16 at Sun Jan  7 04:04:04 2024.
