 Q-Chem 5.4, Q-Chem, Inc., Pleasanton, CA (2021)
 Q-Chem 5.4.0 for Intel X86 EM64T Linux

User input:
--------------------------------------------------------------
$molecule
-1 2
C                 -4.5694400000      0.2298380000      0.0195070000
C                 -3.1186740000     -0.1910530000      0.0204040000
C                 -2.7776570000     -1.5677950000     -0.0148770000
C                 -1.4582210000     -1.9670220000     -0.0146220000
C                 -0.4050130000     -1.0263920000      0.0205320000
C                  0.9800000000     -1.4981920000      0.0193300000
O                  1.2683200000     -2.7209270000     -0.0121830000
C                  2.0113930000     -0.4585830000      0.0570980000
C                  3.3720380000     -0.8371680000      0.0583200000
C                  4.3788560000      0.1068470000      0.0931610000
C                  4.0533300000      1.4812890000      0.1284800000
C                  2.7304410000      1.8756360000      0.1280330000
C                  1.6824800000      0.9286340000      0.0927460000
C                  0.2953410000      1.3977130000      0.0938580000
O                  0.0067360000      2.6215600000      0.1253910000
C                 -0.7338660000      0.3584460000      0.0561340000
C                 -2.0961910000      0.7375030000      0.0549610000
H                 -5.0909410000     -0.1268730000     -0.8771170000
H                 -4.6637630000      1.3180140000      0.0502070000
H                 -5.1068680000     -0.1780000000      0.8843560000
H                 -3.5689050000     -2.3133510000     -0.0423690000
H                 -1.1869990000     -3.0163740000     -0.0414350000
H                  3.5915830000     -1.8984330000      0.0307560000
H                  5.4193740000     -0.2046800000      0.0934660000
H                  4.8441250000      2.2254210000      0.1559290000
H                  2.4517920000      2.9229190000      0.1547210000
H                 -2.3092710000      1.8010250000      0.0826960000
$end
$rem
MAX_SCF_CYCLES=200
BASIS  =  6-311++G(d,p)
GUI  =  2
JOB_TYPE  =  SP
METHOD  =  B3LYP
SOLVENT_METHOD = COSMO
$end
$solvent
dielectric 37.219
opticaldielectric 1.43
$end

--------------------------------------------------------------

             Standard Nuclear Orientation (Angstroms)
    I     Atom           X                Y                Z
 ----------------------------------------------------------------
    1      C       4.7657984210    -0.8469576800    -0.0000608294
    2      C       3.3778655517    -0.2507074257     0.0000381446
    3      C       3.2091141077     1.1580078855     0.0000455615
    4      C       1.9488504797     1.7166036323     0.0000311635
    5      C       0.7876604390     0.9122993487     0.0000078649
    6      C      -0.5287398492     1.5510074008    -0.0000129369
    7      O      -0.6641737524     2.8003512395    -0.0000597845
    8      C      -1.6804799296     0.6457562746     0.0000174794
    9      C      -2.9841860041     1.1889260293     0.0000423904
   10      C      -4.0997535483     0.3755566457     0.0000112839
   11      C      -3.9460922406    -1.0289694739    -0.0000275582
   12      C      -2.6817998893    -1.5831444579    -0.0000399529
   13      C      -1.5250318244    -0.7718690045    -0.0000178951
   14      C      -0.2061862634    -1.4081372936     0.0000067421
   15      O      -0.0706064714    -2.6586199100     0.0000451728
   16      C       0.9433419870    -0.5029572851    -0.0000079855
   17      C       2.2486565946    -1.0468035552     0.0000174337
   18      H       5.3378708614    -0.5335965005    -0.8819216585
   19      H       4.7252706189    -1.9388927207     0.0012390086
   20      H       5.3389084468    -0.5314862055     0.8803635736
   21      H       4.0862790088     1.8008645514     0.0000609291
   22      H       1.8090147608     2.7917156738     0.0000177600
   23      H      -3.0712669927     2.2695092434     0.0000533791
   24      H      -5.0940154402     0.8127867491     0.0000120257
   25      H      -4.8226320535    -1.6704681639    -0.0000424933
   26      H      -2.5343382081    -2.6571157095    -0.0000301995
   27      H       2.3290425968    -2.1288337997     0.0000591325
 ----------------------------------------------------------------

    9    -728.3460236147      8.44e-06  Convergence criterion met
 Total energy in the final basis set =     -728.3460236147
    4    -728.4291039728      9.72e-06  Convergence criterion met
 Total energy in the final basis set =     -728.4291039728

                    Orbital Energies (a.u.)
 --------------------------------------------------------------

 Alpha MOs
 -- Occupied --
-19.0798 -19.0795 -10.2268 -10.2255 -10.1815 -10.1733 -10.1729 -10.1725
-10.1724 -10.1719 -10.1710 -10.1698 -10.1697 -10.1695 -10.1692 -10.1652
-10.1607  -1.0069  -1.0044  -0.8626  -0.8521  -0.7917  -0.7589  -0.7508
 -0.7433  -0.6941  -0.6615  -0.6313  -0.6057  -0.5855  -0.5562  -0.5305
 -0.5174  -0.4740  -0.4647  -0.4562  -0.4442  -0.4264  -0.4237  -0.4225
 -0.4178  -0.4128  -0.4122  -0.4016  -0.3842  -0.3768  -0.3691  -0.3616
 -0.3437  -0.3424  -0.3354  -0.3312  -0.2678  -0.2585  -0.2554  -0.2508
 -0.2433  -0.2407  -0.1437

 Beta MOs
 -- Occupied --
-19.0745 -19.0740 -10.2250 -10.2236 -10.1810 -10.1725 -10.1721 -10.1720
-10.1717 -10.1714 -10.1704 -10.1697 -10.1696 -10.1694 -10.1689 -10.1651
-10.1607  -0.9975  -0.9946  -0.8600  -0.8509  -0.7882  -0.7570  -0.7486
 -0.7414  -0.6919  -0.6549  -0.6296  -0.6033  -0.5849  -0.5536  -0.5283
 -0.5156  -0.4709  -0.4637  -0.4548  -0.4433  -0.4232  -0.4217  -0.4186
 -0.4126  -0.4109  -0.4052  -0.3993  -0.3763  -0.3681  -0.3608  -0.3578
 -0.3425  -0.3419  -0.3299  -0.3237  -0.2545  -0.2486  -0.2463  -0.2458
 -0.2376  -0.2357

          Ground-State Mulliken Net Atomic Charges

     Atom                 Charge (a.u.)    Spin (a.u.)
  --------------------------------------------------------
      1 C                    -0.408066      -0.002217
      2 C                     0.351395       0.034900
      3 C                    -0.434204       0.038447
      4 C                     0.095723       0.024977
      5 C                     0.167586       0.024770
      6 C                    -0.608810       0.105419
      7 O                    -0.494078       0.192868
      8 C                     0.106421       0.033862
      9 C                     0.113865       0.025725
     10 C                    -0.491811       0.041901
     11 C                    -0.483957       0.034664
     12 C                     0.041461       0.031674
     13 C                     0.328089       0.032498
     14 C                    -0.499757       0.116561
     15 O                    -0.495361       0.202203
     16 C                     0.104979       0.045049
     17 C                    -0.186467       0.027399
     18 H                     0.170529       0.002322
     19 H                     0.175873       0.000134
     20 H                     0.170365       0.002318
     21 H                     0.201143      -0.003042
     22 H                     0.176958      -0.001234
     23 H                     0.178073      -0.001160
     24 H                     0.201610      -0.003395
     25 H                     0.203340      -0.002956
     26 H                     0.175596      -0.001613
     27 H                     0.139502      -0.002074
  --------------------------------------------------------
  Sum of atomic charges =    -1.000000

                    Cartesian Multipole Moments
 -----------------------------------------------------------------
    Charge (ESU x 10^10)
                -4.8032
    Dipole Moment (Debye)
         X       2.4910      Y      -0.3874      Z       0.0004
       Tot       2.5209
    Quadrupole Moments (Debye-Ang)
        XX     -91.1508     XY       4.3735     YY    -136.1722
        XZ       0.0030     YZ       0.0003     ZZ    -106.0983

 Total job time:  96.64s(wall), 550.39s(cpu)
        *  Thank you very much for using Q-Chem.  Have a nice day.  *
