 Gaussian 16, Revision A.03,
 Gaussian 16:  ES64L-G16RevA.03 25-Dec-2016

 ----------------------------------------------------------------------
 #P UB3LYP/6-311++G(d,p) nosym opt freq SCRF=(PCM,Solvent=n,n-DiMethylF
 ormamide)
 ----------------------------------------------------------------------

 --------
 Oxidized
 --------
 Symbolic Z-matrix:
 Charge =  0 Multiplicity = 1

 SCF Done:  E(UB3LYP) =  -914.717838500     A.U. after   15 cycles
 SCF Done:  E(UB3LYP) =  -914.717978382     A.U. after   11 cycles
 SCF Done:  E(UB3LYP) =  -914.717996505     A.U. after   11 cycles
 SCF Done:  E(UB3LYP) =  -914.718002099     A.U. after   10 cycles
 SCF Done:  E(UB3LYP) =  -914.718002885     A.U. after   10 cycles
 SCF Done:  E(UB3LYP) =  -914.718003517     A.U. after    9 cycles
 SCF Done:  E(UB3LYP) =  -914.718003677     A.U. after    8 cycles
 SCF Done:  E(UB3LYP) =  -914.718003777     A.U. after    8 cycles
 SCF Done:  E(UB3LYP) =  -914.718003814     A.U. after    8 cycles
 SCF Done:  E(UB3LYP) =  -914.718003850     A.U. after    9 cycles
 SCF Done:  E(UB3LYP) =  -914.718003863     A.U. after    8 cycles
 SCF Done:  E(UB3LYP) =  -914.718003877     A.U. after    8 cycles
 SCF Done:  E(UB3LYP) =  -914.718003892     A.U. after    8 cycles
 Optimization completed.
    -- Stationary point found.
 Normal termination of Gaussian 16 at Sat Feb 10 22:39:07 2024.

 ----------------------------------------------------------------------
 #P Geom=AllCheck Guess=TCheck SCRF=Check GenChk UB3LYP/6-311++G(d,p) F
 req
 ----------------------------------------------------------------------

 Structure from the checkpoint file:  "200.chk"
 --------
 Oxidized
 --------
 Charge =  0 Multiplicity = 1

                          Input orientation:
 ---------------------------------------------------------------------
 Center     Atomic      Atomic             Coordinates (Angstroms)
 Number     Number       Type             X           Y           Z
 ---------------------------------------------------------------------
      1          8           0        4.394181   -1.496919   -0.417823
      2          6           0        3.274021   -0.751110   -0.320323
      3          6           0        3.345731    0.622777   -0.373244
      4          6           0        2.186513    1.412359   -0.272904
      5          8           0        2.304585    2.760184   -0.329988
      6          6           0        0.921387    0.816015   -0.116749
      7          6           0       -0.315386    1.611011   -0.007512
      8          8           0       -0.333204    2.838792   -0.034709
      9          6           0       -1.608848    0.867692    0.143928
     10          6           0       -2.798053    1.596580    0.239278
     11          6           0       -4.016490    0.941125    0.380380
     12          6           0       -4.063467   -0.455410    0.428783
     13          6           0       -2.889080   -1.190806    0.335645
     14          6           0       -1.659313   -0.535455    0.193062
     15          6           0       -0.419096   -1.324133    0.094732
     16          8           0       -0.456094   -2.568049    0.143263
     17          6           0        0.857083   -0.614829   -0.063547
     18          6           0        2.018587   -1.385795   -0.163092
     19          8           0        2.050836   -2.730787   -0.122050
     20          1           0        4.150983   -2.433829   -0.359939
     21          1           0        4.314967    1.093986   -0.494364
     22          1           0        3.234611    2.998117   -0.436568
     23          1           0       -2.750358    2.677050    0.200764
     24          1           0       -4.932299    1.516094    0.452983
     25          1           0       -5.013989   -0.963786    0.538673
     26          1           0       -2.905896   -2.272437    0.371085
     27          1           0        1.108083   -3.028437   -0.009764
 ---------------------------------------------------------------------

 SCF Done:  E(UB3LYP) =  -914.718003892     A.U. after    1 cycles

 Alpha  occ. eigenvalues --  -19.18251 -19.17650 -19.17275 -19.14294 -19.11882
 Alpha  occ. eigenvalues --  -10.29245 -10.27835 -10.27362 -10.27145 -10.26971
 Alpha  occ. eigenvalues --  -10.21673 -10.21001 -10.20912 -10.20837 -10.20339
 Alpha  occ. eigenvalues --  -10.19991 -10.19977 -10.19824 -10.19658  -1.11150
 Alpha  occ. eigenvalues --   -1.09300  -1.08706  -1.06205  -1.05189  -0.89548
 Alpha  occ. eigenvalues --   -0.88102  -0.81750  -0.78063  -0.77673  -0.77076
 Alpha  occ. eigenvalues --   -0.70162  -0.68301  -0.66301  -0.63685  -0.61480
 Alpha  occ. eigenvalues --   -0.60251  -0.56880  -0.56085  -0.54012  -0.52667
 Alpha  occ. eigenvalues --   -0.51229  -0.49679  -0.48430  -0.47850  -0.46594
 Alpha  occ. eigenvalues --   -0.46221  -0.45255  -0.44433  -0.44388  -0.43893
 Alpha  occ. eigenvalues --   -0.43602  -0.40906  -0.40753  -0.40241  -0.39752
 Alpha  occ. eigenvalues --   -0.39479  -0.38347  -0.37679  -0.36959  -0.33108
 Alpha  occ. eigenvalues --   -0.29711  -0.28702  -0.27918  -0.27014  -0.26950
 Alpha  occ. eigenvalues --   -0.23523
 Alpha virt. eigenvalues --   -0.12035  -0.06980  -0.03828  -0.01573  -0.01021
 Alpha virt. eigenvalues --   -0.00106  -0.00084   0.01600   0.01842   0.03180
 Alpha virt. eigenvalues --    0.03359   0.03785   0.03996   0.04070   0.04489

  Beta  occ. eigenvalues --  -19.18251 -19.17650 -19.17275 -19.14294 -19.11882
  Beta  occ. eigenvalues --  -10.29245 -10.27835 -10.27362 -10.27145 -10.26971
  Beta  occ. eigenvalues --  -10.21673 -10.21001 -10.20912 -10.20837 -10.20339
  Beta  occ. eigenvalues --  -10.19991 -10.19977 -10.19824 -10.19658  -1.11150
  Beta  occ. eigenvalues --   -1.09300  -1.08706  -1.06205  -1.05189  -0.89548
  Beta  occ. eigenvalues --   -0.88102  -0.81750  -0.78063  -0.77673  -0.77076
  Beta  occ. eigenvalues --   -0.70162  -0.68301  -0.66301  -0.63685  -0.61480
  Beta  occ. eigenvalues --   -0.60251  -0.56880  -0.56085  -0.54012  -0.52667
  Beta  occ. eigenvalues --   -0.51229  -0.49679  -0.48430  -0.47850  -0.46594
  Beta  occ. eigenvalues --   -0.46221  -0.45255  -0.44433  -0.44388  -0.43893
  Beta  occ. eigenvalues --   -0.43602  -0.40906  -0.40753  -0.40241  -0.39752
  Beta  occ. eigenvalues --   -0.39479  -0.38347  -0.37679  -0.36959  -0.33108
  Beta  occ. eigenvalues --   -0.29711  -0.28702  -0.27918  -0.27014  -0.26950
  Beta  occ. eigenvalues --   -0.23523
  Beta virt. eigenvalues --   -0.12035  -0.06980  -0.03828  -0.01573  -0.01021
  Beta virt. eigenvalues --   -0.00106  -0.00084   0.01600   0.01842   0.03180
  Beta virt. eigenvalues --    0.03359   0.03785   0.03996   0.04070   0.04489

 Mulliken charges and spin densities:
               1          2
     1  O   -0.258699  -0.000000
     2  C   -0.387846   0.000000
     3  C    0.169855  -0.000000
     4  C   -0.134291  -0.000000
     5  O   -0.203765   0.000000
     6  C    0.399106   0.000000
     7  C   -0.301029   0.000000
     8  O   -0.309574   0.000000
     9  C   -0.224267  -0.000000
    10  C    0.178359   0.000000
    11  C   -0.480654  -0.000000
    12  C   -0.476498   0.000000
    13  C    0.196672   0.000000
    14  C    0.224822  -0.000000
    15  C   -0.362206   0.000000
    16  O   -0.316874   0.000000
    17  C    0.918467   0.000000
    18  C   -0.252254   0.000000
    19  O   -0.389702   0.000000
    20  H    0.318227   0.000000
    21  H    0.222662  -0.000000
    22  H    0.307766   0.000000
    23  H    0.182342  -0.000000
    24  H    0.206848  -0.000000
    25  H    0.206239   0.000000
    26  H    0.189204  -0.000000
    27  H    0.377088  -0.000000
 Sum of Mulliken charges =  -0.00000   0.00000

 Dipole moment (field-independent basis, Debye):
    X=              0.3856    Y=             -1.4870    Z=             -0.0499  Tot=              1.5370
 Quadrupole moment (field-independent basis, Debye-Ang):
   XX=            -78.1331   YY=           -118.3361   ZZ=           -110.0448
   XY=              5.8935   XZ=             -3.4830   YZ=             -0.4597

  Exact polarizability: 404.612 -24.807 310.538 -29.343  -3.501 118.925
 Approx polarizability: 444.828 -33.262 404.775 -31.131  -4.893 140.659

                      1                      2                      3
                      A                      A                      A
 Frequencies --     24.6065                60.0468               105.5153
 Red. masses --      7.9033                 7.6404                 5.2109
 Frc consts  --      0.0028                 0.0162                 0.0342
 IR Inten    --     10.9908                 0.1525                 0.6023

                      4                      5                      6
                      A                      A                      A
 Frequencies --    132.9454               161.3012               194.8381
 Red. masses --      9.1104                 7.7791                 5.9970
 Frc consts  --      0.0949                 0.1192                 0.1341
 IR Inten    --      0.2421                 0.2471                 1.4858

                      7                      8                      9
                      A                      A                      A
 Frequencies --    207.6527               261.1393               292.0873
 Red. masses --      6.1076                 5.4394                 5.8769
 Frc consts  --      0.1552                 0.2185                 0.2954
 IR Inten    --      0.1720                 0.1169                 4.2205

                     10                     11                     12
                      A                      A                      A
 Frequencies --    307.7497               342.3544               366.6581
 Red. masses --      7.3680                 6.2380                10.5272
 Frc consts  --      0.4111                 0.4308                 0.8338
 IR Inten    --      4.9677                 5.9697                14.9900

                     13                     14                     15
                      A                      A                      A
 Frequencies --    385.7550               407.3290               410.4625
 Red. masses --      1.5802                 3.0419                 6.4246
 Frc consts  --      0.1385                 0.2974                 0.6377
 IR Inten    --     72.3685                21.3544                37.4405

                     16                     17                     18
                      A                      A                      A
 Frequencies --    424.3800               432.4847               440.4465
 Red. masses --      3.4529                11.8019                 1.1080
 Frc consts  --      0.3664                 1.3006                 0.1266
 IR Inten    --      0.9297                44.1915               269.0783

                     19                     20                     21
                      A                      A                      A
 Frequencies --    457.4890               459.2176               506.8505
 Red. masses --      4.3629                10.0792                 4.5036
 Frc consts  --      0.5380                 1.2523                 0.6817
 IR Inten    --      4.8953                 6.7402                 0.0567

                     22                     23                     24
                      A                      A                      A
 Frequencies --    508.7908               535.9790               598.2644
 Red. masses --      8.2099                 8.8686                 7.7986
 Frc consts  --      1.2522                 1.5011                 1.6446
 IR Inten    --      2.9036                10.4102                34.8336

                     25                     26                     27
                      A                      A                      A
 Frequencies --    646.2780               663.0073               685.6632
 Red. masses --      5.1836                 6.5104                 7.1488
 Frc consts  --      1.2756                 1.6862                 1.9802
 IR Inten    --      6.8350                16.0055                 2.1030

                     28                     29                     30
                      A                      A                      A
 Frequencies --    706.0819               717.2306               740.7805
 Red. masses --      6.2331                 5.3833                 6.7926
 Frc consts  --      1.8309                 1.6316                 2.1962
 IR Inten    --      0.1445                16.4303                12.9440

                     31                     32                     33
                      A                      A                      A
 Frequencies --    742.0966               773.7681               794.1311
 Red. masses --      2.0768                 1.0717                 5.2026
 Frc consts  --      0.6739                 0.3780                 1.9331
 IR Inten    --     72.9033               159.4303                 2.9015

                     34                     35                     36
                      A                      A                      A
 Frequencies --    817.1772               844.7292               849.5728
 Red. masses --      2.3709                 7.6237                 1.4508
 Frc consts  --      0.9328                 3.2052                 0.6169
 IR Inten    --      8.3828                95.6027                42.9999

                     37                     38                     39
                      A                      A                      A
 Frequencies --    905.4417               913.4677               957.4543
 Red. masses --      7.8930                 1.4086                 6.3041
 Frc consts  --      3.8125                 0.6925                 3.4049
 IR Inten    --     26.0128                 0.1263               108.0712

                     40                     41                     42
                      A                      A                      A
 Frequencies --   1002.2239              1023.9978              1044.2546
 Red. masses --      1.3835                 1.3316                 3.3276
 Frc consts  --      0.8188                 0.8226                 2.1379
 IR Inten    --      1.7321                 0.1008               104.5589

                     43                     44                     45
                      A                      A                      A
 Frequencies --   1076.3264              1112.1076              1148.6306
 Red. masses --      2.6114                 2.4033                 3.1717
 Frc consts  --      1.7825                 1.7513                 2.4655
 IR Inten    --     92.8896                11.8820               115.3475

                     46                     47                     48
                      A                      A                      A
 Frequencies --   1178.3093              1202.5763              1215.1425
 Red. masses --      1.1337                 1.7809                 1.7876
 Frc consts  --      0.9274                 1.5175                 1.5552
 IR Inten    --     63.3471                 3.6981                68.6067

                     49                     50                     51
                      A                      A                      A
 Frequencies --   1225.3148              1252.7023              1274.6015
 Red. masses --      1.9043                 1.9195                 4.3256
 Frc consts  --      1.6845                 1.7747                 4.1404
 IR Inten    --    599.1154                81.0149              1501.7266

                     52                     53                     54
                      A                      A                      A
 Frequencies --   1285.8582              1312.0696              1356.1237
 Red. masses --      2.0069                 3.2435                 3.7753
 Frc consts  --      1.9551                 3.2899                 4.0907
 IR Inten    --    378.4947               495.6963               126.3999

                     55                     56                     57
                      A                      A                      A
 Frequencies --   1360.2878              1371.3234              1456.4372
 Red. masses --      4.1486                 3.9515                 3.8931
 Frc consts  --      4.5228                 4.3782                 4.8655
 IR Inten    --     84.4293               272.1321               126.1977

                     58                     59                     60
                      A                      A                      A
 Frequencies --   1473.7564              1480.6603              1490.4044
 Red. masses --      3.3608                 2.5444                 3.9387
 Frc consts  --      4.3007                 3.2866                 5.1548
 IR Inten    --    898.6679                 5.3322                13.4147

                     61                     62                     63
                      A                      A                      A
 Frequencies --   1505.0855              1597.4921              1606.7401
 Red. masses --      2.6748                 6.7680                 4.8369
 Frc consts  --      3.5700                10.1762                 7.3571
 IR Inten    --     14.3387               247.6446               438.3568

                     64                     65                     66
                      A                      A                      A
 Frequencies --   1618.9471              1634.4426              1663.8294
 Red. masses --      6.1665                 4.9367                 8.6784
 Frc consts  --      9.5226                 7.7701                14.1550
 IR Inten    --    216.4257                81.3086               170.7525

                     67                     68                     69
                      A                      A                      A
 Frequencies --   1686.4839              3178.6695              3179.0128
 Red. masses --      9.5362                 1.0876                 1.0921
 Frc consts  --     15.9805                 6.4743                 6.5025
 IR Inten    --    302.2717                 4.4609                 9.6733

                     70                     71                     72
                      A                      A                      A
 Frequencies --   3191.4721              3194.7550              3205.9966
 Red. masses --      1.0915                 1.0692                 1.0924
 Frc consts  --      6.5501                 6.4295                 6.6152
 IR Inten    --     41.7851               476.4585                 3.0103

                     73                     74                     75
                      A                      A                      A
 Frequencies --   3208.5577              3736.8445              3792.8256
 Red. masses --      1.0949                 1.0656                 1.0663
 Frc consts  --      6.6410                 8.7671                 9.0375
 IR Inten    --     19.4398               254.9684               192.3860

 - Thermochemistry -
 -------------------
 Temperature   298.150 Kelvin.  Pressure   1.00000 Atm.
 Atom     1 has atomic number  8 and mass  15.99491

 Molecular mass:   256.03717 amu.
 Principal axes and moments of inertia in atomic units:
                           1         2         3
     Eigenvalues --  2609.692985862.546988472.12230
           X            0.98476   0.13966   0.10360
           Y           -0.14358   0.98914   0.03133
           Z           -0.09810  -0.04573   0.99413
 This molecule is an asymmetric top.
 Rotational symmetry number  1.
 Warning -- assumption of classical behavior for rotation
           may cause significant error
 Rotational temperatures (Kelvin)      0.03319     0.01477     0.01022
 Rotational constants (GHZ):           0.69155     0.30784     0.21302
 Zero-point vibrational energy     503182.2 (Joules/Mol)
                                  120.26342 (Kcal/Mol)
 Warning -- explicit consideration of  24 degrees of freedom as
           vibrations may cause significant error
 Vibrational temperatures:     35.40    86.39   151.81   191.28   232.08
          (Kelvin)            280.33   298.77   375.72   420.25   442.78
                              492.57   527.54   555.02   586.06   590.56
                              610.59   622.25   633.70   658.22   660.71
                              729.24   732.04   771.15   860.77   929.85
                              953.92   986.52  1015.89  1031.93  1065.82
                             1067.71  1113.28  1142.58  1175.74  1215.38
                             1222.35  1302.73  1314.28  1377.56  1441.98
                             1473.30  1502.45  1548.59  1600.07  1652.62
                             1695.32  1730.24  1748.32  1762.95  1802.36
                             1833.87  1850.06  1887.78  1951.16  1957.15
                             1973.03  2095.49  2120.41  2130.34  2144.36
                             2165.48  2298.43  2311.74  2329.30  2351.60
                             2393.88  2426.47  4573.40  4573.89  4591.82
                             4596.54  4612.71  4616.40  5376.49  5457.03

 Zero-point correction=                           0.191652 (Hartree/Particle)
 Thermal correction to Energy=                    0.206094
 Thermal correction to Enthalpy=                  0.207038
 Thermal correction to Gibbs Free Energy=         0.150059
 Sum of electronic and zero-point Energies=           -914.526352
 Sum of electronic and thermal Energies=              -914.511910
 Sum of electronic and thermal Enthalpies=            -914.510966
 Sum of electronic and thermal Free Energies=         -914.567945

                     E (Thermal)             CV                S
                      KCal/Mol        Cal/Mol-Kelvin    Cal/Mol-Kelvin
 Total                  129.326             58.223            119.923
 Electronic               0.000              0.000              0.000
 Translational            0.889              2.981             42.520
 Rotational               0.889              2.981             33.227
 Vibrational            127.548             52.262             44.176
 Vibration     1          0.593              1.985              6.223
 Vibration     2          0.597              1.973              4.456
 Vibration     3          0.605              1.945              3.350
 Vibration     4          0.613              1.920              2.903
 Vibration     5          0.622              1.890              2.534
 Vibration     6          0.636              1.847              2.181
 Vibration     7          0.641              1.829              2.064
 Vibration     8          0.669              1.744              1.654
 Vibration     9          0.687              1.688              1.462
 Vibration    10          0.698              1.659              1.374
 Vibration    11          0.721              1.591              1.201
 Vibration    12          0.740              1.541              1.094
 Vibration    13          0.754              1.501              1.017
 Vibration    14          0.772              1.454              0.936
 Vibration    15          0.775              1.448              0.925
 Vibration    16          0.786              1.417              0.877
 Vibration    17          0.793              1.399              0.851
 Vibration    18          0.800              1.382              0.825
 Vibration    19          0.816              1.344              0.773
 Vibration    20          0.817              1.341              0.768
 Vibration    21          0.862              1.235              0.641
 Vibration    22          0.864              1.231              0.637
 Vibration    23          0.891              1.170              0.574
 Vibration    24          0.956              1.035              0.453

 Optimization completed.
    -- Stationary point found.
 Normal termination of Gaussian 16 at Sat Feb 10 23:15:32 2024.
