 Q-Chem 5.4, Q-Chem, Inc., Pleasanton, CA (2021)
 Q-Chem 5.4.0 for Intel X86 EM64T Linux

User input:
--------------------------------------------------------------
$molecule
-2 1
C                 -0.1245150000      1.8978820000      5.0405700000
C                  1.0520980000      1.3159870000      4.4587660000
C                  1.3776790000      1.3044810000      3.1006630000
C                  0.4836070000      1.9112730000      2.1294180000
C                 -0.6978950000      2.4754060000      2.6902670000
C                 -0.9914840000      2.4991810000      4.0621500000
O                 -0.3640840000      1.8525530000      6.3102790000
O                  0.7250010000      1.9425600000      0.8484750000
S                 -2.4775970000      3.3559230000      4.5977340000
C                 -3.3742560000      2.0386400000      5.5550920000
C                 -4.4908860000      2.6929430000      6.3673320000
C                 -3.9023850000      0.9290630000      4.6479050000
C                  2.6814650000      0.6539660000      2.5936620000
C                  3.5393490000      0.0412940000      3.7174650000
C                  3.5397710000      1.7220760000      1.8712000000
C                  2.3379240000     -0.4759260000      1.5913100000
H                  1.7126810000      0.8537220000      5.1868510000
H                 -1.3942800000      2.9292720000      1.9896510000
H                 -2.5999820000      1.6464570000      6.2215500000
H                 -4.0887010000      3.4337680000      7.0644490000
H                 -5.0412100000      1.9398390000      6.9494240000
H                 -5.2168260000      3.1964690000      5.7156270000
H                 -3.0974550000      0.5215460000      4.0322640000
H                 -4.6868910000      1.3042270000      3.9796310000
H                 -4.3268430000      0.1090580000      5.2488150000
H                  3.0013120000     -0.7468850000      4.2535400000
H                  3.8445120000      0.7945710000      4.4505610000
H                  4.4475980000     -0.4003870000      3.2845220000
H                  3.8490470000      2.4991510000      2.5799820000
H                  2.9407500000      2.1791100000      1.0802320000
H                  4.4469400000      1.2708250000      1.4383530000
H                  1.7855080000     -1.2749870000      2.0992970000
H                  3.2540370000     -0.9113090000      1.1608820000
H                  1.7151500000     -0.0630790000      0.7945190000
$end

$rem
BASIS  =  6-311++G(d,p)
GUI  =  2
JOB_TYPE  =  SP
METHOD  =  B3LYP
SCF_CONVERGENCE  = 8
SOLVENT_METHOD = sm12
$end

$smx
solvent dimethylformamide
charges CM5
$end

--------------------------------------------------------------

             Standard Nuclear Orientation (Angstroms)
    I     Atom           X                Y                Z
 ----------------------------------------------------------------
    1      C      -0.1245150000     1.8978820000     5.0405700000
    2      C       1.0520980000     1.3159870000     4.4587660000
    3      C       1.3776790000     1.3044810000     3.1006630000
    4      C       0.4836070000     1.9112730000     2.1294180000
    5      C      -0.6978950000     2.4754060000     2.6902670000
    6      C      -0.9914840000     2.4991810000     4.0621500000
    7      O      -0.3640840000     1.8525530000     6.3102790000
    8      O       0.7250010000     1.9425600000     0.8484750000
    9      S      -2.4775970000     3.3559230000     4.5977340000
   10      C      -3.3742560000     2.0386400000     5.5550920000
   11      C      -4.4908860000     2.6929430000     6.3673320000
   12      C      -3.9023850000     0.9290630000     4.6479050000
   13      C       2.6814650000     0.6539660000     2.5936620000
   14      C       3.5393490000     0.0412940000     3.7174650000
   15      C       3.5397710000     1.7220760000     1.8712000000
   16      C       2.3379240000    -0.4759260000     1.5913100000
   17      H       1.7126810000     0.8537220000     5.1868510000
   18      H      -1.3942800000     2.9292720000     1.9896510000
   19      H      -2.5999820000     1.6464570000     6.2215500000
   20      H      -4.0887010000     3.4337680000     7.0644490000
   21      H      -5.0412100000     1.9398390000     6.9494240000
   22      H      -5.2168260000     3.1964690000     5.7156270000
   23      H      -3.0974550000     0.5215460000     4.0322640000
   24      H      -4.6868910000     1.3042270000     3.9796310000
   25      H      -4.3268430000     0.1090580000     5.2488150000
   26      H       3.0013120000    -0.7468850000     4.2535400000
   27      H       3.8445120000     0.7945710000     4.4505610000
   28      H       4.4475980000    -0.4003870000     3.2845220000
   29      H       3.8490470000     2.4991510000     2.5799820000
   30      H       2.9407500000     2.1791100000     1.0802320000
   31      H       4.4469400000     1.2708250000     1.4383530000
   32      H       1.7855080000    -1.2749870000     2.0992970000
   33      H       3.2540370000    -0.9113090000     1.1608820000
   34      H       1.7151500000    -0.0630790000     0.7945190000
 ----------------------------------------------------------------

   17   -1055.0313739333      8.05e-09  Convergence criterion met
 Total energy in the final basis set =    -1055.3091393045

                    Orbital Energies (a.u.)
 --------------------------------------------------------------

 Alpha MOs
 -- Occupied --
-88.8244 -19.0152 -19.0122 -10.1919 -10.1882 -10.1783 -10.1747 -10.1706
-10.1685 -10.1684 -10.1600 -10.1596 -10.1574 -10.1450 -10.1340 -10.1332
 -7.9095  -5.8733  -5.8698  -5.8636  -0.9305  -0.9247  -0.8234  -0.8131
 -0.7819  -0.7287  -0.6941  -0.6924  -0.6874  -0.6746  -0.6456  -0.5844
 -0.5626  -0.5477  -0.5075  -0.4645  -0.4581  -0.4540  -0.4421  -0.4413
 -0.4232  -0.4206  -0.4106  -0.4003  -0.3987  -0.3922  -0.3810  -0.3726
 -0.3606  -0.3567  -0.3544  -0.3484  -0.3395  -0.3351  -0.3306  -0.3218
 -0.3158  -0.3055  -0.2986  -0.2374  -0.2238  -0.2023  -0.1923  -0.1884
 -0.1208

          Ground-State Mulliken Net Atomic Charges

     Atom                 Charge (a.u.)
  ----------------------------------------
      1 C                    -2.048047
      2 C                    -1.531301
      3 C                    -1.025574
      4 C                    -2.247242
      5 C                    -2.166598
      6 C                     2.015378
      7 O                    -0.310756
      8 O                    -0.320765
      9 S                     1.239916
     10 C                    -0.071074
     11 C                     0.694445
     12 C                    -0.795491
     13 C                     2.063017
     14 C                     0.712591
     15 C                    -0.313812
     16 C                    -0.274288
     17 H                    -0.153972
     18 H                    -0.144894
     19 H                    -0.048258
     20 H                     0.180299
     21 H                     0.289240
     22 H                     0.212211
     23 H                    -0.029597
     24 H                     0.172500
     25 H                     0.254942
     26 H                     0.123581
     27 H                     0.133416
     28 H                     0.468240
     29 H                     0.050127
     30 H                     0.061992
     31 H                     0.350522
     32 H                     0.045077
     33 H                     0.340845
     34 H                     0.073333
  ----------------------------------------
  Sum of atomic charges =    -2.000000

                    Cartesian Multipole Moments
 -----------------------------------------------------------------
    Charge (ESU x 10^10)
                -9.6064
    Dipole Moment (Debye)
         X      -0.6592      Y     -19.4269      Z     -33.9102
       Tot      39.0863
    Quadrupole Moments (Debye-Ang)
        XX    -144.8525     XY       9.8307     YY    -167.9069
        XZ      10.5364     YZ     -71.0889     ZZ    -292.9943

 Total job time:  1011.76s(wall), 7702.34s(cpu)
        *  Thank you very much for using Q-Chem.  Have a nice day.  *
