 Q-Chem 5.4, Q-Chem, Inc., Pleasanton, CA (2021)
 Q-Chem 5.4.0 for Intel X86 EM64T Linux

User input:
--------------------------------------------------------------
$molecule
-2 1
C                 -0.6845450000      2.7235260000      0.6576560000
C                 -1.6778600000      2.5763950000     -0.2953660000
C                 -1.4485110000      1.8027710000     -1.4508990000
C                  0.5824870000      2.1060560000      0.5018900000
C                  0.8131140000      1.3222270000     -0.6701490000
C                 -0.2083230000      1.1901180000     -1.6174180000
C                  1.6066630000      2.2700450000      1.5055900000
C                  2.8246200000      1.6268240000      1.2703590000
C                  3.1556760000      0.8170500000      0.1240360000
C                  2.1179200000      0.6356750000     -0.9172950000
O                  1.4499290000      2.9756190000      2.5978640000
O                  2.2715510000     -0.0358110000     -1.9516110000
O                  3.7472990000      1.8297580000      2.2680480000
H                 -0.8364220000      3.3135490000      1.5552060000
H                 -2.6421600000      3.0614880000     -0.1511070000
H                 -2.2272430000      1.6859110000     -2.2006490000
H                  0.0080640000      0.5862250000     -2.4930260000
H                  3.2106860000      2.4039010000      2.8668340000
N                  4.3981850000      0.2980060000      0.1166570000
N                  4.8132800000     -0.4529090000     -0.8726550000
C                  6.1133170000     -0.8890590000     -0.6968840000
C                  6.9585220000     -0.5926010000      0.4119420000
C                  6.6604830000     -1.7109180000     -1.7170290000
C                  7.9564210000     -2.2033000000     -1.6404220000
C                  8.7779330000     -1.9036190000     -0.5429600000
C                  8.2516310000     -1.0920470000      0.4744500000
H                  6.5523950000      0.0334890000      1.1966200000
H                  6.0211400000     -1.9398920000     -2.5638470000
H                  8.3373200000     -2.8302080000     -2.4446330000
H                  9.7920610000     -2.2884230000     -0.4820800000
H                  8.8719690000     -0.8469160000      1.3355240000
$end

$rem
BASIS  =  6-311++G(d,p)
GUI  =  2
JOB_TYPE  =  SP
METHOD  =  B3LYP
SCF_CONVERGENCE  = 8
SOLVENT_METHOD = sm12
$end

$smx
solvent dimethylformamide
charges CM5
$end

--------------------------------------------------------------

             Standard Nuclear Orientation (Angstroms)
    I     Atom           X                Y                Z
 ----------------------------------------------------------------
    1      C      -0.6845450000     2.7235260000     0.6576560000
    2      C      -1.6778600000     2.5763950000    -0.2953660000
    3      C      -1.4485110000     1.8027710000    -1.4508990000
    4      C       0.5824870000     2.1060560000     0.5018900000
    5      C       0.8131140000     1.3222270000    -0.6701490000
    6      C      -0.2083230000     1.1901180000    -1.6174180000
    7      C       1.6066630000     2.2700450000     1.5055900000
    8      C       2.8246200000     1.6268240000     1.2703590000
    9      C       3.1556760000     0.8170500000     0.1240360000
   10      C       2.1179200000     0.6356750000    -0.9172950000
   11      O       1.4499290000     2.9756190000     2.5978640000
   12      O       2.2715510000    -0.0358110000    -1.9516110000
   13      O       3.7472990000     1.8297580000     2.2680480000
   14      H      -0.8364220000     3.3135490000     1.5552060000
   15      H      -2.6421600000     3.0614880000    -0.1511070000
   16      H      -2.2272430000     1.6859110000    -2.2006490000
   17      H       0.0080640000     0.5862250000    -2.4930260000
   18      H       3.2106860000     2.4039010000     2.8668340000
   19      N       4.3981850000     0.2980060000     0.1166570000
   20      N       4.8132800000    -0.4529090000    -0.8726550000
   21      C       6.1133170000    -0.8890590000    -0.6968840000
   22      C       6.9585220000    -0.5926010000     0.4119420000
   23      C       6.6604830000    -1.7109180000    -1.7170290000
   24      C       7.9564210000    -2.2033000000    -1.6404220000
   25      C       8.7779330000    -1.9036190000    -0.5429600000
   26      C       8.2516310000    -1.0920470000     0.4744500000
   27      H       6.5523950000     0.0334890000     1.1966200000
   28      H       6.0211400000    -1.9398920000    -2.5638470000
   29      H       8.3373200000    -2.8302080000    -2.4446330000
   30      H       9.7920610000    -2.2884230000    -0.4820800000
   31      H       8.8719690000    -0.8469160000     1.3355240000
 ----------------------------------------------------------------

   18    -951.1181534374      5.49e-09  Convergence criterion met
 Total energy in the final basis set =     -951.3870198886

                    Orbital Energies (a.u.)
 --------------------------------------------------------------

 Alpha MOs
 -- Occupied --
-19.1156 -19.0722 -19.0342 -14.3203 -14.3033 -10.2294 -10.1991 -10.1895
-10.1822 -10.1822 -10.1820 -10.1807 -10.1806 -10.1763 -10.1763 -10.1752
-10.1731 -10.1724 -10.1705 -10.1698 -10.1690  -1.0309  -1.0030  -0.9777
 -0.9359  -0.8589  -0.8548  -0.8081  -0.7711  -0.7500  -0.7499  -0.7264
 -0.6819  -0.6519  -0.6172  -0.6061  -0.5951  -0.5743  -0.5547  -0.5268
 -0.5166  -0.4939  -0.4709  -0.4672  -0.4591  -0.4476  -0.4407  -0.4302
 -0.4270  -0.4234  -0.4217  -0.3994  -0.3948  -0.3814  -0.3768  -0.3700
 -0.3675  -0.3630  -0.3488  -0.3422  -0.3405  -0.3312  -0.3275  -0.3062
 -0.2702  -0.2621  -0.2568  -0.2493  -0.2449  -0.2195  -0.2015  -0.1894
 -0.1325

          Ground-State Mulliken Net Atomic Charges

     Atom                 Charge (a.u.)
  ----------------------------------------
      1 C                     0.468593
      2 C                     1.840021
      3 C                     2.323945
      4 C                    -0.353764
      5 C                    -0.180234
      6 C                     0.530692
      7 C                    -1.853684
      8 C                    -0.229645
      9 C                    -1.897711
     10 C                    -3.010697
     11 O                    -0.418417
     12 O                    -0.145534
     13 O                    -0.185483
     14 H                     0.126153
     15 H                     0.431639
     16 H                     0.416676
     17 H                     0.145036
     18 H                     0.331125
     19 N                    -1.065345
     20 N                     0.428283
     21 C                    -3.977346
     22 C                    -1.653955
     23 C                     0.038793
     24 C                     1.771654
     25 C                     1.526737
     26 C                     1.211427
     27 H                     0.055854
     28 H                     0.140709
     29 H                     0.431821
     30 H                     0.399667
     31 H                     0.352989
  ----------------------------------------
  Sum of atomic charges =    -2.000000

                    Cartesian Multipole Moments
 -----------------------------------------------------------------
    Charge (ESU x 10^10)
                -9.6064
    Dipole Moment (Debye)
         X     -28.4506      Y      -9.4425      Z      -2.5918
       Tot      30.0884
    Quadrupole Moments (Debye-Ang)
        XX    -267.1164     XY      -2.7037     YY    -166.4881
        XZ       1.8712     YZ     -21.8842     ZZ    -162.2951

 Total job time:  910.99s(wall), 7122.14s(cpu)
        *  Thank you very much for using Q-Chem.  Have a nice day.  *
