 Gaussian 16, Revision A.03,
 Gaussian 16:  ES64L-G16RevA.03 25-Dec-2016

 ----------------------------------------------------------------
 #P UB3LYP/6-311++G(d,p) SCRF=(PCM,Solvent=n,n-DiMethylFormamide)
 ----------------------------------------------------------------

 ------------------
 Quinone PCM in DMF
 ------------------
 Symbolic Z-matrix:
 Charge =  0 Multiplicity = 1

                         Standard orientation:
 ---------------------------------------------------------------------
 Center     Atomic      Atomic             Coordinates (Angstroms)
 Number     Number       Type             X           Y           Z
 ---------------------------------------------------------------------
      1          6           0        2.945572    0.827262    0.000254
      2          6           0        3.860571   -0.220474    0.001276
      3          6           0        3.407102   -1.540956    0.001716
      4          6           0        1.574762    0.554081   -0.000207
      5          6           0        1.116608   -0.773314    0.000276
      6          6           0        2.041054   -1.816340    0.001234
      7          6           0        0.602829    1.669102   -0.001727
      8          6           0       -0.859988    1.320168   -0.001240
      9          6           0       -1.301883    0.019562   -0.002748
     10          6           0       -0.355543   -1.091801    0.000342
     11          8           0        0.933939    2.844498   -0.004244
     12          8           0       -0.727550   -2.263280    0.003379
     13          7           0       -1.688958    2.379801    0.001066
     14          1           0        3.272085    1.860039   -0.000180
     15          1           0        4.924017   -0.010735    0.001753
     16          1           0        4.120724   -2.357324    0.002545
     17          1           0        1.669863   -2.833759    0.001709
     18          1           0       -1.296139    3.307995   -0.007434
     19          1           0       -2.682685    2.209438   -0.008154
     20          7           0       -2.717738   -0.193623   -0.003612
     21          6           0       -3.228447   -0.840229   -1.220221
     22          6           0       -3.231431   -0.817167    1.223795
     23          1           0       -2.855901   -0.307923   -2.098195
     24          1           0       -4.320286   -0.773692   -1.221810
     25          1           0       -2.937886   -1.895566   -1.296459
     26          1           0       -2.863724   -0.266584    2.092503
     27          1           0       -2.938073   -1.870064    1.321842
     28          1           0       -4.323466   -0.754184    1.220116
 ---------------------------------------------------------------------

 SCF Done:  E(UB3LYP) =  -724.660643337     A.U. after   16 cycles

 The electronic state is 1-A.
 Alpha  occ. eigenvalues --  -19.14370 -19.11447 -14.34649 -14.31856 -10.29172
 Alpha  occ. eigenvalues --  -10.26754 -10.24803 -10.20942 -10.20738 -10.20609
 Alpha  occ. eigenvalues --  -10.19917 -10.19833 -10.19597 -10.19452 -10.18724
 Alpha  occ. eigenvalues --  -10.18707  -1.07859  -1.04876  -0.95825  -0.91975
 Alpha  occ. eigenvalues --   -0.88825  -0.81443  -0.77764  -0.75989  -0.70792
 Alpha  occ. eigenvalues --   -0.69837  -0.66224  -0.64172  -0.60906  -0.59357
 Alpha  occ. eigenvalues --   -0.57399  -0.54130  -0.51339  -0.50821  -0.48983
 Alpha  occ. eigenvalues --   -0.47440  -0.46897  -0.46131  -0.45211  -0.45088
 Alpha  occ. eigenvalues --   -0.44567  -0.44516  -0.42402  -0.41698  -0.39293
 Alpha  occ. eigenvalues --   -0.38673  -0.38007  -0.37967  -0.37008  -0.36768
 Alpha  occ. eigenvalues --   -0.35852  -0.29653  -0.28525  -0.27799  -0.27775
 Alpha  occ. eigenvalues --   -0.23504  -0.22716
 Alpha virt. eigenvalues --   -0.11877  -0.05227  -0.02121  -0.00997   0.00103
 Alpha virt. eigenvalues --    0.00734   0.01625   0.01962   0.02141   0.02752
 Alpha virt. eigenvalues --    0.03376   0.04118   0.04472   0.04636   0.05297

  Beta  occ. eigenvalues --  -19.14370 -19.11447 -14.34649 -14.31856 -10.29172
  Beta  occ. eigenvalues --  -10.26754 -10.24803 -10.20942 -10.20738 -10.20609
  Beta  occ. eigenvalues --  -10.19917 -10.19833 -10.19597 -10.19452 -10.18724
  Beta  occ. eigenvalues --  -10.18707  -1.07859  -1.04876  -0.95825  -0.91975
  Beta  occ. eigenvalues --   -0.88825  -0.81443  -0.77764  -0.75989  -0.70792
  Beta  occ. eigenvalues --   -0.69837  -0.66224  -0.64172  -0.60906  -0.59357
  Beta  occ. eigenvalues --   -0.57399  -0.54130  -0.51339  -0.50821  -0.48983
  Beta  occ. eigenvalues --   -0.47440  -0.46897  -0.46131  -0.45211  -0.45088
  Beta  occ. eigenvalues --   -0.44567  -0.44516  -0.42402  -0.41698  -0.39293
  Beta  occ. eigenvalues --   -0.38673  -0.38007  -0.37967  -0.37008  -0.36768
  Beta  occ. eigenvalues --   -0.35852  -0.29653  -0.28525  -0.27799  -0.27775
  Beta  occ. eigenvalues --   -0.23504  -0.22716
  Beta virt. eigenvalues --   -0.11877  -0.05227  -0.02121  -0.00997   0.00103
  Beta virt. eigenvalues --    0.00734   0.01625   0.01962   0.02141   0.02752
  Beta virt. eigenvalues --    0.03376   0.04118   0.04472   0.04636   0.05297

 Mulliken charges and spin densities:
               1          2
     1  C    0.001942  -0.000000
     2  C   -0.311653   0.000000
     3  C   -0.310208  -0.000000
     4  C    0.968987   0.000000
     5  C    0.055822  -0.000000
     6  C    0.091541  -0.000000
     7  C   -0.703352   0.000000
     8  C    0.263888  -0.000000
     9  C   -0.291442   0.000000
    10  C   -0.844763  -0.000000
    11  O   -0.283390  -0.000000
    12  O   -0.282683  -0.000000
    13  N   -0.468895   0.000000
    14  H    0.178962   0.000000
    15  H    0.205499   0.000000
    16  H    0.208531  -0.000000
    17  H    0.181781   0.000000
    18  H    0.339154  -0.000000
    19  H    0.329059   0.000000
    20  N    0.178203  -0.000000
    21  C   -0.221668   0.000000
    22  C   -0.225041   0.000000
    23  H    0.147801  -0.000000
    24  H    0.151607   0.000000
    25  H    0.170508   0.000000
    26  H    0.146974  -0.000000
    27  H    0.170804   0.000000
    28  H    0.152033   0.000000
 Sum of Mulliken charges =  -0.00000  -0.00000

 Dipole moment (field-independent basis, Debye):
    X=              0.2042    Y=              1.8126    Z=             -0.0196  Tot=              1.8242
 Quadrupole moment (field-independent basis, Debye-Ang):
   XX=            -73.3362   YY=           -101.0621   ZZ=            -94.9850
   XY=            -12.0401   XZ=              0.0481   YZ=             -0.0265

 Normal termination of Gaussian 16 at Sun Jan 21 08:08:42 2024.
