 Q-Chem 5.4, Q-Chem, Inc., Pleasanton, CA (2021)
 Q-Chem 5.4.0 for Intel X86 EM64T Linux

User input:
--------------------------------------------------------------
$molecule
-1 2
C                 -0.2467320000      0.9367880000      0.3703690000
C                 -1.3626200000      0.1520990000     -0.1244070000
C                 -1.2368980000     -1.1573340000     -0.4659770000
C                  0.0203430000     -1.8678040000     -0.3617360000
C                  1.1682450000     -1.1095420000      0.1292500000
C                  1.0377610000      0.2364770000      0.4931980000
O                 -0.4034760000      2.1575270000      0.6391500000
O                  0.1024410000     -3.0890150000     -0.6825130000
C                  2.2115030000      0.9952650000      1.0061180000
C                  2.0030620000      2.1044810000      2.0281970000
O                  3.3617040000      0.7402100000      0.6571010000
H                 -2.3084000000      0.6787870000     -0.2143820000
H                 -2.0818030000     -1.7312800000     -0.8368070000
H                  1.1615670000      1.9067210000      2.6934990000
H                  1.7677940000      3.0354360000      1.5082330000
H                  2.9338960000      2.2185120000      2.5894810000
C                  2.4536110000     -1.8892290000      0.2424290000
H                  2.2181140000     -2.9540750000      0.2356500000
H                  3.0188390000     -1.6250510000      1.1376080000
H                  3.1144390000     -1.6807350000     -0.6053780000
$end
$rem
MAX_SCF_CYCLES=200
BASIS  =  6-311++G(d,p)
GUI  =  2
JOB_TYPE  =  SP
METHOD  =  B3LYP
SOLVENT_METHOD = PCM
$end
$pcm
theory = CPCM
$end
$solvent
dielectric 37.219
opticaldielectric 1.43
$end

--------------------------------------------------------------

             Standard Nuclear Orientation (Angstroms)
    I     Atom           X                Y                Z
 ----------------------------------------------------------------
    1      C      -0.2467320000     0.9367880000     0.3703690000
    2      C      -1.3626200000     0.1520990000    -0.1244070000
    3      C      -1.2368980000    -1.1573340000    -0.4659770000
    4      C       0.0203430000    -1.8678040000    -0.3617360000
    5      C       1.1682450000    -1.1095420000     0.1292500000
    6      C       1.0377610000     0.2364770000     0.4931980000
    7      O      -0.4034760000     2.1575270000     0.6391500000
    8      O       0.1024410000    -3.0890150000    -0.6825130000
    9      C       2.2115030000     0.9952650000     1.0061180000
   10      C       2.0030620000     2.1044810000     2.0281970000
   11      O       3.3617040000     0.7402100000     0.6571010000
   12      H      -2.3084000000     0.6787870000    -0.2143820000
   13      H      -2.0818030000    -1.7312800000    -0.8368070000
   14      H       1.1615670000     1.9067210000     2.6934990000
   15      H       1.7677940000     3.0354360000     1.5082330000
   16      H       2.9338960000     2.2185120000     2.5894810000
   17      C       2.4536110000    -1.8892290000     0.2424290000
   18      H       2.2181140000    -2.9540750000     0.2356500000
   19      H       3.0188390000    -1.6250510000     1.1376080000
   20      H       3.1144390000    -1.6807350000    -0.6053780000
 ----------------------------------------------------------------

    9    -573.7439565939      5.93e-06  Convergence criterion met
 Total energy in the final basis set =     -573.7439565939

                    Orbital Energies (a.u.)
 --------------------------------------------------------------

 Alpha MOs
 -- Occupied --
-19.1062 -19.0842 -19.0820 -10.2579 -10.2315 -10.2239 -10.1878 -10.1737
-10.1693 -10.1674 -10.1556 -10.1512  -1.0383  -1.0079  -1.0050  -0.8312
 -0.7725  -0.7406  -0.6994  -0.6664  -0.6159  -0.5628  -0.5284  -0.4896
 -0.4698  -0.4586  -0.4424  -0.4262  -0.4190  -0.4162  -0.4041  -0.4010
 -0.3925  -0.3839  -0.3720  -0.3625  -0.3606  -0.3497  -0.2852  -0.2602
 -0.2568  -0.2496  -0.2373  -0.1694

 Beta MOs
 -- Occupied --
-19.1057 -19.0768 -19.0762 -10.2578 -10.2305 -10.2224 -10.1854 -10.1731
-10.1689 -10.1662 -10.1556 -10.1513  -1.0374  -0.9975  -0.9921  -0.8249
 -0.7698  -0.7385  -0.6962  -0.6592  -0.6126  -0.5589  -0.5258  -0.4874
 -0.4670  -0.4563  -0.4381  -0.4242  -0.4131  -0.4102  -0.4013  -0.3970
 -0.3861  -0.3755  -0.3600  -0.3587  -0.3498  -0.3456  -0.2573  -0.2562
 -0.2477  -0.2430  -0.2327

          Ground-State Mulliken Net Atomic Charges

     Atom                 Charge (a.u.)    Spin (a.u.)
  --------------------------------------------------------
      1 C                    -0.986833       0.067821
      2 C                    -0.095088       0.084381
      3 C                    -0.012917       0.029984
      4 C                    -0.877573       0.099138
      5 C                     0.620479       0.174436
      6 C                     1.444189       0.042976
      7 O                    -0.465133       0.209049
      8 O                    -0.495596       0.264781
      9 C                    -0.133763       0.012186
     10 C                    -0.668528       0.002626
     11 O                    -0.350083       0.015607
     12 H                     0.206819      -0.007867
     13 H                     0.207538      -0.004284
     14 H                     0.165171      -0.000395
     15 H                     0.204153       0.000962
     16 H                     0.166075      -0.000626
     17 C                    -0.450103      -0.004485
     18 H                     0.162318      -0.001014
     19 H                     0.161598       0.004352
     20 H                     0.197277       0.010372
  --------------------------------------------------------
  Sum of atomic charges =    -1.000000

                    Cartesian Multipole Moments
 -----------------------------------------------------------------
    Charge (ESU x 10^10)
                -4.8032
    Dipole Moment (Debye)
         X      -3.9216      Y       2.0295      Z       0.6092
       Tot       4.4575
    Quadrupole Moments (Debye-Ang)
        XX     -90.5398     XY       0.4680     YY    -107.8899
        XZ       0.7296     YZ      -7.5654     ZZ     -73.5554

 Total job time:  22.89s(wall), 169.55s(cpu)
        *  Thank you very much for using Q-Chem.  Have a nice day.  *
