 Gaussian 16, Revision A.03,
 Gaussian 16:  ES64L-G16RevA.03 25-Dec-2016

 --------------------------------------
 #P UB3LYP/6-311++G(d,p) nosym opt freq
 --------------------------------------

 -------
 Reduced
 -------
 Symbolic Z-matrix:
 Charge = -2 Multiplicity = 1

 SCF Done:  E(UB3LYP) =  -806.877101140     A.U. after   76 cycles
 SCF Done:  E(UB3LYP) =  -806.890316587     A.U. after   29 cycles
 SCF Done:  E(UB3LYP) =  -806.891882008     A.U. after   29 cycles
 SCF Done:  E(UB3LYP) =  -806.891681780     A.U. after   29 cycles
 SCF Done:  E(UB3LYP) =  -806.892152127     A.U. after   28 cycles
 SCF Done:  E(UB3LYP) =  -806.892295748     A.U. after   27 cycles
 SCF Done:  E(UB3LYP) =  -806.892462687     A.U. after   30 cycles
 SCF Done:  E(UB3LYP) =  -806.892652826     A.U. after   27 cycles
 SCF Done:  E(UB3LYP) =  -806.892754163     A.U. after   28 cycles
 SCF Done:  E(UB3LYP) =  -806.892788741     A.U. after   28 cycles
 SCF Done:  E(UB3LYP) =  -806.893173387     A.U. after   28 cycles
 SCF Done:  E(UB3LYP) =  -806.893195904     A.U. after   28 cycles
 SCF Done:  E(UB3LYP) =  -806.893206051     A.U. after   28 cycles
 SCF Done:  E(UB3LYP) =  -806.893213627     A.U. after   25 cycles
 SCF Done:  E(UB3LYP) =  -806.893220841     A.U. after   28 cycles
 SCF Done:  E(UB3LYP) =  -806.893219222     A.U. after   28 cycles
 SCF Done:  E(UB3LYP) =  -806.893222345     A.U. after   28 cycles
 SCF Done:  E(UB3LYP) =  -806.893222496     A.U. after   30 cycles
 SCF Done:  E(UB3LYP) =  -806.893222530     A.U. after   22 cycles
 Optimization completed.
    -- Stationary point found.
 Normal termination of Gaussian 16 at Wed Dec 20 09:02:41 2023.

 ----------------------------------------------------------------------
 #P Geom=AllCheck Guess=TCheck SCRF=Check GenChk UB3LYP/6-311++G(d,p) F
 req
 ----------------------------------------------------------------------

 Structure from the checkpoint file:  "107-an.chk"
 -------
 Reduced
 -------
 Charge = -2 Multiplicity = 1

                          Input orientation:
 ---------------------------------------------------------------------
 Center     Atomic      Atomic             Coordinates (Angstroms)
 Number     Number       Type             X           Y           Z
 ---------------------------------------------------------------------
      1          6           0       -0.540202   -2.168564    1.296360
      2          6           0        0.853601   -2.447309    1.146746
      3          6           0        1.809761   -1.453784    1.018577
      4          6           0        1.404202   -0.035210    1.025079
      5          6           0        0.012541    0.243850    1.192780
      6          6           0       -0.942653   -0.749486    1.329195
      7          8           0       -1.430961   -3.075362    1.394963
      8          8           0        2.289312    0.870664    0.878699
      9          7           0       -2.304798   -0.586358    1.537215
     10          7           0        3.183588   -1.614786    0.910199
     11          6           0       -3.157880    0.568701    1.236426
     12          6           0       -4.611026    0.086751    1.399616
     13          6           0       -2.911210    1.710358    2.247289
     14          6           0       -2.960059    1.079484   -0.208778
     15          6           0        3.949371   -2.784832    0.466775
     16          6           0        3.949130   -3.883766    1.552319
     17          6           0        5.398405   -2.303351    0.269281
     18          6           0        3.424553   -3.352337   -0.871615
     19          1           0        1.116128   -3.497663    1.140971
     20          1           0       -0.248952    1.294375    1.207409
     21          1           0       -2.749702   -1.499073    1.476963
     22          1           0        3.598277   -0.707146    0.713251
     23          1           0       -4.838764   -0.712623    0.685975
     24          1           0       -5.321967    0.899762    1.229065
     25          1           0       -4.776730   -0.300074    2.410464
     26          1           0       -3.052278    1.337005    3.265845
     27          1           0       -3.613876    2.533405    2.079146
     28          1           0       -1.897032    2.105720    2.173517
     29          1           0       -3.199939    0.284395   -0.921544
     30          1           0       -1.926382    1.383646   -0.383322
     31          1           0       -3.615255    1.933350   -0.412578
     32          1           0        2.947504   -4.277642    1.730990
     33          1           0        4.319752   -3.470163    2.494825
     34          1           0        4.598312   -4.715798    1.259584
     35          1           0        5.792163   -1.877427    1.197963
     36          1           0        5.450568   -1.534000   -0.508875
     37          1           0        6.054315   -3.125690   -0.029108
     38          1           0        2.379949   -3.658180   -0.789636
     39          1           0        4.018557   -4.216902   -1.187187
     40          1           0        3.489157   -2.587638   -1.651875
 ---------------------------------------------------------------------

 SCF Done:  E(UB3LYP) =  -806.893222530     A.U. after    5 cycles

 Alpha  occ. eigenvalues --  -18.85132 -18.85131 -14.10754 -14.10753 -10.03269
 Alpha  occ. eigenvalues --  -10.03268  -9.99872  -9.99871  -9.98923  -9.98920
 Alpha  occ. eigenvalues --   -9.98022  -9.98022  -9.97526  -9.97525  -9.97368
 Alpha  occ. eigenvalues --   -9.97368  -9.93369  -9.93367  -0.77752  -0.77341
 Alpha  occ. eigenvalues --   -0.72170  -0.72067  -0.61636  -0.60624  -0.57041
 Alpha  occ. eigenvalues --   -0.51651  -0.50931  -0.50636  -0.50634  -0.49780
 Alpha  occ. eigenvalues --   -0.45760  -0.41447  -0.37490  -0.36638  -0.34269
 Alpha  occ. eigenvalues --   -0.30807  -0.29272  -0.28384  -0.27197  -0.26582
 Alpha  occ. eigenvalues --   -0.26567  -0.25347  -0.24271  -0.23035  -0.22019
 Alpha  occ. eigenvalues --   -0.21696  -0.21413  -0.21053  -0.20230  -0.19601
 Alpha  occ. eigenvalues --   -0.19155  -0.18765  -0.18704  -0.18476  -0.17356
 Alpha  occ. eigenvalues --   -0.17306  -0.16751  -0.15941  -0.14949  -0.14644
 Alpha  occ. eigenvalues --   -0.14529  -0.13057  -0.10431  -0.08560  -0.02660
 Alpha  occ. eigenvalues --   -0.02299  -0.01935   0.01272   0.07509
 Alpha virt. eigenvalues --    0.13902   0.13959   0.15685   0.15751   0.15905
 Alpha virt. eigenvalues --    0.16148   0.16954   0.17431   0.18096   0.18213
 Alpha virt. eigenvalues --    0.18811   0.18848   0.19351   0.19855   0.20174

  Beta  occ. eigenvalues --  -18.84581 -18.84581 -14.10628 -14.10627 -10.03274
  Beta  occ. eigenvalues --  -10.03272  -9.99668  -9.99667  -9.98689  -9.98685
  Beta  occ. eigenvalues --   -9.98050  -9.98050  -9.97536  -9.97535  -9.97375
  Beta  occ. eigenvalues --   -9.97374  -9.93434  -9.93433  -0.76871  -0.76421
  Beta  occ. eigenvalues --   -0.71852  -0.71708  -0.61345  -0.60509  -0.56750
  Beta  occ. eigenvalues --   -0.51617  -0.50964  -0.50649  -0.50647  -0.49720
  Beta  occ. eigenvalues --   -0.44897  -0.41307  -0.37337  -0.36323  -0.34098
  Beta  occ. eigenvalues --   -0.30691  -0.29135  -0.28315  -0.26931  -0.26540
  Beta  occ. eigenvalues --   -0.26507  -0.25299  -0.24210  -0.22947  -0.21786
  Beta  occ. eigenvalues --   -0.21631  -0.21337  -0.20963  -0.20227  -0.19577
  Beta  occ. eigenvalues --   -0.18815  -0.18760  -0.18236  -0.17873  -0.17041
  Beta  occ. eigenvalues --   -0.16968  -0.16401  -0.15657  -0.14676  -0.14453
  Beta  occ. eigenvalues --   -0.12878  -0.12799  -0.09438  -0.06723  -0.02144
  Beta  occ. eigenvalues --   -0.01404  -0.00474   0.02028   0.11311
  Beta virt. eigenvalues --    0.12035   0.14168   0.14942   0.15029   0.15551
  Beta virt. eigenvalues --    0.15765   0.16166   0.16552   0.17948   0.18021
  Beta virt. eigenvalues --    0.18750   0.18814   0.18959   0.19540   0.19732

 Mulliken charges and spin densities:
               1          2
     1  C   -0.521542   0.239671
     2  C   -0.038497  -0.177377
     3  C    0.268906   0.354919
     4  C   -0.521033   0.239085
     5  C   -0.035982  -0.177135
     6  C    0.266933   0.354160
     7  O   -0.427601   0.214122
     8  O   -0.427566   0.214173
     9  N    0.206555   0.157391
    10  N    0.206267   0.157606
    11  C   -1.656502  -1.598577
    12  C    0.870801   1.354487
    13  C    0.556548   0.967210
    14  C    0.337685   0.808339
    15  C   -1.656980  -1.599251
    16  C    0.555807   0.966501
    17  C    0.870280   1.353983
    18  C    0.340305   0.810791
    19  H    0.182714  -0.020072
    20  H    0.182934  -0.020032
    21  H    0.536161   0.207884
    22  H    0.536469   0.208008
    23  H   -0.108739  -0.239904
    24  H   -0.935193  -1.085483
    25  H   -0.120312  -0.249479
    26  H    0.104541  -0.021494
    27  H   -0.298910  -0.441709
    28  H    0.066458  -0.039508
    29  H    0.111872  -0.025813
    30  H    0.097715  -0.040070
    31  H   -0.232448  -0.363051
    32  H    0.066272  -0.039815
    33  H    0.105218  -0.020850
    34  H   -0.300632  -0.443560
    35  H   -0.120824  -0.249973
    36  H   -0.108450  -0.239573
    37  H   -0.935509  -1.085854
    38  H    0.097587  -0.040108
    39  H   -0.233081  -0.363762
    40  H    0.111773  -0.025879
 Sum of Mulliken charges =  -2.00000   0.00000

 Dipole moment (field-independent basis, Debye):
    X=             -3.8343    Y=             10.6471    Z=             -8.4021  Tot=             14.0946
 Quadrupole moment (field-independent basis, Debye-Ang):
   XX=           -337.0921   YY=           -223.3235   ZZ=           -155.4707
   XY=             78.6640   XZ=             17.4821   YZ=              1.8688

  Exact polarizability:6352.504********3214.224-545.305 207.1191413.164
 Approx polarizability:********************************2137.8241377.502

                      1                      2                      3
                      A                      A                      A
 Frequencies --     21.1886                33.0192                49.2215
 Red. masses --      3.7719                 4.2048                 2.7517
 Frc consts  --      0.0010                 0.0027                 0.0039
 IR Inten    --      1.8840                57.8968                 0.3536

                      4                      5                      6
                      A                      A                      A
 Frequencies --     71.7109                88.7945               114.4464
 Red. masses --      3.1018                 3.8474                 6.1410
 Frc consts  --      0.0094                 0.0179                 0.0474
 IR Inten    --      6.3705                 2.1403                 0.4941

                      7                      8                      9
                      A                      A                      A
 Frequencies --    130.3005               170.2659               175.2883
 Red. masses --      3.8296                 1.3380                 1.0855
 Frc consts  --      0.0383                 0.0229                 0.0197
 IR Inten    --      0.1049                 0.3540                10.8323

                     10                     11                     12
                      A                      A                      A
 Frequencies --    200.9770               216.2591               221.9413
 Red. masses --      2.8971                 1.7960                 1.1717
 Frc consts  --      0.0689                 0.0495                 0.0340
 IR Inten    --      0.9198                 0.6976                66.3357

                     13                     14                     15
                      A                      A                      A
 Frequencies --    231.5526               252.8672               259.8700
 Red. masses --      1.6667                 2.0590                 2.5521
 Frc consts  --      0.0527                 0.0776                 0.1015
 IR Inten    --      0.5579                 5.0859                 9.1461

                     16                     17                     18
                      A                      A                      A
 Frequencies --    263.2370               268.2130               280.3104
 Red. masses --      1.1086                 1.4719                 2.3068
 Frc consts  --      0.0453                 0.0624                 0.1068
 IR Inten    --     11.7658                 4.9798                 1.1970

                     19                     20                     21
                      A                      A                      A
 Frequencies --    305.7031               344.8986               346.4863
 Red. masses --      3.4217                 2.6496                 2.5190
 Frc consts  --      0.1884                 0.1857                 0.1782
 IR Inten    --     63.6590                14.5894                 6.5799

                     22                     23                     24
                      A                      A                      A
 Frequencies --    385.7566               389.4208               427.7010
 Red. masses --      2.5145                 2.5389                 4.0275
 Frc consts  --      0.2205                 0.2268                 0.4341
 IR Inten    --      0.3031                28.8696                15.3289

                     25                     26                     27
                      A                      A                      A
 Frequencies --    439.9458               442.6966               447.5705
 Red. masses --      3.7433                 2.7964                 2.9895
 Frc consts  --      0.4269                 0.3229                 0.3528
 IR Inten    --    158.2578                 0.8068                 1.0033

                     28                     29                     30
                      A                      A                      A
 Frequencies --    472.9925               480.6197               483.0634
 Red. masses --      2.9479                 6.2498                 4.6154
 Frc consts  --      0.3886                 0.8506                 0.6345
 IR Inten    --      0.0873                 0.7937                65.7075

                     31                     32                     33
                      A                      A                      A
 Frequencies --    531.6500               573.2411               619.5621
 Red. masses --      3.1991                 3.4112                 1.3820
 Frc consts  --      0.5328                 0.6604                 0.3125
 IR Inten    --     87.9577                 4.8137                10.0822

                     34                     35                     36
                      A                      A                      A
 Frequencies --    639.3426               647.8896               719.8113
 Red. masses --      1.7217                 2.7801                 3.1054
 Frc consts  --      0.4146                 0.6876                 0.9480
 IR Inten    --     10.3985                 4.8383                 6.9291

                     37                     38                     39
                      A                      A                      A
 Frequencies --    735.5226               748.6918               765.7392
 Red. masses --      6.7149                 1.6765                 4.0442
 Frc consts  --      2.1403                 0.5537                 1.3972
 IR Inten    --      8.5862                 9.0551                 0.2232

                     40                     41                     42
                      A                      A                      A
 Frequencies --    773.3745               783.9409               830.9019
 Red. masses --      3.5259                 3.5415                 2.1863
 Frc consts  --      1.2425                 1.2824                 0.8893
 IR Inten    --     37.1091                 5.8989                17.8368

                     43                     44                     45
                      A                      A                      A
 Frequencies --    831.3424               895.8329               903.4277
 Red. masses --      1.8971                 2.5555                 1.7836
 Frc consts  --      0.7725                 1.2083                 0.8577
 IR Inten    --     22.4702               146.8884               105.6851

                     46                     47                     48
                      A                      A                      A
 Frequencies --    904.1599               917.8111               923.0630
 Red. masses --      1.8052                 1.7382                 1.5964
 Frc consts  --      0.8695                 0.8627                 0.8014
 IR Inten    --     47.2662                 0.1555               248.7088

                     49                     50                     51
                      A                      A                      A
 Frequencies --    950.5396               959.0412               959.3706
 Red. masses --      2.1407                 1.2012                 1.2129
 Frc consts  --      1.1396                 0.6509                 0.6578
 IR Inten    --      8.8489                 0.7067                 0.4511

                     52                     53                     54
                      A                      A                      A
 Frequencies --    973.3878              1042.2712              1043.9925
 Red. masses --      2.4980                 1.4057                 1.3953
 Frc consts  --      1.3945                 0.8997                 0.8960
 IR Inten    --    161.6607               100.6259                21.6691

                     55                     56                     57
                      A                      A                      A
 Frequencies --   1049.1313              1050.3751              1183.8209
 Red. masses --      1.4343                 1.4452                 3.3328
 Frc consts  --      0.9301                 0.9394                 2.7519
 IR Inten    --    138.6450                 0.1831               351.5201

                     58                     59                     60
                      A                      A                      A
 Frequencies --   1201.7179              1218.1671              1222.2201
 Red. masses --      2.0244                 6.0289                 2.5866
 Frc consts  --      1.7225                 5.2711                 2.2766
 IR Inten    --      2.8933                12.3294                27.9452

                     61                     62                     63
                      A                      A                      A
 Frequencies --   1222.9439              1231.5643              1233.7271
 Red. masses --      2.5490                 2.6180                 2.4437
 Frc consts  --      2.2462                 2.3396                 2.1915
 IR Inten    --    114.5120                38.8384                40.2059

                     64                     65                     66
                      A                      A                      A
 Frequencies --   1246.4710              1246.9830              1266.9553
 Red. masses --      3.1769                 2.2474                 2.4113
 Frc consts  --      2.9082                 2.0590                 2.2804
 IR Inten    --    807.4877                16.5198                16.6291

                     67                     68                     69
                      A                      A                      A
 Frequencies --   1303.6246              1377.7125              1378.0901
 Red. masses --      2.1646                 1.2403                 1.2429
 Frc consts  --      2.1673                 1.3871                 1.3907
 IR Inten    --    236.9041              2998.9386                 3.6538

                     70                     71                     72
                      A                      A                      A
 Frequencies --   1383.8289              1384.0410              1391.1933
 Red. masses --      1.2266                 1.2310                 3.5987
 Frc consts  --      1.3839                 1.3894                 4.1037
 IR Inten    --    111.7667               308.8562                 1.5510

                     73                     74                     75
                      A                      A                      A
 Frequencies --   1411.5273              1416.2529              1467.8493
 Red. masses --      1.2334                 1.2567                 1.0508
 Frc consts  --      1.4479                 1.4851                 1.3340
 IR Inten    --   1594.6285                31.2854                27.5719

                     76                     77                     78
                      A                      A                      A
 Frequencies --   1467.9426              1475.9531              1477.8139
 Red. masses --      1.0493                 1.8349                 1.0600
 Frc consts  --      1.3322                 2.3551                 1.3640
 IR Inten    --      6.2319                67.4555                48.9444

                     79                     80                     81
                      A                      A                      A
 Frequencies --   1478.9986              1481.5123              1485.7233
 Red. masses --      1.0743                 1.0901                 1.1297
 Frc consts  --      1.3846                 1.4097                 1.4692
 IR Inten    --    814.4805               949.7689                 0.4997

                     82                     83                     84
                      A                      A                      A
 Frequencies --   1487.7198              1492.8283              1494.7242
 Red. masses --      1.1373                 1.1921                 1.0582
 Frc consts  --      1.4831                 1.5653                 1.3929
 IR Inten    --     63.4250               106.5336                58.5600

                     85                     86                     87
                      A                      A                      A
 Frequencies --   1499.6076              1501.4651              1513.7197
 Red. masses --      1.6625                 1.8191                 1.1099
 Frc consts  --      2.2028                 2.4162                 1.4984
 IR Inten    --      3.5258               635.7420                56.1457

                     88                     89                     90
                      A                      A                      A
 Frequencies --   1513.9926              1523.9287              1554.3387
 Red. masses --      1.1302                 3.1005                 2.2247
 Frc consts  --      1.5264                 4.2424                 3.1668
 IR Inten    --     69.9854              1249.3187               185.4035

                     91                     92                     93
                      A                      A                      A
 Frequencies --   1558.6310              1621.3281              3001.6349
 Red. masses --      1.7816                 6.8777                 1.0354
 Frc consts  --      2.5500                10.6520                 5.4964
 IR Inten    --      2.5592                 0.2998                79.1321

                     94                     95                     96
                      A                      A                      A
 Frequencies --   3001.8109              3007.7990              3008.0623
 Red. masses --      1.0354                 1.0383                 1.0382
 Frc consts  --      5.4972                 5.5343                 5.5350
 IR Inten    --     13.5413                 4.7773                 3.7190

                     97                     98                     99
                      A                      A                      A
 Frequencies --   3016.1142              3016.4823              3065.1086
 Red. masses --      1.0392                 1.0389                 1.1018
 Frc consts  --      5.5696                 5.5697                 6.0986
 IR Inten    --     87.1858                 4.2685                37.5297

                    100                    101                    102
                      A                      A                      A
 Frequencies --   3065.2737              3070.1837              3070.7879
 Red. masses --      1.1018                 1.1008                 1.1009
 Frc consts  --      6.0993                 6.1136                 6.1165
 IR Inten    --     26.8072               365.8646                 1.8740

                    103                    104                    105
                      A                      A                      A
 Frequencies --   3073.1216              3073.4781              3079.5674
 Red. masses --      1.1005                 1.1006                 1.1012
 Frc consts  --      6.1235                 6.1254                 6.1530
 IR Inten    --     95.5709                 8.2043              1437.6352

                    106                    107                    108
                      A                      A                      A
 Frequencies --   3080.8371              3102.7367              3103.0417
 Red. masses --      1.1010                 1.0987                 1.0986
 Frc consts  --      6.1570                 6.2317                 6.2326
 IR Inten    --     12.7326                41.0283                26.0032

                    109                    110                    111
                      A                      A                      A
 Frequencies --   3107.2519              3107.8084              3181.0230
 Red. masses --      1.0980                 1.0979                 1.0872
 Frc consts  --      6.2458                 6.2476                 6.4816
 IR Inten    --    313.3782                27.0420                84.8026

                    112                    113                    114
                      A                      A                      A
 Frequencies --   3183.6919              3483.8469              3484.5566
 Red. masses --      1.0877                 1.0746                 1.0748
 Frc consts  --      6.4954                 7.6848                 7.6892
 IR Inten    --      0.6098                11.3668               177.2505

 - Thermochemistry -
 -------------------
 Temperature   298.150 Kelvin.  Pressure   1.00000 Atm.
 Atom     1 has atomic number  6 and mass  12.00000

 Molecular mass:   250.16813 amu.
 Principal axes and moments of inertia in atomic units:
                           1         2         3
     Eigenvalues --  1876.435449367.94817**********
           X            0.91447   0.38741   0.11685
           Y           -0.39215   0.91969   0.01973
           Z           -0.09983  -0.06387   0.99295
 This molecule is an asymmetric top.
 Rotational symmetry number  1.
 Warning -- assumption of classical behavior for rotation
           may cause significant error
 Rotational temperatures (Kelvin)      0.04616     0.00925     0.00833
 Rotational constants (GHZ):           0.96179     0.19265     0.17357
 Zero-point vibrational energy     888782.7 (Joules/Mol)
                                  212.42417 (Kcal/Mol)
 Warning -- explicit consideration of  33 degrees of freedom as
           vibrations may cause significant error
 Vibrational temperatures:     30.49    47.51    70.82   103.18   127.76
          (Kelvin)            164.66   187.47   244.97   252.20   289.16
                              311.15   319.32   333.15   363.82   373.89
                              378.74   385.90   403.30   439.84   496.23
                              498.52   555.02   560.29   615.37   632.98
                              636.94   643.95   680.53   691.50   695.02
                              764.93   824.77   891.41   919.87   932.17
                             1035.65  1058.25  1077.20  1101.73  1112.71
                             1127.92  1195.48  1196.12  1288.90  1299.83
                             1300.88  1320.53  1328.08  1367.61  1379.85
                             1380.32  1400.49  1499.60  1502.07  1509.47
                             1511.26  1703.25  1729.00  1752.67  1758.50
                             1759.54  1771.95  1775.06  1793.39  1794.13
                             1822.87  1875.63  1982.22  1982.76  1991.02
                             1991.33  2001.62  2030.87  2037.67  2111.91
                             2112.04  2123.57  2126.24  2127.95  2131.57
                             2137.62  2140.50  2147.85  2150.57  2157.60
                             2160.27  2177.91  2178.30  2192.59  2236.35
                             2242.52  2332.73  4318.68  4318.94  4327.55
                             4327.93  4339.52  4340.05  4410.01  4410.25
                             4417.31  4418.18  4421.54  4422.05  4430.81
                             4432.64  4464.15  4464.58  4470.64  4471.44
                             4576.78  4580.62  5012.48  5013.50

 Zero-point correction=                           0.338519 (Hartree/Particle)
 Thermal correction to Energy=                    0.358521
 Thermal correction to Enthalpy=                  0.359465
 Thermal correction to Gibbs Free Energy=         0.290405
 Sum of electronic and zero-point Energies=           -806.554703
 Sum of electronic and thermal Energies=              -806.534701
 Sum of electronic and thermal Enthalpies=            -806.533757
 Sum of electronic and thermal Free Energies=         -806.602817

                     E (Thermal)             CV                S
                      KCal/Mol        Cal/Mol-Kelvin    Cal/Mol-Kelvin
 Total                  224.975             76.929            145.349
 Electronic               0.000              0.000              0.000
 Translational            0.889              2.981             42.451
 Rotational               0.889              2.981             33.569
 Vibrational            223.198             70.967             69.330
 Vibration     1          0.593              1.985              6.520
 Vibration     2          0.594              1.983              5.639
 Vibration     3          0.595              1.978              4.848
 Vibration     4          0.598              1.967              4.106
 Vibration     5          0.602              1.957              3.686
 Vibration     6          0.607              1.937              3.192
 Vibration     7          0.612              1.923              2.942
 Vibration     8          0.625              1.879              2.433
 Vibration     9          0.627              1.873              2.378
 Vibration    10          0.638              1.838              2.124
 Vibration    11          0.645              1.816              1.990
 Vibration    12          0.648              1.808              1.943
 Vibration    13          0.653              1.793              1.867
 Vibration    14          0.664              1.758              1.711
 Vibration    15          0.668              1.746              1.663
 Vibration    16          0.670              1.740              1.640
 Vibration    17          0.673              1.732              1.608
 Vibration    18          0.680              1.710              1.532
 Vibration    19          0.696              1.663              1.385
 Vibration    20          0.723              1.586              1.189
 Vibration    21          0.724              1.582              1.182
 Vibration    22          0.754              1.501              1.017
 Vibration    23          0.757              1.493              1.002
 Vibration    24          0.789              1.410              0.866
 Vibration    25          0.800              1.383              0.827
 Vibration    26          0.802              1.377              0.818
 Vibration    27          0.807              1.366              0.803
 Vibration    28          0.830              1.310              0.729
 Vibration    29          0.837              1.293              0.708
 Vibration    30          0.839              1.288              0.702
 Vibration    31          0.887              1.180              0.584
 Vibration    32          0.929              1.089              0.498
 Vibration    33          0.980              0.991              0.417

 Optimization completed.
    -- Stationary point found.
 Normal termination of Gaussian 16 at Wed Dec 20 11:19:39 2023.
