 Gaussian 16, Revision A.03,
 Gaussian 16:  ES64L-G16RevA.03 25-Dec-2016

 --------------------------------------
 #P UB3LYP/6-311++G(d,p) nosym opt freq
 --------------------------------------

 -------
 Reduced
 -------
 Symbolic Z-matrix:
 Charge = -2 Multiplicity = 1

 SCF Done:  E(UB3LYP) =  -613.844349772     A.U. after   41 cycles
 SCF Done:  E(UB3LYP) =  -613.862484054     A.U. after   35 cycles
 SCF Done:  E(UB3LYP) =  -613.865281395     A.U. after   35 cycles
 SCF Done:  E(UB3LYP) =  -613.866184387     A.U. after   36 cycles
 SCF Done:  E(UB3LYP) =  -613.866818876     A.U. after   34 cycles
 SCF Done:  E(UB3LYP) =  -613.867439324     A.U. after   41 cycles
 SCF Done:  E(UB3LYP) =  -613.868127041     A.U. after   44 cycles
 SCF Done:  E(UB3LYP) =  -613.868603674     A.U. after   31 cycles
 SCF Done:  E(UB3LYP) =  -613.868719517     A.U. after   33 cycles
 SCF Done:  E(UB3LYP) =  -613.868695042     A.U. after   43 cycles
 SCF Done:  E(UB3LYP) =  -613.868740210     A.U. after   39 cycles
 SCF Done:  E(UB3LYP) =  -613.868750052     A.U. after   30 cycles
 SCF Done:  E(UB3LYP) =  -613.868752536     A.U. after   30 cycles
 SCF Done:  E(UB3LYP) =  -613.868753144     A.U. after   29 cycles
 SCF Done:  E(UB3LYP) =  -613.868753375     A.U. after   29 cycles
 Optimization completed.
    -- Stationary point found.
 Normal termination of Gaussian 16 at Tue Dec 26 21:59:19 2023.

 ----------------------------------------------------------------------
 #P Geom=AllCheck Guess=TCheck SCRF=Check GenChk UB3LYP/6-311++G(d,p) F
 req
 ----------------------------------------------------------------------

 Structure from the checkpoint file:  "245-an.chk"
 -------
 Reduced
 -------
 Charge = -2 Multiplicity = 1

                          Input orientation:
 ---------------------------------------------------------------------
 Center     Atomic      Atomic             Coordinates (Angstroms)
 Number     Number       Type             X           Y           Z
 ---------------------------------------------------------------------
      1          6           0        5.726279   -5.361227    1.313361
      2          6           0        6.694375   -5.199320    0.338651
      3          6           0        6.611389   -4.163799   -0.614597
      4          6           0        4.609836   -4.457632    1.369470
      5          6           0        4.510772   -3.393668    0.361276
      6          6           0        5.555137   -3.270602   -0.618636
      7          6           0        3.588223   -4.607159    2.414706
      8          6           0        2.520877   -3.672265    2.346895
      9          6           0        2.422582   -2.670022    1.386844
     10          6           0        3.372918   -2.464213    0.351262
     11          8           0        3.632540   -5.509503    3.340267
     12          8           0        3.220305   -1.523144   -0.522638
     13          6           0        5.926022   -6.499099    2.297201
     14          1           0        7.546286   -5.878211    0.314184
     15          1           0        1.574167   -1.985518    1.395068
     16          6           0        5.559999   -2.206404   -1.700357
     17          1           0        7.389781   -4.073716   -1.371717
     18          1           0        6.833169   -7.058786    2.025461
     19          1           0        5.071907   -7.177628    2.316034
     20          1           0        6.014220   -6.132503    3.322747
     21          1           0        1.752734   -3.772721    3.113885
     22          1           0        5.505130   -1.199740   -1.283351
     23          1           0        4.684066   -2.288401   -2.348385
     24          1           0        6.475538   -2.304790   -2.302090
 ---------------------------------------------------------------------

 SCF Done:  E(UB3LYP) =  -613.868753375     A.U. after    3 cycles

 Alpha  occ. eigenvalues --  -18.76583 -18.76581  -9.92788  -9.92787  -9.92184
 Alpha  occ. eigenvalues --   -9.92182  -9.91441  -9.91440  -9.90815  -9.90766
 Alpha  occ. eigenvalues --   -9.90232  -9.90199  -9.87944  -9.87889  -0.68262
 Alpha  occ. eigenvalues --   -0.67892  -0.58946  -0.52634  -0.52124  -0.46588
 Alpha  occ. eigenvalues --   -0.45507  -0.41065  -0.38388  -0.34127  -0.33133
 Alpha  occ. eigenvalues --   -0.26096  -0.23353  -0.22115  -0.20628  -0.17744
 Alpha  occ. eigenvalues --   -0.16861  -0.16016  -0.15911  -0.14535  -0.14101
 Alpha  occ. eigenvalues --   -0.12409  -0.11984  -0.10695  -0.10248  -0.09295
 Alpha  occ. eigenvalues --   -0.07177  -0.06913  -0.06576  -0.06049   0.02266
 Alpha  occ. eigenvalues --    0.02604   0.02847   0.05931   0.05965   0.14290
 Alpha virt. eigenvalues --    0.15951   0.16765   0.18550   0.19104   0.20195
 Alpha virt. eigenvalues --    0.21320   0.21646   0.22032   0.22586   0.23263
 Alpha virt. eigenvalues --    0.24007   0.24685   0.26044   0.27531   0.27642

  Beta  occ. eigenvalues --  -18.76583 -18.76581  -9.92788  -9.92787  -9.92184
  Beta  occ. eigenvalues --   -9.92182  -9.91441  -9.91440  -9.90815  -9.90766
  Beta  occ. eigenvalues --   -9.90232  -9.90199  -9.87944  -9.87889  -0.68262
  Beta  occ. eigenvalues --   -0.67892  -0.58946  -0.52634  -0.52124  -0.46588
  Beta  occ. eigenvalues --   -0.45507  -0.41065  -0.38388  -0.34127  -0.33133
  Beta  occ. eigenvalues --   -0.26096  -0.23353  -0.22115  -0.20628  -0.17744
  Beta  occ. eigenvalues --   -0.16861  -0.16016  -0.15911  -0.14535  -0.14101
  Beta  occ. eigenvalues --   -0.12409  -0.11984  -0.10695  -0.10248  -0.09295
  Beta  occ. eigenvalues --   -0.07177  -0.06913  -0.06576  -0.06049   0.02266
  Beta  occ. eigenvalues --    0.02604   0.02847   0.05931   0.05965   0.14290
  Beta virt. eigenvalues --    0.15951   0.16765   0.18550   0.19104   0.20195
  Beta virt. eigenvalues --    0.21320   0.21646   0.22032   0.22586   0.23263
  Beta virt. eigenvalues --    0.24007   0.24685   0.26044   0.27531   0.27642

 Mulliken charges and spin densities:
               1          2
     1  C    0.856226   0.000000
     2  C   -0.100596  -0.000000
     3  C   -0.101398   0.000000
     4  C   -0.146373  -0.000000
     5  C   -0.146072  -0.000000
     6  C    0.852625   0.000000
     7  C   -1.169974  -0.000000
     8  C   -0.051430  -0.000000
     9  C   -0.051129  -0.000000
    10  C   -1.169588   0.000000
    11  O   -0.510539   0.000000
    12  O   -0.510456  -0.000000
    13  C    0.427703   0.000000
    14  H   -0.481535  -0.000000
    15  H    0.066752  -0.000000
    16  C    0.430392   0.000000
    17  H   -0.482769  -0.000000
    18  H   -0.211512  -0.000000
    19  H    0.143400   0.000000
    20  H    0.179471   0.000000
    21  H    0.066745   0.000000
    22  H    0.143487  -0.000000
    23  H    0.179551   0.000000
    24  H   -0.212979  -0.000000
 Sum of Mulliken charges =  -2.00000  -0.00000

 Dipole moment (field-independent basis, Debye):
    X=            -43.2047    Y=             37.4904    Z=             -8.5989  Tot=             57.8457
 Quadrupole moment (field-independent basis, Debye-Ang):
   XX=           -329.6643   YY=           -282.1637   ZZ=           -141.8970
   XY=            184.3335   XZ=            -23.4066   YZ=             56.9930

  Exact polarizability:1158.707-405.0613138.562-454.644********2136.571
 Approx polarizability:2712.429-917.8391079.480********  -8.3131134.582

                      1                      2                      3
                      A                      A                      A
 Frequencies --     44.4901                74.0640               108.1549
 Red. masses --      4.8300                 5.8899                 2.9282
 Frc consts  --      0.0056                 0.0190                 0.0202
 IR Inten    --      0.2616                62.3290                39.0016

                      4                      5                      6
                      A                      A                      A
 Frequencies --    192.1675               197.7108               222.5224
 Red. masses --      1.0393                 1.3045                 2.6737
 Frc consts  --      0.0226                 0.0300                 0.0780
 IR Inten    --      0.3600                99.2304                61.2635

                      7                      8                      9
                      A                      A                      A
 Frequencies --    286.6495               317.3627               332.9757
 Red. masses --      5.9090                 3.3490                 6.4757
 Frc consts  --      0.2861                 0.1987                 0.4230
 IR Inten    --    282.3367                13.3339                 9.3254

                     10                     11                     12
                      A                      A                      A
 Frequencies --    346.1417               359.7225               362.6111
 Red. masses --      2.7187                 4.8467                12.2460
 Frc consts  --      0.1919                 0.3695                 0.9487
 IR Inten    --      0.1779               100.4432                 7.0702

                     13                     14                     15
                      A                      A                      A
 Frequencies --    434.3589               461.8373               479.7557
 Red. masses --     10.9372                 5.2679                 3.9969
 Frc consts  --      1.2158                 0.6620                 0.5420
 IR Inten    --   1130.2097                73.6334               330.1399

                     16                     17                     18
                      A                      A                      A
 Frequencies --    483.5615               516.7066               595.0969
 Red. masses --      3.8276                 2.6708                 6.1652
 Frc consts  --      0.5273                 0.4201                 1.2864
 IR Inten    --      0.3546              1177.1122               108.5123

                     19                     20                     21
                      A                      A                      A
 Frequencies --    638.3656               645.4800               670.2507
 Red. masses --      3.7845                 3.6510                 2.4051
 Frc consts  --      0.9087                 0.8962                 0.6366
 IR Inten    --      3.8062                40.7440              1439.8571

                     22                     23                     24
                      A                      A                      A
 Frequencies --    742.4398               755.9462               791.7323
 Red. masses --      5.0742                 6.8444                 6.4013
 Frc consts  --      1.6479                 2.3044                 2.3641
 IR Inten    --    223.6772               318.2640                29.6329

                     25                     26                     27
                      A                      A                      A
 Frequencies --    809.4120               813.3161               858.5146
 Red. masses --      1.4780                 1.7557                 1.3439
 Frc consts  --      0.5705                 0.6843                 0.5836
 IR Inten    --    263.1963               220.8927                 2.7825

                     28                     29                     30
                      A                      A                      A
 Frequencies --    874.1713               880.7952               920.6417
 Red. masses --      1.3515                 5.9159                 3.7873
 Frc consts  --      0.6085                 2.7041                 1.8913
 IR Inten    --      5.8495                 1.5341               135.2069

                     31                     32                     33
                      A                      A                      A
 Frequencies --   1006.8114              1027.6655              1048.2640
 Red. masses --      1.6744                 1.4128                 1.4838
 Frc consts  --      1.0000                 0.8791                 0.9607
 IR Inten    --     51.3226              1939.5120                 0.4755

                     34                     35                     36
                      A                      A                      A
 Frequencies --   1059.3112              1081.1595              1135.1136
 Red. masses --      1.5606                 1.6609                 3.1058
 Frc consts  --      1.0318                 1.1439                 2.3578
 IR Inten    --    364.2558               764.3017               166.6017

                     37                     38                     39
                      A                      A                      A
 Frequencies --   1141.9137              1181.3053              1207.3890
 Red. masses --      2.8115                 1.8927                 2.9762
 Frc consts  --      2.1600                 1.5562                 2.5563
 IR Inten    --     74.8955                85.9240               741.7195

                     40                     41                     42
                      A                      A                      A
 Frequencies --   1241.3352              1266.2080              1297.0170
 Red. masses --      2.3489                 5.8707                 1.7711
 Frc consts  --      2.1326                 5.5456                 1.7555
 IR Inten    --    103.1597               633.5535               300.6039

                     43                     44                     45
                      A                      A                      A
 Frequencies --   1366.4153              1371.9483              1376.9014
 Red. masses --      5.0913                 3.6919                 8.6844
 Frc consts  --      5.6008                 4.0943                 9.7005
 IR Inten    --   2696.3399               413.1650               370.3920

                     46                     47                     48
                      A                      A                      A
 Frequencies --   1401.4809              1404.3098              1405.9671
 Red. masses --      1.6480                 1.2662                 1.8523
 Frc consts  --      1.9071                 1.4712                 2.1573
 IR Inten    --    106.1738                52.5538               168.4580

                     49                     50                     51
                      A                      A                      A
 Frequencies --   1446.5177              1447.1037              1461.9234
 Red. masses --      1.0527                 1.0514                 1.1691
 Frc consts  --      1.2977                 1.2972                 1.4722
 IR Inten    --   1042.9791                14.6258               859.2678

                     52                     53                     54
                      A                      A                      A
 Frequencies --   1474.9814              1517.2758              1524.1905
 Red. masses --      1.1846                 3.9792                 4.5336
 Frc consts  --      1.5184                 5.3973                 6.2054
 IR Inten    --    137.3782                63.3839              2344.2929

                     55                     56                     57
                      A                      A                      A
 Frequencies --   1575.0575              1575.1810              2961.1358
 Red. masses --      5.0736                 5.0397                 1.0551
 Frc consts  --      7.4158                 7.3675                 5.4506
 IR Inten    --   2145.3654              2114.5826              1406.5210

                     58                     59                     60
                      A                      A                      A
 Frequencies --   2962.1949              3062.8143              3063.4233
 Red. masses --      1.0555                 1.0834                 1.0835
 Frc consts  --      5.4565                 5.9880                 5.9907
 IR Inten    --    200.1945              1095.8468                17.5523

                     61                     62                     63
                      A                      A                      A
 Frequencies --   3078.5349              3081.4565              3086.2602
 Red. masses --      1.0830                 1.0858                 1.0922
 Frc consts  --      6.0473                 6.0746                 6.1292
 IR Inten    --     52.3172               252.1788               779.6590

                     64                     65                     66
                      A                      A                      A
 Frequencies --   3086.4406              3105.5959              3106.1009
 Red. masses --      1.0936                 1.0926                 1.0919
 Frc consts  --      6.1380                 6.2088                 6.2068
 IR Inten    --      6.1090               319.3686               496.0433

 - Thermochemistry -
 -------------------
 Temperature   298.150 Kelvin.  Pressure   1.00000 Atm.
 Atom     1 has atomic number  6 and mass  12.00000

 Molecular mass:   186.06808 amu.
 Principal axes and moments of inertia in atomic units:
                           1         2         3
     Eigenvalues --  1884.249922392.494204254.56400
           X           -0.06757   0.85739   0.51021
           Y            0.72404  -0.30969   0.61632
           Z           -0.68644  -0.41106   0.59986
 This molecule is an asymmetric top.
 Rotational symmetry number  1.
 Warning -- assumption of classical behavior for rotation
           may cause significant error
 Rotational temperatures (Kelvin)      0.04597     0.03620     0.02036
 Rotational constants (GHZ):           0.95780     0.75433     0.42419
 Zero-point vibrational energy     477631.0 (Joules/Mol)
                                  114.15654 (Kcal/Mol)
 Warning -- explicit consideration of  18 degrees of freedom as
           vibrations may cause significant error
 Vibrational temperatures:     64.01   106.56   155.61   276.49   284.46
          (Kelvin)            320.16   412.42   456.61   479.08   498.02
                              517.56   521.72   624.95   664.48   690.26
                              695.74   743.43   856.21   918.47   928.70
                              964.34  1068.21  1087.64  1139.13  1164.56
                             1170.18  1235.21  1257.74  1267.27  1324.60
                             1448.58  1478.58  1508.22  1524.11  1555.55
                             1633.18  1642.96  1699.63  1737.16  1786.00
                             1821.79  1866.12  1965.97  1973.93  1981.05
                             2016.42  2020.49  2022.87  2081.22  2082.06
                             2103.38  2122.17  2183.02  2192.97  2266.16
                             2266.33  4260.41  4261.94  4406.71  4407.58
                             4429.33  4433.53  4440.44  4440.70  4468.26
                             4468.99

 Zero-point correction=                           0.181920 (Hartree/Particle)
 Thermal correction to Energy=                    0.193840
 Thermal correction to Enthalpy=                  0.194784
 Thermal correction to Gibbs Free Energy=         0.144005
 Sum of electronic and zero-point Energies=           -613.686833
 Sum of electronic and thermal Energies=              -613.674913
 Sum of electronic and thermal Enthalpies=            -613.673969
 Sum of electronic and thermal Free Energies=         -613.724748

                     E (Thermal)             CV                S
                      KCal/Mol        Cal/Mol-Kelvin    Cal/Mol-Kelvin
 Total                  121.636             47.163            106.874
 Electronic               0.000              0.000              0.000
 Translational            0.889              2.981             41.569
 Rotational               0.889              2.981             31.329
 Vibrational            119.859             41.201             33.976
 Vibration     1          0.595              1.980              5.048
 Vibration     2          0.599              1.966              4.042
 Vibration     3          0.606              1.943              3.302
 Vibration     4          0.634              1.851              2.207
 Vibration     5          0.637              1.843              2.154
 Vibration     6          0.648              1.807              1.938
 Vibration     7          0.684              1.698              1.494
 Vibration     8          0.704              1.640              1.324
 Vibration     9          0.715              1.610              1.246
 Vibration    10          0.724              1.583              1.184
 Vibration    11          0.734              1.555              1.123
 Vibration    12          0.736              1.549              1.111
 Vibration    13          0.795              1.395              0.845
 Vibration    14          0.820              1.335              0.761
 Vibration    15          0.836              1.295              0.711
 Vibration    16          0.840              1.287              0.701
 Vibration    17          0.872              1.213              0.618
 Vibration    18          0.953              1.042              0.458

 Optimization completed.
    -- Stationary point found.
 Normal termination of Gaussian 16 at Tue Dec 26 22:33:57 2023.
