 Q-Chem 5.4, Q-Chem, Inc., Pleasanton, CA (2021)
 Q-Chem 5.4.0 for Intel X86 EM64T Linux

User input:
--------------------------------------------------------------
$molecule
-2 1
C                 -6.5604080000      0.8197080000     -1.8598360000
C                 -6.6916990000      1.0514770000     -3.2151890000
C                 -5.6939800000      0.5966020000     -4.1114860000
C                 -5.4401160000      0.1296350000     -1.3325630000
C                 -4.4234090000     -0.3318430000     -2.2436030000
C                 -4.5886690000     -0.0793030000     -3.6177260000
C                 -5.3165040000     -0.1081010000      0.0771100000
C                 -4.1432390000     -0.8147540000      0.4925000000
C                 -3.1436390000     -1.2808570000     -0.3539440000
C                 -3.2335380000     -1.0547970000     -1.7743730000
O                 -6.1637640000      0.2524680000      0.9882580000
O                 -2.3380730000     -1.4645580000     -2.5815630000
O                 -4.0892900000     -1.0125090000      1.8519810000
C                 -1.9600600000     -2.0445130000      0.1783810000
H                 -7.3122760000      1.1595120000     -1.1548620000
H                 -7.5608420000      1.5844920000     -3.5948450000
H                 -5.7944480000      0.7784790000     -5.1786840000
H                 -3.8060260000     -0.4383680000     -4.2783710000
H                 -4.9323450000     -0.5748490000      2.1237700000
C                 -0.7104830000     -1.1754450000      0.4306610000
C                  0.4877020000     -2.0219570000      0.9098550000
C                  1.7471820000     -1.2392510000      1.2002020000
C                  2.6472340000     -0.8987110000      0.1807720000
C                  2.0637000000     -0.8169150000      2.4957040000
C                  3.2266240000     -0.0935960000      2.7612490000
C                  4.1280370000      0.2398150000      1.7452580000
C                  3.8095360000     -0.1784690000      0.4457630000
C                  5.4023450000      1.0066860000      2.0577440000
C                  6.6783120000      0.1782500000      1.7814370000
C                  5.4823190000      2.3667200000      1.3292160000
C                  6.7599050000      3.1380830000      1.6918290000
C                  7.9567680000      0.9490540000      2.1393330000
C                  8.0225950000      2.3080980000      1.4338720000
H                 -1.6927650000     -2.8095960000     -0.5601980000
H                 -2.2342790000     -2.5458210000      1.1139360000
H                 -0.9403740000     -0.4091620000      1.1791010000
H                 -0.4493700000     -0.6572330000     -0.4968230000
H                  0.7017350000     -2.7781630000      0.1448850000
H                  0.1917410000     -2.5692530000      1.8133110000
H                  2.4295040000     -1.2052400000     -0.8380610000
H                  1.3877130000     -1.0596210000      3.3106740000
H                  3.4410800000      0.2146750000      3.7812880000
H                  4.4791990000      0.0571930000     -0.3758190000
H                  5.3891650000      1.2219670000      3.1349700000
H                  6.7040310000     -0.0996770000      0.7203290000
H                  6.6316810000     -0.7612460000      2.3449340000
H                  4.5948540000      2.9624800000      1.5712560000
H                  5.4541150000      2.1980300000      0.2455970000
H                  6.7238930000      3.4186410000      2.7533250000
H                  6.8050590000      4.0793680000      1.1297410000
H                  8.8438100000      0.3507660000      1.8931690000
H                  7.9912660000      1.1062110000      3.2260540000
H                  8.1319120000      2.1467130000      0.3527340000
H                  8.9167380000      2.8597810000      1.7518430000
$end
$rem
MAX_SCF_CYCLES=200
BASIS  =  6-311++G(d,p)
GUI  =  2
JOB_TYPE  =  SP
SCF_CONVERGENCE  = 6
METHOD  =  B3LYP
SOLVENT_METHOD = COSMO
$end
$solvent
dielectric 37.219
opticaldielectric 1.43
$end

--------------------------------------------------------------

             Standard Nuclear Orientation (Angstroms)
    I     Atom           X                Y                Z
 ----------------------------------------------------------------
    1      C       6.7012779689     0.9524527850    -1.2619751092
    2      C       7.1789894915     2.1727132187    -0.8252920137
    3      C       6.5249386433     2.8525376537     0.2310029292
    4      C       5.5592168982     0.3522054045    -0.6748879606
    5      C       4.8918540035     1.0441473717     0.3986538554
    6      C       5.4049854282     2.2848272452     0.8190238483
    7      C       5.0743552078    -0.9175385434    -1.1349268144
    8      C       3.9146519040    -1.4244982216    -0.4666916712
    9      C       3.2461335422    -0.7915313841     0.5751124343
   10      C       3.7030627136     0.4870023982     1.0581968966
   11      O       5.5907747386    -1.6325710005    -2.0836573572
   12      O       3.1169715989     1.0986277007     2.0088435366
   13      O       3.5059654338    -2.6440858391    -0.9522712595
   14      C       2.0501503307    -1.4236568459     1.2365058116
   15      H       7.1862609573     0.4141353371    -2.0699147200
   16      H       8.0570874418     2.6128223565    -1.2931607554
   17      H       6.8983749766     3.8135637078     0.5760520007
   18      H       4.8803551343     2.7818166489     1.6287609310
   19      H       4.1880643578    -2.7886597793    -1.6522689044
   20      C       0.6940485276    -0.9430017873     0.6794369826
   21      C      -0.4922028793    -1.5726601368     1.4398281400
   22      C      -1.8590920857    -1.1676641827     0.9390166907
   23      C      -2.4709392834     0.0197421307     1.3644668909
   24      C      -2.5670778015    -1.9566087932     0.0262191222
   25      C      -3.8285350861    -1.5802295465    -0.4354744280
   26      C      -4.4418741167    -0.3992154687    -0.0053965456
   27      C      -3.7313187435     0.3948284862     0.9054804527
   28      C      -5.8273805555    -0.0182671612    -0.5002195493
   29      C      -6.8795252330     0.0004856619     0.6326456054
   30      C      -5.8467683141     1.3226951119    -1.2672173757
   31      C      -7.2498375519     1.6651818592    -1.7895339413
   32      C      -8.2820519968     0.3467327831     0.1133097746
   33      C      -8.2942510646     1.6655300631    -0.6674808038
   34      H       2.0826369833    -1.1718293936     2.3031946626
   35      H       2.1052379250    -2.5138334922     1.1352676488
   36      H       0.6229871791    -1.1955621590    -0.3842196749
   37      H       0.6474112738     0.1471247661     0.7594326707
   38      H      -0.4024849801    -1.3039422114     2.4993460094
   39      H      -0.4024974049    -2.6647217744     1.3877428580
   40      H      -1.9466703350     0.6594902186     2.0682079771
   41      H      -2.1226768823    -2.8822455776    -0.3283864246
   42      H      -4.3502015403    -2.2206409877    -1.1420430683
   43      H      -4.1670878469     1.3210355678     1.2677342656
   44      H      -6.1377197185    -0.7967442071    -1.2105705676
   45      H      -6.5789231958     0.7345563947     1.3906915449
   46      H      -6.8911210828    -0.9740817928     1.1350795469
   47      H      -5.1309533080     1.2788392481    -2.0959471299
   48      H      -5.5001454167     2.1237597997    -0.6026650062
   49      H      -7.5410052536     0.9303248156    -2.5524165723
   50      H      -7.2374159483     2.6392689489    -2.2945084952
   51      H      -8.9960443132     0.3925759722     0.9460775271
   52      H      -8.6343091393    -0.4618957679    -0.5415839104
   53      H      -8.0803628543     2.4933665734     0.0222968745
   54      H      -9.2953508631     1.8584492893    -1.0743379770
 ----------------------------------------------------------------

  113   -1194.3489373313      5.02e-07  Convergence criterion met
 Total energy in the final basis set =    -1194.3489373313
    8   -1194.6034314257      5.74e-07  Convergence criterion met
 Total energy in the final basis set =    -1194.6034314257

                    Orbital Energies (a.u.)
 --------------------------------------------------------------

 Alpha MOs
 -- Occupied --
-19.1142 -19.0307 -19.0223 -10.1777 -10.1753 -10.1738 -10.1735 -10.1693
-10.1668 -10.1664 -10.1660 -10.1655 -10.1639 -10.1587 -10.1571 -10.1569
-10.1559 -10.1558 -10.1550 -10.1497 -10.1482 -10.1452 -10.1447 -10.1437
-10.1418 -10.1373 -10.1331 -10.1249  -1.0290  -0.9463  -0.9382  -0.8596
 -0.8262  -0.8255  -0.7918  -0.7726  -0.7508  -0.7405  -0.7341  -0.7251
 -0.7223  -0.6993  -0.6613  -0.6312  -0.6116  -0.6038  -0.6030  -0.5893
 -0.5801  -0.5640  -0.5549  -0.5436  -0.5362  -0.5043  -0.4954  -0.4733
 -0.4724  -0.4602  -0.4525  -0.4446  -0.4372  -0.4313  -0.4301  -0.4242
 -0.4185  -0.4161  -0.4093  -0.4053  -0.4010  -0.3900  -0.3877  -0.3819
 -0.3753  -0.3712  -0.3709  -0.3593  -0.3562  -0.3525  -0.3511  -0.3460
 -0.3376  -0.3370  -0.3328  -0.3306  -0.3251  -0.3180  -0.3141  -0.3091
 -0.3079  -0.3015  -0.3012  -0.2962  -0.2944  -0.2520  -0.2345  -0.2312
 -0.2278  -0.2194  -0.2003  -0.1938  -0.1098

          Ground-State Mulliken Net Atomic Charges

     Atom                 Charge (a.u.)
  ----------------------------------------
      1 C                    -0.028809
      2 C                    -0.463956
      3 C                    -0.461443
      4 C                     0.214955
      5 C                     0.197725
      6 C                     0.061119
      7 C                    -0.717627
      8 C                    -0.540441
      9 C                     1.797137
     10 C                    -1.329409
     11 O                    -0.766686
     12 O                    -0.651635
     13 O                    -0.353329
     14 C                    -0.219873
     15 H                     0.159637
     16 H                     0.176032
     17 H                     0.172677
     18 H                     0.159895
     19 H                     0.292597
     20 C                    -0.467143
     21 C                    -0.672150
     22 C                     1.079855
     23 C                    -0.305615
     24 C                    -0.589802
     25 C                    -0.446306
     26 C                     0.539341
     27 C                    -0.570025
     28 C                     0.225749
     29 C                    -0.390395
     30 C                    -0.437249
     31 C                    -0.401813
     32 C                    -0.468014
     33 C                    -0.429076
     34 H                     0.166311
     35 H                     0.200170
     36 H                     0.174949
     37 H                     0.192777
     38 H                     0.164577
     39 H                     0.152410
     40 H                     0.203567
     41 H                     0.198494
     42 H                     0.193622
     43 H                     0.200002
     44 H                     0.189628
     45 H                     0.146390
     46 H                     0.183625
     47 H                     0.179941
     48 H                     0.144227
     49 H                     0.135488
     50 H                     0.182506
     51 H                     0.179093
     52 H                     0.140440
     53 H                     0.125781
     54 H                     0.179500
  ----------------------------------------
  Sum of atomic charges =    -2.000580

                    Cartesian Multipole Moments
 -----------------------------------------------------------------
    Charge (ESU x 10^10)
                -9.6092
    Dipole Moment (Debye)
         X     -42.3769      Y       1.7466      Z       0.3485
       Tot      42.4143
    Quadrupole Moments (Debye-Ang)
        XX    -379.8186     XY       7.7328     YY    -198.2280
        XZ      22.0401     YZ     -14.9024     ZZ    -207.1853

 Total job time:  2130.66s(wall), 16740.52s(cpu)
        *  Thank you very much for using Q-Chem.  Have a nice day.  *
