 Gaussian 16, Revision A.03,
 Gaussian 16:  ES64L-G16RevA.03 25-Dec-2016

 ----------------------------------------------------------------------
 #P UB3LYP/6-311++G(d,p) nosym opt freq SCRF=(PCM,Solvent=n,n-DiMethylF
 ormamide)
 ----------------------------------------------------------------------

 -------
 Radical
 -------
 Symbolic Z-matrix:
 Charge = -1 Multiplicity = 2

 SCF Done:  E(UB3LYP) =  -839.598672130     A.U. after   18 cycles
 SCF Done:  E(UB3LYP) =  -839.599205440     A.U. after   14 cycles
 SCF Done:  E(UB3LYP) =  -839.599281107     A.U. after   14 cycles
 SCF Done:  E(UB3LYP) =  -839.599279997     A.U. after   13 cycles
 SCF Done:  E(UB3LYP) =  -839.599283700     A.U. after   12 cycles
 SCF Done:  E(UB3LYP) =  -839.599285149     A.U. after   10 cycles
 Optimization completed.
    -- Stationary point found.
 Normal termination of Gaussian 16 at Sat Feb 10 22:32:51 2024.

 ----------------------------------------------------------------------
 #P Geom=AllCheck Guess=TCheck SCRF=Check GenChk UB3LYP/6-311++G(d,p) F
 req
 ----------------------------------------------------------------------

 Structure from the checkpoint file:  "189-rad.chk"
 -------
 Radical
 -------
 Charge = -1 Multiplicity = 2

                          Input orientation:
 ---------------------------------------------------------------------
 Center     Atomic      Atomic             Coordinates (Angstroms)
 Number     Number       Type             X           Y           Z
 ---------------------------------------------------------------------
      1          8           0       -4.928107    0.968053    0.188819
      2          6           0       -3.684738    0.390240    0.120985
      3          6           0       -3.647496   -1.017691    0.024891
      4          6           0       -2.428141   -1.655927   -0.048723
      5          6           0       -1.210297   -0.940909   -0.030569
      6          6           0        0.056309   -1.664235   -0.113849
      7          8           0        0.099102   -2.921753   -0.203845
      8          6           0        1.270932   -0.852804   -0.089304
      9          6           0        2.533892   -1.480272   -0.165621
     10          6           0        3.707357   -0.757525   -0.148230
     11          6           0        3.649624    0.649745   -0.051960
     12          8           0        4.850934    1.313997   -0.041348
     13          6           0        2.433414    1.297830    0.026129
     14          6           0        1.221774    0.568315    0.009845
     15          6           0       -0.043443    1.287647    0.094703
     16          8           0       -0.086365    2.553064    0.186751
     17          6           0       -1.257089    0.480326    0.068675
     18          6           0       -2.514999    1.122694    0.143274
     19          1           0       -4.839080    1.927086    0.247511
     20          1           0       -4.578120   -1.573068    0.009973
     21          1           0       -2.383292   -2.735626   -0.123474
     22          1           0        2.561280   -2.560736   -0.239450
     23          1           0        4.673100   -1.245945   -0.207421
     24          1           0        4.697595    2.264464    0.023813
     25          1           0        2.382618    2.378491    0.100986
     26          1           0       -2.536763    2.204538    0.217440
 ---------------------------------------------------------------------

 SCF Done:  E(UB3LYP) =  -839.599285149     A.U. after    2 cycles

 Alpha  occ. eigenvalues --  -19.15835 -19.15832 -19.07483 -19.07239 -10.23802
 Alpha  occ. eigenvalues --  -10.23801 -10.22637 -10.21857 -10.17672 -10.17671
 Alpha  occ. eigenvalues --  -10.17519 -10.17517 -10.17225 -10.17224 -10.16922
 Alpha  occ. eigenvalues --  -10.16919 -10.16817 -10.16814  -1.06701  -1.06696
 Alpha  occ. eigenvalues --   -0.99933  -0.99325  -0.86131  -0.85061  -0.78416
 Alpha  occ. eigenvalues --   -0.75307  -0.75266  -0.73737  -0.66843  -0.65597
 Alpha  occ. eigenvalues --   -0.61890  -0.61533  -0.56184  -0.55818  -0.55354
 Alpha  occ. eigenvalues --   -0.51670  -0.49595  -0.47907  -0.46582  -0.44299
 Alpha  occ. eigenvalues --   -0.42959  -0.42951  -0.42910  -0.42492  -0.41650
 Alpha  occ. eigenvalues --   -0.41387  -0.40541  -0.40026  -0.38572  -0.37736
 Alpha  occ. eigenvalues --   -0.37726  -0.36828  -0.34669  -0.33961  -0.33807
 Alpha  occ. eigenvalues --   -0.31791  -0.26286  -0.26019  -0.24517  -0.24340
 Alpha  occ. eigenvalues --   -0.23727  -0.22764  -0.14092
 Alpha virt. eigenvalues --   -0.05144  -0.01761  -0.00516  -0.00013   0.00072
 Alpha virt. eigenvalues --    0.00833   0.01705   0.02117   0.03752   0.04102
 Alpha virt. eigenvalues --    0.04361   0.04563   0.05545   0.06027   0.06438

  Beta  occ. eigenvalues --  -19.15824 -19.15821 -19.07017 -19.06615 -10.23781
  Beta  occ. eigenvalues --  -10.23781 -10.22496 -10.21616 -10.17602 -10.17601
  Beta  occ. eigenvalues --  -10.17539 -10.17537 -10.17173 -10.17172 -10.16852
  Beta  occ. eigenvalues --  -10.16848 -10.16762 -10.16759  -1.06674  -1.06669
  Beta  occ. eigenvalues --   -0.99109  -0.98207  -0.85864  -0.84956  -0.78041
  Beta  occ. eigenvalues --   -0.75115  -0.75018  -0.73600  -0.66085  -0.65454
  Beta  occ. eigenvalues --   -0.61769  -0.61327  -0.55947  -0.55668  -0.55306
  Beta  occ. eigenvalues --   -0.51486  -0.49456  -0.47606  -0.46539  -0.44112
  Beta  occ. eigenvalues --   -0.42898  -0.42818  -0.42366  -0.42266  -0.41463
  Beta  occ. eigenvalues --   -0.41181  -0.39983  -0.39125  -0.38507  -0.37621
  Beta  occ. eigenvalues --   -0.36742  -0.35348  -0.34568  -0.33728  -0.33619
  Beta  occ. eigenvalues --   -0.30592  -0.25557  -0.24638  -0.24025  -0.23207
  Beta  occ. eigenvalues --   -0.23104  -0.22350
  Beta virt. eigenvalues --   -0.08123  -0.04277  -0.00897  -0.00504   0.00070
  Beta virt. eigenvalues --    0.00340   0.00837   0.01700   0.02137   0.03762
  Beta virt. eigenvalues --    0.04292   0.04392   0.04558   0.05958   0.06023

 Mulliken charges and spin densities:
               1          2
     1  O   -0.287124   0.003169
     2  C   -0.594728   0.011218
     3  C   -0.203951   0.043917
     4  C    0.129538   0.003562
     5  C    0.132312   0.024761
     6  C   -0.535943   0.076776
     7  O   -0.466923   0.171662
     8  C    0.132763   0.024765
     9  C    0.130108   0.003547
    10  C   -0.204814   0.043929
    11  C   -0.595201   0.011203
    12  O   -0.287335   0.003166
    13  C    0.151069   0.069493
    14  C    0.405275   0.038692
    15  C   -0.633216   0.145769
    16  O   -0.484806   0.233836
    17  C    0.405203   0.038788
    18  C    0.151166   0.069460
    19  H    0.303333  -0.000142
    20  H    0.205847  -0.003583
    21  H    0.172076  -0.000111
    22  H    0.172098  -0.000114
    23  H    0.205767  -0.003584
    24  H    0.303457  -0.000142
    25  H    0.147178  -0.005017
    26  H    0.146853  -0.005020
 Sum of Mulliken charges =  -1.00000   1.00000

 Dipole moment (field-independent basis, Debye):
    X=             -0.1075    Y=              3.1985    Z=              0.1849  Tot=              3.2056
 Quadrupole moment (field-independent basis, Debye-Ang):
   XX=           -119.4141   YY=           -128.7913   ZZ=           -110.5090
   XY=              0.3160   XZ=              0.2713   YZ=             -1.4118

  Exact polarizability: 473.258   4.873 346.455  -8.625  14.867 130.375
 Approx polarizability: 492.733   3.165 415.370  -8.735  18.361 149.907

                      1                      2                      3
                      A                      A                      A
 Frequencies --     47.5516                93.0297               120.1612
 Red. masses --      9.5600                 4.4115                 7.1677
 Frc consts  --      0.0127                 0.0225                 0.0610
 IR Inten    --      7.8266                 0.0015                 2.2044

                      4                      5                      6
                      A                      A                      A
 Frequencies --    159.0776               170.4572               177.8886
 Red. masses --      7.2590                 6.6983                 6.3343
 Frc consts  --      0.1082                 0.1147                 0.1181
 IR Inten    --     10.3705                 3.3447                 0.0025

                      7                      8                      9
                      A                      A                      A
 Frequencies --    250.3162               279.9971               319.5525
 Red. masses --      8.2194                 6.1768                 7.4313
 Frc consts  --      0.3034                 0.2853                 0.4471
 IR Inten    --      4.1650                 4.0161                 1.3777

                     10                     11                     12
                      A                      A                      A
 Frequencies --    326.5041               356.7875               357.1272
 Red. masses --      3.9972                 1.5026                 1.3419
 Frc consts  --      0.2511                 0.1127                 0.1008
 IR Inten    --      0.0516               242.0559                50.1461

                     13                     14                     15
                      A                      A                      A
 Frequencies --    358.7373               389.0895               410.8455
 Red. masses --      2.4779                 8.0185                 4.8206
 Frc consts  --      0.1879                 0.7152                 0.4794
 IR Inten    --     63.5832                 4.0029                48.2324

                     16                     17                     18
                      A                      A                      A
 Frequencies --    415.9497               455.9314               464.0351
 Red. masses --      3.8873                 2.9850                 5.1708
 Frc consts  --      0.3963                 0.3656                 0.6560
 IR Inten    --      7.5350                 0.0586                64.8114

                     19                     20                     21
                      A                      A                      A
 Frequencies --    485.1392               489.7044               589.5825
 Red. masses --     13.0757                 5.2792                 4.6394
 Frc consts  --      1.8132                 0.7459                 0.9502
 IR Inten    --      0.8594                 9.1406                 0.0107

                     22                     23                     24
                      A                      A                      A
 Frequencies --    594.5081               601.2057               653.2844
 Red. masses --      6.0107                 7.0798                 3.1477
 Frc consts  --      1.2517                 1.5077                 0.7915
 IR Inten    --      5.4423                29.3763                31.5854

                     25                     26                     27
                      A                      A                      A
 Frequencies --    659.1929               712.2679               713.0574
 Red. masses --      7.6850                 6.9202                 4.3844
 Frc consts  --      1.9675                 2.0685                 1.3134
 IR Inten    --      0.3513                 0.0192                 0.0639

                     28                     29                     30
                      A                      A                      A
 Frequencies --    730.1680               736.4487               774.7481
 Red. masses --      7.4345                 6.2171                 3.3911
 Frc consts  --      2.3353                 1.9867                 1.1992
 IR Inten    --     44.6079                15.8974                 9.5936

                     31                     32                     33
                      A                      A                      A
 Frequencies --    800.7116               821.4351               833.7586
 Red. masses --      7.8657                 1.4524                 1.8683
 Frc consts  --      2.9713                 0.5774                 0.7652
 IR Inten    --    156.8768                 0.0295                43.7628

                     34                     35                     36
                      A                      A                      A
 Frequencies --    872.9115               880.7330               934.5136
 Red. masses --      1.4593                 1.5087                 6.6461
 Frc consts  --      0.6551                 0.6895                 3.4197
 IR Inten    --     10.5906                66.0616                39.3340

                     37                     38                     39
                      A                      A                      A
 Frequencies --    935.7354               981.2491               985.2311
 Red. masses --      4.2413                 1.2991                 1.3145
 Frc consts  --      2.1880                 0.7370                 0.7518
 IR Inten    --      5.6340                 0.2967                 2.9485

                     40                     41                     42
                      A                      A                      A
 Frequencies --   1012.9459              1096.1866              1113.4067
 Red. masses --      2.2942                 2.4652                 1.5343
 Frc consts  --      1.3869                 1.7453                 1.1207
 IR Inten    --      5.4536                 3.1285                24.7990

                     43                     44                     45
                      A                      A                      A
 Frequencies --   1146.4026              1167.5102              1177.3804
 Red. masses --      1.4970                 1.6806                 1.6133
 Frc consts  --      1.1592                 1.3497                 1.3176
 IR Inten    --     40.9776               192.1244               161.8802

                     46                     47                     48
                      A                      A                      A
 Frequencies --   1191.6244              1193.6196              1215.8840
 Red. masses --      3.5571                 2.1533                 1.7671
 Frc consts  --      2.9760                 1.8076                 1.5392
 IR Inten    --    738.6644                64.7739                45.6648

                     49                     50                     51
                      A                      A                      A
 Frequencies --   1236.1899              1268.5617              1298.6359
 Red. masses --      2.1435                 3.1168                 2.8108
 Frc consts  --      1.9299                 2.9552                 2.7929
 IR Inten    --    431.8257                22.5777                14.1204

                     52                     53                     54
                      A                      A                      A
 Frequencies --   1346.1529              1370.5707              1371.5872
 Red. masses --      2.0096                 6.5029                 8.6128
 Frc consts  --      2.1456                 7.1971                 9.5464
 IR Inten    --     37.2435                34.4996                20.9902

                     55                     56                     57
                      A                      A                      A
 Frequencies --   1417.6875              1467.5577              1475.3750
 Red. masses --      3.6933                 3.0458                 4.4490
 Frc consts  --      4.3735                 3.8649                 5.7059
 IR Inten    --   1048.9084               381.4371               236.3998

                     58                     59                     60
                      A                      A                      A
 Frequencies --   1491.2813              1507.8403              1537.6125
 Red. masses --      4.7368                 5.3528                 5.2291
 Frc consts  --      6.2066                 7.1704                 7.2840
 IR Inten    --    118.4341              1170.5703                 0.0517

                     61                     62                     63
                      A                      A                      A
 Frequencies --   1576.7579              1608.6081              1618.4957
 Red. masses --      5.4243                 7.4541                 6.1964
 Frc consts  --      7.9455                11.3644                 9.5635
 IR Inten    --     12.5295                51.6976               986.3324

                     64                     65                     66
                      A                      A                      A
 Frequencies --   1640.3450              3171.2497              3175.2006
 Red. masses --      7.1649                 1.0899                 1.0895
 Frc consts  --     11.3587                 6.4578                 6.4719
 IR Inten    --      1.3282                27.7564                21.3456

                     67                     68                     69
                      A                      A                      A
 Frequencies --   3177.5836              3178.2261              3193.4972
 Red. masses --      1.0875                 1.0878                 1.0941
 Frc consts  --      6.4698                 6.4739                 6.5740
 IR Inten    --      1.9728                 4.4821                30.1102

                     70                     71                     72
                      A                      A                      A
 Frequencies --   3195.2011              3806.6701              3808.2587
 Red. masses --      1.0937                 1.0663                 1.0662
 Frc consts  --      6.5789                 9.1037                 9.1102
 IR Inten    --     19.8065               128.3347               139.4420

 - Thermochemistry -
 -------------------
 Temperature   298.150 Kelvin.  Pressure   1.00000 Atm.
 Atom     1 has atomic number  8 and mass  15.99491

 Molecular mass:   240.04226 amu.
 Principal axes and moments of inertia in atomic units:
                           1         2         3
     Eigenvalues --  1863.179786775.994108639.15039
           X            0.99910  -0.03362   0.02593
           Y            0.03533   0.99701  -0.06866
           Z           -0.02354   0.06951   0.99730
 This molecule is an asymmetric top.
 Rotational symmetry number  1.
 Warning -- assumption of classical behavior for rotation
           may cause significant error
 Rotational temperatures (Kelvin)      0.04649     0.01278     0.01003
 Rotational constants (GHZ):           0.96864     0.26634     0.20890
 Zero-point vibrational energy     485640.4 (Joules/Mol)
                                  116.07084 (Kcal/Mol)
 Warning -- explicit consideration of  23 degrees of freedom as
           vibrations may cause significant error
 Vibrational temperatures:     68.42   133.85   172.89   228.88   245.25
          (Kelvin)            255.94   360.15   402.85   459.76   469.77
                              513.34   513.83   516.14   559.81   591.12
                              598.46   655.98   667.64   698.01   704.58
                              848.28   855.36   865.00   939.93   948.43
                             1024.79  1025.93  1050.55  1059.59  1114.69
                             1152.05  1181.86  1199.59  1255.92  1267.18
                             1344.56  1346.31  1411.80  1417.53  1457.40
                             1577.17  1601.94  1649.42  1679.79  1693.99
                             1714.48  1717.35  1749.39  1778.60  1825.18
                             1868.45  1936.81  1971.95  1973.41  2039.74
                             2111.49  2122.74  2145.62  2169.45  2212.28
                             2268.60  2314.43  2328.65  2360.09  4562.72
                             4568.41  4571.83  4572.76  4594.73  4597.18
                             5476.95  5479.23

 Zero-point correction=                           0.184971 (Hartree/Particle)
 Thermal correction to Energy=                    0.198652
 Thermal correction to Enthalpy=                  0.199596
 Thermal correction to Gibbs Free Energy=         0.144372
 Sum of electronic and zero-point Energies=           -839.414314
 Sum of electronic and thermal Energies=              -839.400634
 Sum of electronic and thermal Enthalpies=            -839.399689
 Sum of electronic and thermal Free Energies=         -839.454914

                     E (Thermal)             CV                S
                      KCal/Mol        Cal/Mol-Kelvin    Cal/Mol-Kelvin
 Total                  124.656             55.668            116.229
 Electronic               0.000              0.000              1.377
 Translational            0.889              2.981             42.328
 Rotational               0.889              2.981             33.056
 Vibrational            122.878             49.706             39.468
 Vibration     1          0.595              1.979              4.917
 Vibration     2          0.602              1.954              3.595
 Vibration     3          0.609              1.932              3.098
 Vibration     4          0.621              1.892              2.561
 Vibration     5          0.626              1.879              2.430
 Vibration     6          0.628              1.870              2.350
 Vibration     7          0.663              1.762              1.728
 Vibration     8          0.680              1.711              1.534
 Vibration     9          0.705              1.636              1.312
 Vibration    10          0.710              1.623              1.277
 Vibration    11          0.732              1.561              1.136
 Vibration    12          0.732              1.561              1.135
 Vibration    13          0.734              1.557              1.128
 Vibration    14          0.757              1.493              1.004
 Vibration    15          0.775              1.447              0.924
 Vibration    16          0.779              1.436              0.906
 Vibration    17          0.814              1.348              0.778
 Vibration    18          0.822              1.330              0.754
 Vibration    19          0.841              1.283              0.696
 Vibration    20          0.846              1.273              0.684
 Vibration    21          0.947              1.054              0.468
 Vibration    22          0.952              1.043              0.459
 Vibration    23          0.959              1.029              0.448

 Optimization completed.
    -- Stationary point found.
 Normal termination of Gaussian 16 at Sat Feb 10 23:29:51 2024.
