 Q-Chem 5.4, Q-Chem, Inc., Pleasanton, CA (2021)
 Q-Chem 5.4.0 for Intel X86 EM64T Linux

User input:
--------------------------------------------------------------
$molecule
-1 2
O                 -0.0584500000     -1.1909850000      1.2563240000
C                 -0.4632240000     -0.3854230000      0.3703310000
C                 -1.9535960000     -0.2429600000      0.2061840000
C                 -2.7545620000     -1.0279340000      1.0629020000
C                 -4.1424680000     -0.9851150000      1.0084690000
C                 -4.7880980000     -0.1517730000      0.0909750000
C                 -4.0136480000      0.6320860000     -0.7646330000
C                 -2.6202950000      0.5927680000     -0.7140900000
C                  0.4634470000      0.3851760000     -0.4702420000
O                  0.0587240000      1.1909250000     -1.3561760000
C                  1.9536220000      0.2428820000     -0.3064190000
C                  2.7543060000      1.0282360000     -1.1630160000
C                  4.1421840000      0.9855480000     -1.1089110000
C                  4.7880180000      0.1518880000     -0.1918240000
C                  4.0138850000     -0.6324490000      0.6637500000
C                  2.6205150000     -0.5931600000      0.6134470000
H                 -2.2426080000     -1.6696370000      1.7694550000
H                 -4.7269180000     -1.6039500000      1.6840610000
H                 -5.8725320000     -0.1154630000      0.0453470000
H                 -4.4982000000      1.2861370000     -1.4845820000
H                 -2.0254490000      1.2012160000     -1.3783640000
H                  2.2420500000      1.6701280000     -1.8692440000
H                  4.7264330000      1.6046950000     -1.7843990000
H                  5.8724410000      0.1156940000     -0.1464740000
H                  4.4986000000     -1.2867130000      1.3833290000
H                  2.0258230000     -1.2018180000      1.2775870000
$end
$rem
MAX_SCF_CYCLES=200
BASIS  =  6-311++G(d,p)
GUI  =  2
JOB_TYPE  =  SP
METHOD  =  B3LYP
SOLVENT_METHOD = COSMO
$end
$solvent
dielectric 37.219
opticaldielectric 1.43
$end

--------------------------------------------------------------

             Standard Nuclear Orientation (Angstroms)
    I     Atom           X                Y                Z
 ----------------------------------------------------------------
    1      O      -0.2199361701    -1.7551150368     0.0004915461
    2      C      -0.5134825287    -0.5256492315     0.0001882783
    3      C      -1.9777405822    -0.1729496588     0.0001083423
    4      C      -2.8816400798    -1.2567679747     0.0001484753
    5      C      -4.2574183290    -1.0610291920     0.0000029809
    6      C      -4.7869705466     0.2322869532    -0.0001494119
    7      C      -3.9096197336     1.3169658617    -0.0001720833
    8      C      -2.5279387679     1.1259402529    -0.0000798798
    9      C       0.5136178612     0.5251455473    -0.0000384536
   10      O       0.2201304505     1.7546886877    -0.0001639704
   11      C       1.9777117293     0.1728158246    -0.0000512541
   12      C       2.8813469247     1.2568257521     0.0002719231
   13      C       4.2571270992     1.0614188173     0.0002933113
   14      C       4.7868885832    -0.2318297122    -0.0000642220
   15      C       3.9098249567    -1.3168332007    -0.0004187782
   16      C       2.5281095456    -1.1260021376    -0.0003706411
   17      H      -2.4591354841    -2.2540576202     0.0002473455
   18      H      -4.9232262347    -1.9199022577     0.0000021173
   19      H      -5.8615433027     0.3894200629    -0.0002412858
   20      H      -4.3031705421     2.3298911628    -0.0002694668
   21      H      -1.8531838585     1.9685650119    -0.0001648291
   22      H       2.4585325373     2.2540305771     0.0005327535
   23      H       4.9227481039     1.9204429884     0.0005954990
   24      H       5.8614759686    -0.3886793920    -0.0000739084
   25      H       4.3035485342    -2.3296439425    -0.0007286600
   26      H       1.8535032424    -1.9686832072    -0.0005316945
 ----------------------------------------------------------------

   10    -690.1922871035      4.52e-06  Convergence criterion met
 Total energy in the final basis set =     -690.1922871035
    4    -690.2734032221      5.90e-06  Convergence criterion met
 Total energy in the final basis set =     -690.2734032221

                    Orbital Energies (a.u.)
 --------------------------------------------------------------

 Alpha MOs
 -- Occupied --
-19.0751 -19.0750 -10.2196 -10.2193 -10.1730 -10.1729 -10.1699 -10.1699
-10.1688 -10.1688 -10.1677 -10.1677 -10.1638 -10.1638 -10.1623 -10.1623
 -1.0090  -0.9920  -0.8502  -0.8484  -0.7507  -0.7504  -0.7400  -0.7389
 -0.6697  -0.6173  -0.6027  -0.5941  -0.5767  -0.5375  -0.5093  -0.4789
 -0.4703  -0.4493  -0.4383  -0.4373  -0.4283  -0.4169  -0.4150  -0.4084
 -0.4073  -0.3949  -0.3742  -0.3560  -0.3538  -0.3442  -0.3429  -0.3334
 -0.3311  -0.2658  -0.2578  -0.2535  -0.2520  -0.2514  -0.2187  -0.1492

 Beta MOs
 -- Occupied --
-19.0683 -19.0682 -10.2170 -10.2167 -10.1734 -10.1734 -10.1694 -10.1694
-10.1689 -10.1689 -10.1680 -10.1680 -10.1632 -10.1631 -10.1617 -10.1617
 -0.9968  -0.9795  -0.8495  -0.8475  -0.7496  -0.7473  -0.7394  -0.7383
 -0.6579  -0.6147  -0.6021  -0.5937  -0.5741  -0.5361  -0.5086  -0.4760
 -0.4685  -0.4466  -0.4372  -0.4366  -0.4253  -0.4146  -0.4073  -0.4061
 -0.3954  -0.3896  -0.3697  -0.3529  -0.3466  -0.3420  -0.3331  -0.3305
 -0.3127  -0.2597  -0.2532  -0.2517  -0.2471  -0.2417  -0.2125

          Ground-State Mulliken Net Atomic Charges

     Atom                 Charge (a.u.)    Spin (a.u.)
  --------------------------------------------------------
      1 O                    -0.449536       0.252910
      2 C                    -0.351402       0.200782
      3 C                     1.559981      -0.072738
      4 C                     0.412479       0.080285
      5 C                    -0.333545      -0.023802
      6 C                    -0.520642       0.058691
      7 C                    -0.435623      -0.030562
      8 C                    -1.351394       0.047550
      9 C                    -0.352626       0.200098
     10 O                    -0.448123       0.253284
     11 C                     1.558273      -0.072692
     12 C                     0.413326       0.080222
     13 C                    -0.333059      -0.023781
     14 C                    -0.520786       0.058604
     15 C                    -0.435017      -0.030525
     16 C                    -1.352371       0.047488
     17 H                     0.187310      -0.005962
     18 H                     0.207344       0.001344
     19 H                     0.184550      -0.003870
     20 H                     0.218244       0.001126
     21 H                     0.172631      -0.005550
     22 H                     0.187278      -0.005963
     23 H                     0.207350       0.001344
     24 H                     0.184554      -0.003865
     25 H                     0.218258       0.001126
     26 H                     0.172546      -0.005541
  --------------------------------------------------------
  Sum of atomic charges =    -1.000000

                    Cartesian Multipole Moments
 -----------------------------------------------------------------
    Charge (ESU x 10^10)
                -4.8032
    Dipole Moment (Debye)
         X      -0.0003      Y       0.0053      Z      -0.0002
       Tot       0.0053
    Quadrupole Moments (Debye-Ang)
        XX     -94.8245     XY      -1.5426     YY    -105.8798
        XZ       0.0021     YZ       0.0055     ZZ    -102.7410

 Total job time:  58.26s(wall), 432.90s(cpu)
        *  Thank you very much for using Q-Chem.  Have a nice day.  *
