 Gaussian 16, Revision A.03,
 Gaussian 16:  ES64L-G16RevA.03 25-Dec-2016

 ----------------------------------------------------------------------
 #P UB3LYP/6-311++G(d,p) nosym opt freq SCRF=(PCM,Solvent=n,n-DiMethylF
 ormamide)
 ----------------------------------------------------------------------

 -------
 Radical
 -------
 Symbolic Z-matrix:
 Charge = -1 Multiplicity = 2

 SCF Done:  E(UB3LYP) =  -539.016723831     A.U. after   17 cycles
 SCF Done:  E(UB3LYP) =  -539.016922640     A.U. after   16 cycles
 SCF Done:  E(UB3LYP) =  -539.017025056     A.U. after   14 cycles
 SCF Done:  E(UB3LYP) =  -539.016958429     A.U. after   14 cycles
 SCF Done:  E(UB3LYP) =  -539.017042917     A.U. after   13 cycles
 SCF Done:  E(UB3LYP) =  -539.017046923     A.U. after   12 cycles
 SCF Done:  E(UB3LYP) =  -539.017046977     A.U. after    9 cycles
 Optimization completed.
    -- Stationary point found.
 Normal termination of Gaussian 16 at Sat Feb 10 10:30:37 2024.

 ----------------------------------------------------------------------
 #P Geom=AllCheck Guess=TCheck SCRF=Check GenChk UB3LYP/6-311++G(d,p) F
 req
 ----------------------------------------------------------------------

 Structure from the checkpoint file:  "033-rad.chk"
 -------
 Radical
 -------
 Charge = -1 Multiplicity = 2

                          Input orientation:
 ---------------------------------------------------------------------
 Center     Atomic      Atomic             Coordinates (Angstroms)
 Number     Number       Type             X           Y           Z
 ---------------------------------------------------------------------
      1          6           0       -1.800931    1.120862    0.642031
      2          6           0       -1.143193   -0.089889   -0.064040
      3          6           0       -1.678035   -1.367735    0.610880
      4          6           0       -1.580951   -0.128982   -1.548513
      5          6           0        0.389754    0.023969    0.025358
      6          6           0        1.150345   -0.934276    0.655342
      7          6           0        2.590846   -0.893637    0.778232
      8          8           0        3.237023   -1.815381    1.376453
      9          6           0        3.242505    0.245882    0.185874
     10          6           0        2.516393    1.216565   -0.447515
     11          6           0        1.075593    1.178761   -0.570704
     12          8           0        0.466759    2.118690   -1.173058
     13          1           0       -2.891580    1.047442    0.573016
     14          1           0       -1.533093    1.139345    1.703335
     15          1           0       -1.483710    2.058479    0.187194
     16          1           0       -2.767401   -1.394414    0.515722
     17          1           0       -1.438584   -1.400183    1.677513
     18          1           0       -1.283075   -2.274517    0.144069
     19          1           0       -1.154080   -1.001986   -2.052590
     20          1           0       -2.671636   -0.203558   -1.615514
     21          1           0       -1.257998    0.768546   -2.074366
     22          1           0        0.680999   -1.800210    1.106982
     23          1           0        4.324388    0.310577    0.257759
     24          1           0        3.009661    2.075655   -0.893460
 ---------------------------------------------------------------------

 SCF Done:  E(UB3LYP) =  -539.017046977     A.U. after    1 cycles

 Alpha  occ. eigenvalues --  -19.07296 -19.07165 -10.21603 -10.21446 -10.18168
 Alpha  occ. eigenvalues --  -10.16994 -10.15984 -10.15859 -10.15495 -10.15018
 Alpha  occ. eigenvalues --  -10.14564 -10.14548  -0.99185  -0.98818  -0.83032
 Alpha  occ. eigenvalues --   -0.79828  -0.73117  -0.68178  -0.67553  -0.67166
 Alpha  occ. eigenvalues --   -0.60436  -0.56968  -0.52448  -0.47181  -0.46706
 Alpha  occ. eigenvalues --   -0.44908  -0.43197  -0.42913  -0.41841  -0.40740
 Alpha  occ. eigenvalues --   -0.39732  -0.38165  -0.38156  -0.36781  -0.36476
 Alpha  occ. eigenvalues --   -0.35562  -0.35303  -0.32987  -0.32640  -0.31833
 Alpha  occ. eigenvalues --   -0.27613  -0.25066  -0.23745  -0.23111  -0.15942
 Alpha virt. eigenvalues --   -0.00496  -0.00269   0.00982   0.01523   0.01713
 Alpha virt. eigenvalues --    0.02835   0.03167   0.03217   0.04174   0.04312
 Alpha virt. eigenvalues --    0.05316   0.05773   0.05930   0.06869   0.08111

  Beta  occ. eigenvalues --  -19.06595 -19.06449 -10.21457 -10.21302 -10.18174
  Beta  occ. eigenvalues --  -10.16887 -10.15862 -10.15746 -10.15413 -10.15019
  Beta  occ. eigenvalues --  -10.14557 -10.14541  -0.97935  -0.97559  -0.82672
  Beta  occ. eigenvalues --   -0.79467  -0.72874  -0.67941  -0.67531  -0.66302
  Beta  occ. eigenvalues --   -0.60080  -0.56609  -0.52227  -0.46995  -0.46323
  Beta  occ. eigenvalues --   -0.44711  -0.43105  -0.42676  -0.41766  -0.39507
  Beta  occ. eigenvalues --   -0.39126  -0.37876  -0.36970  -0.36697  -0.35818
  Beta  occ. eigenvalues --   -0.35299  -0.33459  -0.32832  -0.32404  -0.31780
  Beta  occ. eigenvalues --   -0.24530  -0.23978  -0.23099  -0.22490
  Beta virt. eigenvalues --   -0.08622  -0.00253   0.00848   0.00998   0.01550
  Beta virt. eigenvalues --    0.01992   0.02854   0.03188   0.04194   0.04373
  Beta virt. eigenvalues --    0.04818   0.05339   0.05967   0.06119   0.06903

 Mulliken charges and spin densities:
               1          2
     1  C   -0.683285   0.010281
     2  C    0.601076  -0.015674
     3  C   -0.493364   0.000622
     4  C   -0.680983   0.010278
     5  C    1.248427   0.126772
     6  C   -0.532999  -0.010928
     7  C   -0.611361   0.129377
     8  O   -0.518081   0.243557
     9  C    0.170693   0.089178
    10  C   -0.044731   0.119873
    11  C   -0.915061   0.063607
    12  O   -0.447029   0.258039
    13  H    0.146942   0.000520
    14  H    0.133005   0.000703
    15  H    0.176967  -0.002257
    16  H    0.169337   0.000029
    17  H    0.131273  -0.000216
    18  H    0.131681  -0.000222
    19  H    0.132843   0.000737
    20  H    0.146935   0.000491
    21  H    0.176465  -0.002294
    22  H    0.197767  -0.007003
    23  H    0.180164  -0.006535
    24  H    0.183320  -0.008935
 Sum of Mulliken charges =  -1.00000   1.00000

 Dipole moment (field-independent basis, Debye):
    X=             -9.4469    Y=             -0.1917    Z=             -0.8517  Tot=              9.4871
 Quadrupole moment (field-independent basis, Debye-Ang):
   XX=           -103.8949   YY=            -98.4511   ZZ=            -87.1637
   XY=             15.7311   XZ=            -11.6792   YZ=             13.1707

  Exact polarizability: 227.924 -33.131 214.884  29.156 -53.095 162.311
 Approx polarizability: 234.282 -44.595 242.384  35.341 -64.117 179.620

                      1                      2                      3
                      A                      A                      A
 Frequencies --     59.6493                94.6890               155.4179
 Red. masses --      3.4697                 4.4227                 4.2800
 Frc consts  --      0.0073                 0.0234                 0.0609
 IR Inten    --      0.4160                11.3637                10.7929

                      4                      5                      6
                      A                      A                      A
 Frequencies --    202.6272               222.0417               251.3614
 Red. masses --      3.5992                 1.1190                 1.1599
 Frc consts  --      0.0871                 0.0325                 0.0432
 IR Inten    --      1.9619                 0.8031                 1.7867

                      7                      8                      9
                      A                      A                      A
 Frequencies --    277.9030               287.5708               327.6091
 Red. masses --      3.1314                 3.4199                 3.1143
 Frc consts  --      0.1425                 0.1666                 0.1969
 IR Inten    --      4.5673                 0.2382                11.8104

                     10                     11                     12
                      A                      A                      A
 Frequencies --    330.2392               341.4637               392.3427
 Red. masses --      1.0382                 3.8344                 2.3848
 Frc consts  --      0.0667                 0.2634                 0.2163
 IR Inten    --      0.0240                 0.3002                 0.2639

                     13                     14                     15
                      A                      A                      A
 Frequencies --    399.6384               426.2112               476.3838
 Red. masses --      2.9488                 5.5208                 6.8208
 Frc consts  --      0.2775                 0.5909                 0.9120
 IR Inten    --      3.4175                16.4946                 0.5409

                     16                     17                     18
                      A                      A                      A
 Frequencies --    491.0979               517.0197               592.3943
 Red. masses --      2.7912                 3.8435                 3.7288
 Frc consts  --      0.3966                 0.6053                 0.7710
 IR Inten    --      6.2887                 1.2572                 0.6075

                     19                     20                     21
                      A                      A                      A
 Frequencies --    639.9164               679.9936               761.9596
 Red. masses --      2.9127                 6.0790                 2.8285
 Frc consts  --      0.7027                 1.6561                 0.9675
 IR Inten    --      2.5350                 5.9646                 0.8095

                     22                     23                     24
                      A                      A                      A
 Frequencies --    809.1902               812.0180               825.8176
 Red. masses --      3.7099                 4.5135                 2.1849
 Frc consts  --      1.4312                 1.7534                 0.8779
 IR Inten    --     22.0192                64.2879                46.5358

                     25                     26                     27
                      A                      A                      A
 Frequencies --    893.8490               920.8072               927.2610
 Red. masses --      1.6116                 3.3843                 1.7555
 Frc consts  --      0.7587                 1.6906                 0.8893
 IR Inten    --     50.7980                13.7239                 2.7741

                     28                     29                     30
                      A                      A                      A
 Frequencies --    929.2157               955.7320               956.3319
 Red. masses --      1.7556                 1.2004                 1.2849
 Frc consts  --      0.8931                 0.6460                 0.6924
 IR Inten    --      1.8456                 0.1422                 0.7500

                     31                     32                     33
                      A                      A                      A
 Frequencies --   1028.4198              1043.5673              1060.9955
 Red. masses --      1.8427                 1.3821                 1.8346
 Frc consts  --      1.1483                 0.8868                 1.2168
 IR Inten    --     77.6089                 0.1090                47.3361

                     34                     35                     36
                      A                      A                      A
 Frequencies --   1115.9490              1210.8752              1213.4680
 Red. masses --      1.5196                 2.0878                 2.7378
 Frc consts  --      1.1150                 1.8036                 2.3752
 IR Inten    --     10.5498                 2.5197                 8.1318

                     37                     38                     39
                      A                      A                      A
 Frequencies --   1222.0579              1264.2719              1273.4167
 Red. masses --      2.9743                 2.7186                 1.5955
 Frc consts  --      2.6171                 2.5602                 1.5244
 IR Inten    --     19.5285                32.4401                 7.6928

                     40                     41                     42
                      A                      A                      A
 Frequencies --   1345.0655              1374.4111              1383.0717
 Red. masses --      2.2001                 1.2107                 1.2520
 Frc consts  --      2.3452                 1.3475                 1.4110
 IR Inten    --     69.1232                12.5515                13.8977

                     43                     44                     45
                      A                      A                      A
 Frequencies --   1409.3927              1430.7153              1463.6308
 Red. masses --      1.2456                 5.2899                 6.0950
 Frc consts  --      1.4578                 6.3797                 7.6929
 IR Inten    --     32.2194               255.9430                23.3766

                     46                     47                     48
                      A                      A                      A
 Frequencies --   1470.2658              1484.8191              1487.8297
 Red. masses --      1.0474                 1.2749                 1.0520
 Frc consts  --      1.3340                 1.6561                 1.3720
 IR Inten    --      0.0203               220.1728                 4.9729

                     49                     50                     51
                      A                      A                      A
 Frequencies --   1489.0279              1499.0767              1500.2371
 Red. masses --      1.1333                 2.2448                 1.0704
 Frc consts  --      1.4805                 2.9722                 1.4194
 IR Inten    --     67.7657               533.6004                26.6719

                     52                     53                     54
                      A                      A                      A
 Frequencies --   1512.0745              1516.9808              1637.6192
 Red. masses --      3.9604                 1.1913                 6.6119
 Frc consts  --      5.3350                 1.6153                10.4473
 IR Inten    --    262.4273                55.1927                40.8267

                     55                     56                     57
                      A                      A                      A
 Frequencies --   3010.0649              3012.7251              3021.1565
 Red. masses --      1.0382                 1.0372                 1.0367
 Frc consts  --      5.5422                 5.5468                 5.5752
 IR Inten    --     81.2078                48.7175                77.6135

                     58                     59                     60
                      A                      A                      A
 Frequencies --   3065.3759              3067.0597              3080.6667
 Red. masses --      1.1018                 1.1010                 1.1011
 Frc consts  --      6.0997                 6.1023                 6.1572
 IR Inten    --     33.2268                66.8173               109.5895

                     61                     62                     63
                      A                      A                      A
 Frequencies --   3083.8450              3120.8414              3125.8869
 Red. masses --      1.1021                 1.0981                 1.0970
 Frc consts  --      6.1751                 6.3016                 6.3153
 IR Inten    --     66.4148                 5.5048                27.8751

                     64                     65                     66
                      A                      A                      A
 Frequencies --   3140.7210              3160.5269              3178.4143
 Red. masses --      1.0857                 1.0954                 1.0880
 Frc consts  --      6.3096                 6.4467                 6.4761
 IR Inten    --     35.1692                43.2797                20.3622

 - Thermochemistry -
 -------------------
 Temperature   298.150 Kelvin.  Pressure   1.00000 Atm.
 Atom     1 has atomic number  6 and mass  12.00000

 Molecular mass:   164.08373 amu.
 Principal axes and moments of inertia in atomic units:
                           1         2         3
     Eigenvalues --  1233.129532422.330383254.10037
           X            0.96262   0.25635  -0.08748
           Y           -0.18068   0.84832   0.49770
           Z            0.20180  -0.46329   0.86293
 This molecule is an asymmetric top.
 Rotational symmetry number  1.
 Warning -- assumption of classical behavior for rotation
           may cause significant error
 Rotational temperatures (Kelvin)      0.07024     0.03576     0.02662
 Rotational constants (GHZ):           1.46355     0.74504     0.55461
 Zero-point vibrational energy     511177.9 (Joules/Mol)
                                  122.17446 (Kcal/Mol)
 Warning -- explicit consideration of  18 degrees of freedom as
           vibrations may cause significant error
 Vibrational temperatures:     85.82   136.24   223.61   291.54   319.47
          (Kelvin)            361.65   399.84   413.75   471.36   475.14
                              491.29   564.49   574.99   613.22   685.41
                              706.58   743.88   852.32   920.70   978.36
                             1096.29  1164.24  1168.31  1188.17  1286.05
                             1324.84  1334.12  1336.93  1375.09  1375.95
                             1479.67  1501.46  1526.54  1605.60  1742.18
                             1745.91  1758.27  1819.01  1832.16  1935.25
                             1977.47  1989.93  2027.80  2058.48  2105.84
                             2115.38  2136.32  2140.66  2142.38  2156.84
                             2158.51  2175.54  2182.60  2356.17  4330.81
                             4334.64  4346.77  4410.39  4412.81  4432.39
                             4436.97  4490.19  4497.45  4518.80  4547.29
                             4573.03

 Zero-point correction=                           0.194697 (Hartree/Particle)
 Thermal correction to Energy=                    0.206217
 Thermal correction to Enthalpy=                  0.207161
 Thermal correction to Gibbs Free Energy=         0.157424
 Sum of electronic and zero-point Energies=           -538.822350
 Sum of electronic and thermal Energies=              -538.810830
 Sum of electronic and thermal Enthalpies=            -538.809886
 Sum of electronic and thermal Free Energies=         -538.859623

                     E (Thermal)             CV                S
                      KCal/Mol        Cal/Mol-Kelvin    Cal/Mol-Kelvin
 Total                  129.403             45.271            104.679
 Electronic               0.000              0.000              1.377
 Translational            0.889              2.981             41.194
 Rotational               0.889              2.981             30.653
 Vibrational            127.626             39.309             31.455
 Vibration     1          0.597              1.974              4.469
 Vibration     2          0.603              1.953              3.561
 Vibration     3          0.620              1.897              2.605
 Vibration     4          0.639              1.836              2.109
 Vibration     5          0.648              1.808              1.942
 Vibration     6          0.663              1.760              1.721
 Vibration     7          0.679              1.714              1.547
 Vibration     8          0.685              1.697              1.488
 Vibration     9          0.711              1.620              1.272
 Vibration    10          0.713              1.615              1.259
 Vibration    11          0.721              1.593              1.205
 Vibration    12          0.760              1.487              0.991
 Vibration    13          0.766              1.471              0.964
 Vibration    14          0.788              1.413              0.871
 Vibration    15          0.833              1.302              0.720
 Vibration    16          0.847              1.270              0.681
 Vibration    17          0.872              1.212              0.617
 Vibration    18          0.950              1.048              0.463

 Optimization completed.
    -- Stationary point found.
 Normal termination of Gaussian 16 at Sat Feb 10 11:03:53 2024.
