 Q-Chem 5.4, Q-Chem, Inc., Pleasanton, CA (2021)
 Q-Chem 5.4.0 for Intel X86 EM64T Linux

User input:
--------------------------------------------------------------
$molecule
-1 2
C                  2.4859390000      3.0111910000      1.4327150000
C                  2.3867920000      1.5303070000      1.6844360000
O                  2.0713100000      1.0121770000      2.7222870000
O                  2.7570840000      0.8460700000      0.5661340000
C                  2.4490060000     -0.5168530000      0.4751430000
C                  3.4934430000     -1.3902470000      0.6816050000
C                  3.2981700000     -2.7728690000      0.5121950000
C                  2.0614730000     -3.2391120000      0.1256200000
C                  0.9866840000     -2.3546830000     -0.1033890000
C                 -0.2819820000     -2.9285670000     -0.5499720000
O                 -0.4335370000     -4.1667700000     -0.6830490000
C                 -1.3545200000     -1.9862020000     -0.8660590000
C                 -2.5585360000     -2.5119540000     -1.3796220000
C                 -3.6020790000     -1.6868830000     -1.7353440000
C                 -3.4652810000     -0.2951870000     -1.5838890000
C                 -2.3006270000      0.2305070000     -1.0705160000
O                 -2.2111440000      1.6277250000     -1.0490430000
C                 -2.3788690000      2.2787360000      0.1358830000
C                 -1.8989890000      3.6999890000      0.0095240000
O                 -2.8768810000      1.7880990000      1.1138150000
C                 -1.1967430000     -0.5768900000     -0.6840360000
C                  0.0406990000     -0.0095420000     -0.1301970000
O                  0.1390950000      1.2110440000      0.1574330000
C                  1.1529990000     -0.9466270000      0.0808710000
H                  1.6715670000      3.2801520000      0.7574120000
H                  2.3895350000      3.5524880000      2.3725430000
H                  3.4304350000      3.2570880000      0.9423050000
H                  4.4567040000     -0.9865790000      0.9711280000
H                  4.1208840000     -3.4595350000      0.6829690000
H                  1.8701870000     -4.2945630000     -0.0241280000
H                 -2.6188120000     -3.5879530000     -1.4872260000
H                 -4.5237830000     -2.0989730000     -2.1330600000
H                 -4.2602910000      0.3851330000     -1.8663260000
H                 -2.2132610000      4.2742300000      0.8796070000
H                 -0.8093930000      3.6701360000     -0.0491390000
H                 -2.2772780000      4.1549160000     -0.9086320000
$end
$rem
MAX_SCF_CYCLES=200
BASIS  =  6-311++G(d,p)
GUI  =  2
JOB_TYPE  =  SP
METHOD  =  B3LYP
SOLVENT_METHOD = PCM
$end
$pcm
theory = CPCM
$end
$solvent
dielectric 37.219
opticaldielectric 1.43
$end

--------------------------------------------------------------

             Standard Nuclear Orientation (Angstroms)
    I     Atom           X                Y                Z
 ----------------------------------------------------------------
    1      C       2.4859390000     3.0111910000     1.4327150000
    2      C       2.3867920000     1.5303070000     1.6844360000
    3      O       2.0713100000     1.0121770000     2.7222870000
    4      O       2.7570840000     0.8460700000     0.5661340000
    5      C       2.4490060000    -0.5168530000     0.4751430000
    6      C       3.4934430000    -1.3902470000     0.6816050000
    7      C       3.2981700000    -2.7728690000     0.5121950000
    8      C       2.0614730000    -3.2391120000     0.1256200000
    9      C       0.9866840000    -2.3546830000    -0.1033890000
   10      C      -0.2819820000    -2.9285670000    -0.5499720000
   11      O      -0.4335370000    -4.1667700000    -0.6830490000
   12      C      -1.3545200000    -1.9862020000    -0.8660590000
   13      C      -2.5585360000    -2.5119540000    -1.3796220000
   14      C      -3.6020790000    -1.6868830000    -1.7353440000
   15      C      -3.4652810000    -0.2951870000    -1.5838890000
   16      C      -2.3006270000     0.2305070000    -1.0705160000
   17      O      -2.2111440000     1.6277250000    -1.0490430000
   18      C      -2.3788690000     2.2787360000     0.1358830000
   19      C      -1.8989890000     3.6999890000     0.0095240000
   20      O      -2.8768810000     1.7880990000     1.1138150000
   21      C      -1.1967430000    -0.5768900000    -0.6840360000
   22      C       0.0406990000    -0.0095420000    -0.1301970000
   23      O       0.1390950000     1.2110440000     0.1574330000
   24      C       1.1529990000    -0.9466270000     0.0808710000
   25      H       1.6715670000     3.2801520000     0.7574120000
   26      H       2.3895350000     3.5524880000     2.3725430000
   27      H       3.4304350000     3.2570880000     0.9423050000
   28      H       4.4567040000    -0.9865790000     0.9711280000
   29      H       4.1208840000    -3.4595350000     0.6829690000
   30      H       1.8701870000    -4.2945630000    -0.0241280000
   31      H      -2.6188120000    -3.5879530000    -1.4872260000
   32      H      -4.5237830000    -2.0989730000    -2.1330600000
   33      H      -4.2602910000     0.3851330000    -1.8663260000
   34      H      -2.2132610000     4.2742300000     0.8796070000
   35      H      -0.8093930000     3.6701360000    -0.0491390000
   36      H      -2.2772780000     4.1549160000    -0.9086320000
 ----------------------------------------------------------------

    8   -1144.9888336325      7.68e-06  Convergence criterion met
 Total energy in the final basis set =    -1144.9888336325

                    Orbital Energies (a.u.)
 --------------------------------------------------------------

 Alpha MOs
 -- Occupied --
-19.1731 -19.1731 -19.1219 -19.1218 -19.0815 -19.0808 -10.3133 -10.3132
-10.2428 -10.2428 -10.2394 -10.2304 -10.1887 -10.1887 -10.1814 -10.1814
-10.1788 -10.1788 -10.1778 -10.1778 -10.1729 -10.1729 -10.1713 -10.1713
 -1.1183  -1.1178  -1.0387  -1.0380  -1.0108  -1.0086  -0.8712  -0.8606
 -0.7959  -0.7779  -0.7768  -0.7508  -0.7369  -0.7340  -0.6795  -0.6553
 -0.6426  -0.6283  -0.6147  -0.5575  -0.5570  -0.5254  -0.5246  -0.4977
 -0.4976  -0.4892  -0.4877  -0.4868  -0.4864  -0.4736  -0.4643  -0.4591
 -0.4487  -0.4321  -0.4277  -0.4198  -0.4143  -0.4105  -0.4081  -0.4017
 -0.3988  -0.3930  -0.3880  -0.3814  -0.3772  -0.3718  -0.3642  -0.3580
 -0.3529  -0.3448  -0.3275  -0.3227  -0.2933  -0.2931  -0.2757  -0.2593
 -0.2582  -0.2575  -0.2518  -0.2391  -0.1479

 Beta MOs
 -- Occupied --
-19.1730 -19.1730 -19.1219 -19.1218 -19.0762 -19.0757 -10.3132 -10.3132
-10.2428 -10.2428 -10.2377 -10.2285 -10.1880 -10.1879 -10.1806 -10.1806
-10.1783 -10.1783 -10.1773 -10.1773 -10.1728 -10.1728 -10.1713 -10.1713
 -1.1182  -1.1178  -1.0385  -1.0379  -1.0017  -0.9992  -0.8687  -0.8595
 -0.7920  -0.7765  -0.7761  -0.7489  -0.7353  -0.7333  -0.6727  -0.6538
 -0.6416  -0.6265  -0.6130  -0.5559  -0.5550  -0.5245  -0.5226  -0.4975
 -0.4970  -0.4880  -0.4873  -0.4858  -0.4857  -0.4721  -0.4637  -0.4580
 -0.4482  -0.4263  -0.4240  -0.4146  -0.4140  -0.4067  -0.4051  -0.4014
 -0.3970  -0.3916  -0.3813  -0.3797  -0.3702  -0.3636  -0.3627  -0.3563
 -0.3503  -0.3340  -0.3269  -0.3216  -0.2931  -0.2930  -0.2564  -0.2552
 -0.2522  -0.2483  -0.2471  -0.2345

          Ground-State Mulliken Net Atomic Charges

     Atom                 Charge (a.u.)    Spin (a.u.)
  --------------------------------------------------------
      1 C                    -0.464159       0.000817
      2 C                    -0.002626       0.000589
      3 O                    -0.284194      -0.000407
      4 O                     0.022273      -0.001639
      5 C                    -0.311875       0.035051
      6 C                     0.163587       0.044753
      7 C                    -0.483187       0.040580
      8 C                    -0.197531       0.029829
      9 C                     0.375447       0.029042
     10 C                    -0.679277       0.103294
     11 O                    -0.461179       0.196776
     12 C                     0.376621       0.028992
     13 C                    -0.192037       0.029906
     14 C                    -0.484137       0.040604
     15 C                     0.168940       0.044716
     16 C                    -0.311874       0.034887
     17 O                     0.023734      -0.001606
     18 C                    -0.005101       0.000596
     19 C                    -0.462883       0.000855
     20 O                    -0.283370      -0.000409
     21 C                     0.401565       0.040875
     22 C                    -0.310936       0.064830
     23 O                    -0.419677       0.213191
     24 C                     0.395890       0.040749
     25 H                     0.242903      -0.000038
     26 H                     0.172738      -0.000151
     27 H                     0.189516       0.000175
     28 H                     0.214636      -0.003649
     29 H                     0.215697      -0.003016
     30 H                     0.177080      -0.001757
     31 H                     0.177184      -0.001749
     32 H                     0.215584      -0.003021
     33 H                     0.215121      -0.003644
     34 H                     0.172690      -0.000154
     35 H                     0.243208      -0.000042
     36 H                     0.189627       0.000177
  --------------------------------------------------------
  Sum of atomic charges =    -1.000000

                    Cartesian Multipole Moments
 -----------------------------------------------------------------
    Charge (ESU x 10^10)
                -4.8032
    Dipole Moment (Debye)
         X       2.4036      Y       7.9997      Z      -3.5188
       Tot       9.0640
    Quadrupole Moments (Debye-Ang)
        XX    -137.4336     XY      -1.8291     YY    -162.8865
        XZ       6.4771     YZ      -7.9092     ZZ    -158.7688

 Total job time:  147.71s(wall), 783.17s(cpu)
        *  Thank you very much for using Q-Chem.  Have a nice day.  *
