 Gaussian 16, Revision A.03,
 Gaussian 16:  ES64L-G16RevA.03 25-Dec-2016

 ----------------------------------------------------------------
 #P UB3LYP/6-311++G(d,p) SCRF=(PCM,Solvent=n,n-DiMethylFormamide)
 ----------------------------------------------------------------

 -------
 Reduced
 -------
 Symbolic Z-matrix:
 Charge = -2 Multiplicity = 1

                         Standard orientation:
 ---------------------------------------------------------------------
 Center     Atomic      Atomic             Coordinates (Angstroms)
 Number     Number       Type             X           Y           Z
 ---------------------------------------------------------------------
      1          6           0       10.000546    0.679243    1.323180
      2          6           0       10.563712    1.893219    0.979660
      3          6           0        9.911524    2.738026    0.050763
      4          6           0        8.707136    2.339960   -0.509022
      5          6           0        8.107742    1.110852   -0.180683
      6          6           0        8.772119    0.252660    0.762607
      7          6           0        8.195105   -1.012806    1.125137
      8          6           0        6.947826   -1.341989    0.494927
      9          6           0        6.280331   -0.544888   -0.423305
     10          6           0        6.828967    0.734565   -0.803186
     11          8           0        8.697508   -1.863407    1.954380
     12          8           0        6.245191    1.496611   -1.634456
     13          6           0        4.979200   -0.984900   -1.043763
     14          6           0        3.730991   -0.438771   -0.321657
     15          6           0        2.417561   -0.865830   -0.987914
     16          6           0        1.157361   -0.344303   -0.285671
     17          6           0       -0.149520   -0.780285   -0.960374
     18          6           0       -1.418012   -0.269455   -0.265243
     19          6           0       -2.715284   -0.713874   -0.952155
     20          6           0       -3.991607   -0.212791   -0.263868
     21          6           0       -5.276771   -0.669375   -0.969872
     22          6           0       -6.547678   -0.174670   -0.280070
     23         16           0       -8.042206   -0.772046   -1.203301
     24          6           0       -9.385807   -0.087130   -0.232928
     25          6           0       -9.967437    1.138730   -0.585856
     26          6           0       -9.917892   -0.792360    0.855859
     27          6           0      -10.963189   -0.252474    1.602572
     28          6           0      -11.519351    0.992812    1.287529
     29          6           0      -11.014798    1.665834    0.161307
     30          6           0      -12.667132    1.568575    2.077678
     31          1           0       10.482592    0.015315    2.033181
     32          1           0       11.507909    2.200372    1.423308
     33          1           0       10.352547    3.693649   -0.220614
     34          1           0        8.182662    2.966656   -1.222860
     35          8           0        6.454763   -2.561752    0.885803
     36          1           0        4.929858   -2.079483   -1.058276
     37          1           0        4.957852   -0.623549   -2.078148
     38          1           0        3.796921    0.654268   -0.301350
     39          1           0        3.742068   -0.781808    0.720176
     40          1           0        2.374263   -1.963378   -1.031602
     41          1           0        2.416458   -0.519912   -2.030561
     42          1           0        1.195641    0.752127   -0.244257
     43          1           0        1.157280   -0.687098    0.757664
     44          1           0       -0.182197   -1.877269   -1.005607
     45          1           0       -0.147816   -0.435593   -2.003140
     46          1           0       -1.389264    0.827170   -0.220238
     47          1           0       -1.423470   -0.614970    0.776973
     48          1           0       -2.739962   -1.810557   -0.999852
     49          1           0       -2.708487   -0.366321   -1.993621
     50          1           0       -3.972236    0.883453   -0.216748
     51          1           0       -4.004052   -0.562501    0.776319
     52          1           0       -5.294518   -1.764633   -1.017902
     53          1           0       -5.266243   -0.313654   -2.006992
     54          1           0       -6.579084    0.916971   -0.252210
     55          1           0       -6.607806   -0.548739    0.744563
     56          1           0       -9.590626    1.677211   -1.448781
     57          1           0       -9.507383   -1.761404    1.117745
     58          1           0      -11.357034   -0.811825    2.446563
     59          1           0      -11.451817    2.616962   -0.130702
     60          1           0      -12.990118    0.892939    2.874785
     61          1           0      -13.538263    1.758661    1.432037
     62          1           0      -12.403770    2.523965    2.538961
     63          1           0        7.159834   -2.847357    1.514284
 ---------------------------------------------------------------------

 SCF Done:  E(UB3LYP) =  -1672.65845124     A.U. after   17 cycles

 The electronic state is 1-A.
 Alpha  occ. eigenvalues --  -88.84376 -19.10865 -19.02110 -19.01334 -10.20732
 Alpha  occ. eigenvalues --  -10.19746 -10.19310 -10.18435 -10.18412 -10.17946
 Alpha  occ. eigenvalues --  -10.17938 -10.17113 -10.17075 -10.16903 -10.16772
 Alpha  occ. eigenvalues --  -10.16424 -10.15993 -10.15765 -10.15636 -10.15593
 Alpha  occ. eigenvalues --  -10.15384 -10.15040 -10.14461 -10.14413 -10.14103
 Alpha  occ. eigenvalues --  -10.14062 -10.13975 -10.13800 -10.12996 -10.12625
 Alpha  occ. eigenvalues --  -10.11808  -7.92987  -5.89386  -5.89025  -5.88350
 Alpha  occ. eigenvalues --   -1.02364  -0.93892  -0.93099  -0.87202  -0.82048
 Alpha  occ. eigenvalues --   -0.81910  -0.80408  -0.79149  -0.77666  -0.76098
 Alpha  occ. eigenvalues --   -0.75557  -0.74260  -0.72269  -0.71746  -0.70270
 Alpha  occ. eigenvalues --   -0.68174  -0.65905  -0.63475  -0.61847  -0.61651
 Alpha  occ. eigenvalues --   -0.59894  -0.58351  -0.57907  -0.57708  -0.57105
 Alpha  occ. eigenvalues --   -0.56517  -0.54968  -0.53091  -0.49911  -0.49907
 Alpha  occ. eigenvalues --   -0.48624  -0.47605  -0.46999  -0.46654  -0.45871
 Alpha  occ. eigenvalues --   -0.45090  -0.44042  -0.43100  -0.42825  -0.42623
 Alpha  occ. eigenvalues --   -0.42600  -0.42254  -0.42033  -0.41342  -0.40467
 Alpha  occ. eigenvalues --   -0.39973  -0.39718  -0.39089  -0.38735  -0.38494
 Alpha  occ. eigenvalues --   -0.38065  -0.37478  -0.36764  -0.36294  -0.35950
 Alpha  occ. eigenvalues --   -0.35709  -0.35125  -0.34815  -0.34670  -0.34326
 Alpha  occ. eigenvalues --   -0.33943  -0.33662  -0.33189  -0.32582  -0.32244
 Alpha  occ. eigenvalues --   -0.32077  -0.31763  -0.31694  -0.31448  -0.30795
 Alpha  occ. eigenvalues --   -0.30623  -0.29996  -0.29465  -0.28935  -0.26545
 Alpha  occ. eigenvalues --   -0.25024  -0.23520  -0.22586  -0.22039  -0.20954
 Alpha  occ. eigenvalues --   -0.19136  -0.18769  -0.09999
 Alpha virt. eigenvalues --   -0.03226  -0.02222  -0.00494  -0.00206  -0.00052
 Alpha virt. eigenvalues --    0.00180   0.00772   0.00901   0.00987   0.01246
 Alpha virt. eigenvalues --    0.01411   0.01668   0.01913   0.02138   0.02488

  Beta  occ. eigenvalues --  -88.84376 -19.10865 -19.02110 -19.01334 -10.20732
  Beta  occ. eigenvalues --  -10.19746 -10.19310 -10.18435 -10.18412 -10.17946
  Beta  occ. eigenvalues --  -10.17938 -10.17113 -10.17075 -10.16903 -10.16772
  Beta  occ. eigenvalues --  -10.16424 -10.15993 -10.15765 -10.15636 -10.15593
  Beta  occ. eigenvalues --  -10.15384 -10.15040 -10.14461 -10.14413 -10.14103
  Beta  occ. eigenvalues --  -10.14062 -10.13975 -10.13800 -10.12996 -10.12625
  Beta  occ. eigenvalues --  -10.11808  -7.92987  -5.89386  -5.89025  -5.88350
  Beta  occ. eigenvalues --   -1.02364  -0.93892  -0.93099  -0.87202  -0.82048
  Beta  occ. eigenvalues --   -0.81910  -0.80408  -0.79149  -0.77666  -0.76098
  Beta  occ. eigenvalues --   -0.75557  -0.74260  -0.72269  -0.71746  -0.70270
  Beta  occ. eigenvalues --   -0.68174  -0.65905  -0.63475  -0.61847  -0.61651
  Beta  occ. eigenvalues --   -0.59894  -0.58351  -0.57907  -0.57708  -0.57105
  Beta  occ. eigenvalues --   -0.56517  -0.54968  -0.53091  -0.49911  -0.49907
  Beta  occ. eigenvalues --   -0.48624  -0.47605  -0.46999  -0.46654  -0.45871
  Beta  occ. eigenvalues --   -0.45090  -0.44042  -0.43100  -0.42825  -0.42623
  Beta  occ. eigenvalues --   -0.42600  -0.42254  -0.42033  -0.41342  -0.40467
  Beta  occ. eigenvalues --   -0.39973  -0.39718  -0.39089  -0.38735  -0.38494
  Beta  occ. eigenvalues --   -0.38065  -0.37478  -0.36764  -0.36294  -0.35950
  Beta  occ. eigenvalues --   -0.35709  -0.35125  -0.34815  -0.34670  -0.34326
  Beta  occ. eigenvalues --   -0.33943  -0.33662  -0.33189  -0.32582  -0.32244
  Beta  occ. eigenvalues --   -0.32077  -0.31763  -0.31694  -0.31448  -0.30795
  Beta  occ. eigenvalues --   -0.30623  -0.29996  -0.29465  -0.28935  -0.26545
  Beta  occ. eigenvalues --   -0.25024  -0.23520  -0.22586  -0.22039  -0.20954
  Beta  occ. eigenvalues --   -0.19136  -0.18769  -0.09999
  Beta virt. eigenvalues --   -0.03226  -0.02222  -0.00494  -0.00206  -0.00052
  Beta virt. eigenvalues --    0.00180   0.00772   0.00901   0.00987   0.01246
  Beta virt. eigenvalues --    0.01411   0.01668   0.01913   0.02138   0.02488

 Mulliken charges and spin densities:
               1          2
     1  C   -0.044929   0.000000
     2  C   -0.406685   0.000000
     3  C   -0.477314   0.000000
     4  C    0.031939   0.000000
     5  C    0.062111  -0.000000
     6  C    0.304746  -0.000000
     7  C   -0.914736   0.000000
     8  C   -0.631516   0.000000
     9  C    1.835647  -0.000000
    10  C   -0.806524  -0.000000
    11  O   -0.726316   0.000000
    12  O   -0.634615   0.000000
    13  C   -0.256485   0.000000
    14  C   -0.643314   0.000000
    15  C   -0.123024  -0.000000
    16  C   -0.203682   0.000000
    17  C   -0.267319   0.000000
    18  C   -0.376180  -0.000000
    19  C   -0.197673   0.000000
    20  C   -0.352914  -0.000000
    21  C   -0.027932  -0.000000
    22  C   -0.897384   0.000000
    23  S   -0.178332   0.000000
    24  C    1.282525  -0.000000
    25  C   -0.529303   0.000000
    26  C   -0.392224  -0.000000
    27  C   -0.763618   0.000000
    28  C    0.450194   0.000000
    29  C   -0.112837  -0.000000
    30  C   -0.700600  -0.000000
    31  H    0.140622  -0.000000
    32  H    0.151984   0.000000
    33  H    0.146944   0.000000
    34  H    0.138064  -0.000000
    35  O   -0.336830   0.000000
    36  H    0.199291  -0.000000
    37  H    0.170577  -0.000000
    38  H    0.176255  -0.000000
    39  H    0.151521  -0.000000
    40  H    0.100421   0.000000
    41  H    0.107305   0.000000
    42  H    0.123326   0.000000
    43  H    0.123166   0.000000
    44  H    0.130532  -0.000000
    45  H    0.131579  -0.000000
    46  H    0.132374   0.000000
    47  H    0.132207   0.000000
    48  H    0.128842  -0.000000
    49  H    0.129395   0.000000
    50  H    0.134014  -0.000000
    51  H    0.134879  -0.000000
    52  H    0.131283  -0.000000
    53  H    0.129666  -0.000000
    54  H    0.215872  -0.000000
    55  H    0.208415  -0.000000
    56  H    0.203101   0.000000
    57  H    0.208939  -0.000000
    58  H    0.175030   0.000000
    59  H    0.207166   0.000000
    60  H    0.165930   0.000000
    61  H    0.162215   0.000000
    62  H    0.167747   0.000000
    63  H    0.276468   0.000000
 Sum of Mulliken charges =  -2.00000   0.00000

 Dipole moment (field-independent basis, Debye):
    X=            -72.7406    Y=              2.1771    Z=              0.6754  Tot=             72.7763
 Quadrupole moment (field-independent basis, Debye-Ang):
   XX=           -770.6931   YY=           -232.2003   ZZ=           -230.2613
   XY=             -9.5065   XZ=            -51.7303   YZ=             14.3151

 Normal termination of Gaussian 16 at Thu Jan 25 06:05:02 2024.
