 Gaussian 16, Revision A.03,
 Gaussian 16:  ES64L-G16RevA.03 25-Dec-2016

 ----------------------------------------------------------------
 #P UB3LYP/6-311++G(d,p) SCRF=(PCM,Solvent=n,n-DiMethylFormamide)
 ----------------------------------------------------------------

 ------------------
 Quinone PCM in DMF
 ------------------
 Symbolic Z-matrix:
 Charge =  0 Multiplicity = 1

                         Standard orientation:
 ---------------------------------------------------------------------
 Center     Atomic      Atomic             Coordinates (Angstroms)
 Number     Number       Type             X           Y           Z
 ---------------------------------------------------------------------
      1          6           0       -4.230920   -1.836344    0.000509
      2          7           0       -2.820517   -1.510310   -0.000776
      3          6           0       -2.319529   -0.250069   -0.000263
      4          6           0       -3.189760    0.869842   -0.000083
      5          6           0       -2.694991    2.158977    0.000216
      6          6           0       -1.319166    2.401844    0.000272
      7          6           0       -0.436907    1.330643    0.000088
      8          6           0        1.025986    1.648616    0.000057
      9          8           0        1.423208    2.803344   -0.000329
     10          6           0        1.979761    0.508084    0.000054
     11          6           0        3.355406    0.760870   -0.000001
     12          6           0        4.257882   -0.295177    0.000050
     13          6           0        3.791044   -1.613030    0.000147
     14          6           0        2.425533   -1.871352    0.000173
     15          6           0        1.509521   -0.813930    0.000090
     16          6           0        0.048656   -1.123100   -0.000111
     17          8           0       -0.309793   -2.308252   -0.000108
     18          6           0       -0.903929   -0.009368   -0.000147
     19          1           0       -4.743454   -1.449885   -0.888202
     20          1           0       -4.742200   -1.448043    0.889119
     21          1           0       -4.329890   -2.921476    0.001655
     22          1           0       -2.125492   -2.249846   -0.000644
     23          1           0       -4.259615    0.709756   -0.000368
     24          1           0       -3.388730    2.992648    0.000325
     25          1           0       -0.920171    3.407172    0.000423
     26          1           0        3.690456    1.790708   -0.000091
     27          1           0        5.323757   -0.097083   -0.000001
     28          1           0        4.495777   -2.437000    0.000195
     29          1           0        2.044344   -2.884559    0.000214
 ---------------------------------------------------------------------

 SCF Done:  E(UB3LYP) =  -783.663203095     A.U. after   14 cycles

 The electronic state is 1-A.
 Alpha  occ. eigenvalues --  -19.12750 -19.12503 -14.34040 -10.27974 -10.27733
 Alpha  occ. eigenvalues --  -10.24504 -10.20642 -10.20598 -10.20571 -10.20468
 Alpha  occ. eigenvalues --  -10.20148 -10.19731 -10.19683 -10.19654 -10.19598
 Alpha  occ. eigenvalues --  -10.19481 -10.19047 -10.18538  -1.06294  -1.05802
 Alpha  occ. eigenvalues --   -0.95714  -0.88920  -0.87004  -0.80942  -0.77688
 Alpha  occ. eigenvalues --   -0.77097  -0.76792  -0.70485  -0.68680  -0.65931
 Alpha  occ. eigenvalues --   -0.64544  -0.60882  -0.59037  -0.55985  -0.55278
 Alpha  occ. eigenvalues --   -0.52680  -0.50328  -0.49541  -0.48516  -0.47259
 Alpha  occ. eigenvalues --   -0.46452  -0.46120  -0.45533  -0.44976  -0.44576
 Alpha  occ. eigenvalues --   -0.43988  -0.42881  -0.41581  -0.40456  -0.39236
 Alpha  occ. eigenvalues --   -0.38760  -0.38725  -0.37308  -0.36898  -0.36598
 Alpha  occ. eigenvalues --   -0.32038  -0.28837  -0.28498  -0.27715  -0.27480
 Alpha  occ. eigenvalues --   -0.27213  -0.22127
 Alpha virt. eigenvalues --   -0.11576  -0.06571  -0.03490  -0.01475  -0.00785
 Alpha virt. eigenvalues --   -0.00029   0.00631   0.01557   0.01794   0.03063
 Alpha virt. eigenvalues --    0.03115   0.03650   0.03662   0.03975   0.04234

  Beta  occ. eigenvalues --  -19.12750 -19.12503 -14.34040 -10.27974 -10.27733
  Beta  occ. eigenvalues --  -10.24504 -10.20642 -10.20598 -10.20571 -10.20468
  Beta  occ. eigenvalues --  -10.20148 -10.19731 -10.19683 -10.19654 -10.19598
  Beta  occ. eigenvalues --  -10.19481 -10.19047 -10.18538  -1.06294  -1.05802
  Beta  occ. eigenvalues --   -0.95714  -0.88920  -0.87004  -0.80942  -0.77688
  Beta  occ. eigenvalues --   -0.77097  -0.76792  -0.70485  -0.68680  -0.65931
  Beta  occ. eigenvalues --   -0.64544  -0.60882  -0.59037  -0.55985  -0.55278
  Beta  occ. eigenvalues --   -0.52680  -0.50328  -0.49541  -0.48516  -0.47259
  Beta  occ. eigenvalues --   -0.46452  -0.46120  -0.45533  -0.44976  -0.44576
  Beta  occ. eigenvalues --   -0.43988  -0.42881  -0.41581  -0.40456  -0.39236
  Beta  occ. eigenvalues --   -0.38760  -0.38725  -0.37308  -0.36898  -0.36598
  Beta  occ. eigenvalues --   -0.32038  -0.28837  -0.28498  -0.27715  -0.27480
  Beta  occ. eigenvalues --   -0.27213  -0.22127
  Beta virt. eigenvalues --   -0.11576  -0.06571  -0.03490  -0.01475  -0.00785
  Beta virt. eigenvalues --   -0.00029   0.00631   0.01557   0.01794   0.03063
  Beta virt. eigenvalues --    0.03115   0.03650   0.03662   0.03975   0.04234

 Mulliken charges and spin densities:
               1          2
     1  C   -0.358943  -0.000000
     2  N   -0.269758   0.000000
     3  C    0.111921  -0.000000
     4  C    0.042250   0.000000
     5  C   -0.446674   0.000000
     6  C    0.057851   0.000000
     7  C    0.586156   0.000000
     8  C   -0.598463   0.000000
     9  O   -0.279704  -0.000000
    10  C    0.045722   0.000000
    11  C    0.112624  -0.000000
    12  C   -0.434055  -0.000000
    13  C   -0.445970  -0.000000
    14  C    0.160847   0.000000
    15  C   -0.004926  -0.000000
    16  C   -0.278040   0.000000
    17  O   -0.315242  -0.000000
    18  C    0.046885  -0.000000
    19  H    0.171525   0.000000
    20  H    0.171381   0.000000
    21  H    0.171747  -0.000000
    22  H    0.399781  -0.000000
    23  H    0.193480   0.000000
    24  H    0.215275  -0.000000
    25  H    0.172031   0.000000
    26  H    0.179176  -0.000000
    27  H    0.203881   0.000000
    28  H    0.206363  -0.000000
    29  H    0.182878  -0.000000
 Sum of Mulliken charges =  -0.00000   0.00000

 Dipole moment (field-independent basis, Debye):
    X=             -2.7414    Y=             -2.2829    Z=              0.0023  Tot=              3.5674
 Quadrupole moment (field-independent basis, Debye-Ang):
   XX=            -69.7325   YY=           -110.1692   ZZ=           -108.1259
   XY=             -6.1438   XZ=             -0.0038   YZ=             -0.0003

 Normal termination of Gaussian 16 at Sun Jan 14 01:10:11 2024.
