 Q-Chem 5.4, Q-Chem, Inc., Pleasanton, CA (2021)
 Q-Chem 5.4.0 for Intel X86 EM64T Linux

User input:
--------------------------------------------------------------
$molecule
-2 1
O                  4.5735790000     -1.4211710000     -0.9022830000
C                  3.3964360000     -0.6844980000     -0.6142140000
C                  3.5007080000      0.6733540000     -0.2546130000
C                  2.3608970000      1.4040410000      0.1038930000
O                  2.4298060000      2.6581320000      0.4435500000
C                  1.0640590000      0.6986930000      0.0545380000
C                 -0.1122090000      1.4101300000      0.3961580000
O                 -0.0159380000      2.7158190000      0.7494680000
C                 -1.3864000000      0.7829350000      0.3729690000
C                 -2.6118350000      1.4397600000      0.7349750000
O                 -2.6024840000      2.7719080000      1.1750610000
C                 -3.8079860000      0.7681540000      0.6647810000
C                 -3.9014960000     -0.5756560000      0.2365260000
C                 -2.7625040000     -1.3021630000     -0.1245250000
O                 -2.8299840000     -2.5468520000     -0.5124240000
C                 -1.4661320000     -0.6023670000     -0.0478270000
C                 -0.2876450000     -1.3082540000     -0.4070610000
O                 -0.3900150000     -2.5941550000     -0.8233990000
C                  0.9863830000     -0.6927850000     -0.3461600000
C                  2.2154820000     -1.3780400000     -0.6528290000
O                  2.2602030000     -2.7444730000     -0.9227630000
H                  5.2508760000     -1.0945550000     -0.2981560000
H                  4.4547600000      1.1900010000     -0.3138530000
H                  0.9847080000      2.9174120000      0.6885060000
H                 -3.5287830000      3.0279870000      1.2195830000
H                 -4.7187590000      1.2960920000      0.9581740000
H                 -4.8634730000     -1.0774220000      0.1885640000
H                 -1.3955330000     -2.7947040000     -0.7662010000
H                  3.2032760000     -2.9373230000     -1.0004370000
$end
$rem
MAX_SCF_CYCLES=200
BASIS  =  6-311++G(d,p)
GUI  =  2
JOB_TYPE  =  SP
METHOD  =  B3LYP
SOLVENT_METHOD = COSMO
$end
$solvent
dielectric 37.219
opticaldielectric 1.43
$end

--------------------------------------------------------------

             Standard Nuclear Orientation (Angstroms)
    I     Atom           X                Y                Z
 ----------------------------------------------------------------
    1      O       4.7409555210    -0.7159839545     0.0179333841
    2      C       3.4380320550    -0.1581573186    -0.0326273327
    3      C       3.2853408716     1.2418576697    -0.0569382009
    4      C       2.0093843853     1.8189555171    -0.0347508332
    5      O       1.8404592190     3.1089158755    -0.0528098002
    6      C       0.8532754438     0.8997872835    -0.0179463954
    7      C      -0.4529740315     1.4476068523    -0.0102479739
    8      O      -0.6048194751     2.7950441192    -0.0268491606
    9      C      -1.6024047023     0.6134698571     0.0120815677
   10      C      -2.9516452603     1.1057226684     0.0494372934
   11      O      -3.2052483668     2.4846956884     0.0994402625
   12      C      -4.0112239010     0.2316246827     0.0472356209
   13      C      -3.8399323425    -1.1707624161     0.0031742048
   14      C      -2.5650201099    -1.7446986156    -0.0226919810
   15      O      -2.3889528976    -3.0378888707    -0.0531746370
   16      C      -1.4125898024    -0.8238484595    -0.0118862704
   17      C      -0.1023871430    -1.3705279916    -0.0377244854
   18      O       0.0498870000    -2.7165214699    -0.0874484314
   19      C       1.0430425001    -0.5378440483    -0.0207907999
   20      C       2.3918936272    -1.0421649724     0.0029933335
   21      O       2.6782728986    -2.4000007203     0.1305569272
   22      H       5.2653576634    -0.1267533570     0.5730805410
   23      H       4.1503379174     1.8913380722    -0.1599141028
   24      H       0.3527284859     3.1536593056    -0.0389144296
   25      H      -4.1555599092     2.5697179086    -0.0241222503
   26      H      -5.0235141734     0.6414780108     0.0871617487
   27      H      -4.6990207588    -1.8351549022    -0.0011775993
   28      H      -0.9120226241    -3.0760055809    -0.0797666406
   29      H       3.6405126667    -2.4304890511     0.2065578910
 ----------------------------------------------------------------

   11   -1065.2016725357      6.52e-06  Convergence criterion met
 Total energy in the final basis set =    -1065.2016725357
    5   -1065.4744511238      9.41e-06  Convergence criterion met
 Total energy in the final basis set =    -1065.4744511238

                    Orbital Energies (a.u.)
 --------------------------------------------------------------

 Alpha MOs
 -- Occupied --
-19.1456 -19.1310 -19.1306 -19.1038 -19.1009 -19.0611 -19.0571 -10.2139
-10.2114 -10.2111 -10.2109 -10.2082 -10.2052 -10.2039 -10.1702 -10.1677
-10.1632 -10.1630 -10.1518 -10.1386 -10.1355  -1.0552  -1.0383  -1.0297
 -1.0273  -1.0224  -0.9717  -0.9664  -0.8426  -0.8133  -0.7698  -0.7323
 -0.7193  -0.7016  -0.6637  -0.6287  -0.6195  -0.5789  -0.5642  -0.5474
 -0.5371  -0.5257  -0.5137  -0.4874  -0.4696  -0.4587  -0.4479  -0.4391
 -0.4274  -0.4205  -0.4182  -0.4109  -0.4052  -0.3949  -0.3863  -0.3847
 -0.3811  -0.3682  -0.3640  -0.3620  -0.3520  -0.3482  -0.3420  -0.3350
 -0.3287  -0.3228  -0.2937  -0.2742  -0.2500  -0.2385  -0.2275  -0.2259
 -0.2084  -0.1760  -0.1303

          Ground-State Mulliken Net Atomic Charges

     Atom                 Charge (a.u.)
  ----------------------------------------
      1 O                    -0.397561
      2 C                    -0.469848
      3 C                     0.240672
      4 C                    -0.585609
      5 O                    -0.674576
      6 C                     0.529704
      7 C                    -0.114284
      8 O                    -0.544234
      9 C                     0.233252
     10 C                    -0.272661
     11 O                    -0.366958
     12 C                    -0.116123
     13 C                    -0.262731
     14 C                    -0.466312
     15 O                    -0.691450
     16 C                     0.537043
     17 C                    -0.145804
     18 O                    -0.556494
     19 C                     0.523520
     20 C                    -0.470589
     21 O                    -0.382786
     22 H                     0.314363
     23 H                     0.191117
     24 H                     0.487113
     25 H                     0.308318
     26 H                     0.170296
     27 H                     0.172930
     28 H                     0.488863
     29 H                     0.320831
  ----------------------------------------
  Sum of atomic charges =    -2.000000

                    Cartesian Multipole Moments
 -----------------------------------------------------------------
    Charge (ESU x 10^10)
                -9.6064
    Dipole Moment (Debye)
         X       2.4151      Y       1.9338      Z       1.2546
       Tot       3.3386
    Quadrupole Moments (Debye-Ang)
        XX    -145.9771     XY     -24.2209     YY    -204.9277
        XZ       7.4381     YZ      -1.3352     ZZ    -130.4368

 Total job time:  84.58s(wall), 624.12s(cpu)
        *  Thank you very much for using Q-Chem.  Have a nice day.  *
