 Gaussian 16, Revision A.03,
 Gaussian 16:  ES64L-G16RevA.03 25-Dec-2016

 --------------------------------------
 #P UB3LYP/6-311++G(d,p) nosym opt freq
 --------------------------------------

 -------
 Reduced
 -------
 Symbolic Z-matrix:
 Charge = -2 Multiplicity = 1

 SCF Done:  E(UB3LYP) =  -1485.37982451     A.U. after   22 cycles
 SCF Done:  E(UB3LYP) =  -1485.40701190     A.U. after   17 cycles
 SCF Done:  E(UB3LYP) =  -1485.40953320     A.U. after   15 cycles
 SCF Done:  E(UB3LYP) =  -1485.40967911     A.U. after   15 cycles
 SCF Done:  E(UB3LYP) =  -1485.40974759     A.U. after   13 cycles
 SCF Done:  E(UB3LYP) =  -1485.40974538     A.U. after   13 cycles
 SCF Done:  E(UB3LYP) =  -1485.40974979     A.U. after   13 cycles
 SCF Done:  E(UB3LYP) =  -1485.40975681     A.U. after   12 cycles
 Optimization completed.
    -- Stationary point found.
 Normal termination of Gaussian 16 at Sun Dec 17 21:07:17 2023.

 ----------------------------------------------------------------------
 #P Geom=AllCheck Guess=TCheck SCRF=Check GenChk UB3LYP/6-311++G(d,p) F
 req
 ----------------------------------------------------------------------

 Structure from the checkpoint file:  "002-an.chk"
 -------
 Reduced
 -------
 Charge = -2 Multiplicity = 1

                          Input orientation:
 ---------------------------------------------------------------------
 Center     Atomic      Atomic             Coordinates (Angstroms)
 Number     Number       Type             X           Y           Z
 ---------------------------------------------------------------------
      1          6           0        0.077899    1.757184    0.000187
      2          6           0       -1.124386    0.921117   -0.000707
      3          6           0       -1.112489   -0.454900    0.000220
      4          6           0        0.104073   -1.270049    0.001879
      5          6           0        1.295599   -0.470343    0.002802
      6          6           0        1.283075    0.978204    0.001877
      7          8           0        0.023199    3.019924   -0.001423
      8          8           0        0.071214   -2.533545    0.003473
      9          6           0        2.500628    1.699706    0.002758
     10          6           0        2.525435   -1.170694    0.004587
     11          7           0        3.504883    2.290219    0.003435
     12          7           0        3.539737   -1.743779    0.006121
     13         17           0       -2.657282    1.815468   -0.002950
     14         17           0       -2.629694   -1.375622   -0.000770
 ---------------------------------------------------------------------

 SCF Done:  E(UB3LYP) =  -1485.40975681     A.U. after    2 cycles

 Alpha  occ. eigenvalues -- -101.32057-101.32057 -18.80274 -18.80273 -14.05111
 Alpha  occ. eigenvalues --  -14.05110  -9.99245  -9.99184  -9.98090  -9.98089
 Alpha  occ. eigenvalues --   -9.95651  -9.95649  -9.93992  -9.93956  -9.23504
 Alpha  occ. eigenvalues --   -9.23502  -6.99930  -6.99930  -6.99046  -6.99046
 Alpha  occ. eigenvalues --   -6.98939  -6.98939  -0.73565  -0.73064  -0.65309
 Alpha  occ. eigenvalues --   -0.64942  -0.64696  -0.60739  -0.57289  -0.49920
 Alpha  occ. eigenvalues --   -0.46438  -0.38697  -0.35701  -0.26047  -0.25627
 Alpha  occ. eigenvalues --   -0.25515  -0.20895  -0.18184  -0.16594  -0.14537
 Alpha  occ. eigenvalues --   -0.14247  -0.13465  -0.12796  -0.12057  -0.11872
 Alpha  occ. eigenvalues --   -0.10288  -0.09099  -0.08633  -0.08061  -0.07956
 Alpha  occ. eigenvalues --   -0.07913  -0.06792  -0.01197   0.00220   0.01683
 Alpha  occ. eigenvalues --    0.01862   0.08946
 Alpha virt. eigenvalues --    0.19014   0.19030   0.21390   0.22492   0.23681
 Alpha virt. eigenvalues --    0.24022   0.25654   0.25678   0.26363   0.26406
 Alpha virt. eigenvalues --    0.26526   0.27171   0.27521   0.27545   0.28587

  Beta  occ. eigenvalues -- -101.32057-101.32057 -18.80274 -18.80273 -14.05111
  Beta  occ. eigenvalues --  -14.05110  -9.99245  -9.99184  -9.98090  -9.98089
  Beta  occ. eigenvalues --   -9.95651  -9.95649  -9.93992  -9.93956  -9.23504
  Beta  occ. eigenvalues --   -9.23502  -6.99930  -6.99930  -6.99046  -6.99046
  Beta  occ. eigenvalues --   -6.98939  -6.98939  -0.73565  -0.73064  -0.65309
  Beta  occ. eigenvalues --   -0.64942  -0.64696  -0.60739  -0.57289  -0.49920
  Beta  occ. eigenvalues --   -0.46438  -0.38697  -0.35701  -0.26047  -0.25627
  Beta  occ. eigenvalues --   -0.25515  -0.20895  -0.18184  -0.16594  -0.14537
  Beta  occ. eigenvalues --   -0.14247  -0.13465  -0.12796  -0.12057  -0.11872
  Beta  occ. eigenvalues --   -0.10288  -0.09099  -0.08633  -0.08061  -0.07956
  Beta  occ. eigenvalues --   -0.07913  -0.06792  -0.01197   0.00220   0.01683
  Beta  occ. eigenvalues --    0.01862   0.08946
  Beta virt. eigenvalues --    0.19014   0.19030   0.21390   0.22492   0.23681
  Beta virt. eigenvalues --    0.24022   0.25654   0.25678   0.26363   0.26406
  Beta virt. eigenvalues --    0.26526   0.27171   0.27521   0.27545   0.28587

 Mulliken charges and spin densities:
               1          2
     1  C   -1.861269  -0.000000
     2  C    0.873053   0.000000
     3  C    0.873123  -0.000000
     4  C   -1.861255  -0.000000
     5  C    1.883656   0.000000
     6  C    1.883619   0.000000
     7  O   -0.431696   0.000000
     8  O   -0.431695  -0.000000
     9  C   -1.450600   0.000000
    10  C   -1.450569  -0.000000
    11  N   -0.333170  -0.000000
    12  N   -0.333170   0.000000
    13  Cl   0.319987   0.000000
    14  Cl   0.319986  -0.000000
 Sum of Mulliken charges =  -2.00000   0.00000

 Dipole moment (field-independent basis, Debye):
    X=             -8.6690    Y=             -2.4072    Z=             -0.0188  Tot=              8.9970
 Quadrupole moment (field-independent basis, Debye-Ang):
   XX=           -166.9843   YY=           -165.0290   ZZ=            -98.0889
   XY=             -2.1266   XZ=             -0.0833   YZ=              0.0478

  Exact polarizability: 255.413   0.600 185.930   0.188  -0.074  81.168
 Approx polarizability: 431.126   1.097 304.215   0.335  -0.136 121.794

                      1                      2                      3
                      A                      A                      A
 Frequencies --     57.2115                67.2601                94.0016
 Red. masses --     16.7393                16.2707                19.6567
 Frc consts  --      0.0323                 0.0434                 0.1023
 IR Inten    --      0.0000                 0.4311                 0.0000

                      4                      5                      6
                      A                      A                      A
 Frequencies --    136.6329               156.3796               162.8489
 Red. masses --     13.9698                15.6284                13.4852
 Frc consts  --      0.1537                 0.2252                 0.2107
 IR Inten    --      0.0936                 1.1409                18.7047

                      7                      8                      9
                      A                      A                      A
 Frequencies --    211.9137               261.7626               272.2935
 Red. masses --     32.0320                18.9474                12.6179
 Frc consts  --      0.8475                 0.7649                 0.5512
 IR Inten    --      0.9446                 4.6714                 0.7770

                     10                     11                     12
                      A                      A                      A
 Frequencies --    320.3431               333.3439               335.1841
 Red. masses --     18.1471                20.6575                12.5487
 Frc consts  --      1.0972                 1.3524                 0.8306
 IR Inten    --      0.3712                 0.3834                 0.0001

                     13                     14                     15
                      A                      A                      A
 Frequencies --    358.4738               436.1182               438.6920
 Red. masses --     14.7463                12.2428                14.5839
 Frc consts  --      1.1165                 1.3720                 1.6536
 IR Inten    --      5.0731                 0.0000                 0.3111

                     16                     17                     18
                      A                      A                      A
 Frequencies --    488.3325               505.5004               542.7584
 Red. masses --     14.2269                13.7181                12.4470
 Frc consts  --      1.9989                 2.0653                 2.1604
 IR Inten    --     27.4661                 2.0633                 3.9442

                     19                     20                     21
                      A                      A                      A
 Frequencies --    566.4551               611.8441               738.9553
 Red. masses --     12.2227                12.1189                12.2250
 Frc consts  --      2.3107                 2.6730                 3.9331
 IR Inten    --      4.6081                 0.0000                 5.0637

                     22                     23                     24
                      A                      A                      A
 Frequencies --    756.4314               758.5973               778.1462
 Red. masses --     13.2050                12.1411                12.4528
 Frc consts  --      4.4517                 4.1165                 4.4426
 IR Inten    --     42.6004                 0.0026                 3.8630

                     25                     26                     27
                      A                      A                      A
 Frequencies --    833.4497              1015.0455              1017.3619
 Red. masses --     12.6866                12.7469                12.2915
 Frc consts  --      5.1922                 7.7380                 7.4956
 IR Inten    --     94.2341                26.9979               353.0266

                     28                     29                     30
                      A                      A                      A
 Frequencies --   1187.7449              1192.7639              1355.3712
 Red. masses --     12.1081                12.2486                12.1945
 Frc consts  --     10.0640                10.2670                13.1987
 IR Inten    --    110.7415                83.1835               202.8257

                     31                     32                     33
                      A                      A                      A
 Frequencies --   1392.0792              1471.6236              1512.2942
 Red. masses --     12.0691                12.5763                12.8681
 Frc consts  --     13.7801                16.0472                17.3395
 IR Inten    --     31.0885                 7.8137               905.0239

                     34                     35                     36
                      A                      A                      A
 Frequencies --   1583.9535              2240.8018              2243.9857
 Red. masses --     12.3464                12.6752                12.6783
 Frc consts  --     18.2505                37.4984                37.6142
 IR Inten    --     20.9006               122.0454               829.1909

 - Thermochemistry -
 -------------------
 Temperature   298.150 Kelvin.  Pressure   1.00000 Atm.
 Atom     1 has atomic number  6 and mass  12.00000

 Molecular mass:   225.93368 amu.
 Principal axes and moments of inertia in atomic units:
                           1         2         3
     Eigenvalues --  2382.086303773.089746155.17598
           X            0.99996  -0.00864  -0.00108
           Y            0.00864   0.99996   0.00073
           Z            0.00107  -0.00074   1.00000
 This molecule is an asymmetric top.
 Rotational symmetry number  1.
 Warning -- assumption of classical behavior for rotation
           may cause significant error
 Rotational temperatures (Kelvin)      0.03636     0.02296     0.01407
 Rotational constants (GHZ):           0.75763     0.47832     0.29321
 Zero-point vibrational energy     158122.1 (Joules/Mol)
                                   37.79210 (Kcal/Mol)
 Warning -- explicit consideration of  20 degrees of freedom as
           vibrations may cause significant error
 Vibrational temperatures:     82.31    96.77   135.25   196.58   225.00
          (Kelvin)            234.30   304.90   376.62   391.77   460.90
                              479.61   482.26   515.76   627.48   631.18
                              702.60   727.30   780.91   815.00   880.31
                             1063.19  1088.34  1091.45  1119.58  1199.15
                             1460.42  1463.76  1708.90  1716.12  1950.08
                             2002.89  2117.34  2175.85  2278.96  3224.01
                             3228.59

 Zero-point correction=                           0.060226 (Hartree/Particle)
 Thermal correction to Energy=                    0.072417
 Thermal correction to Enthalpy=                  0.073362
 Thermal correction to Gibbs Free Energy=         0.020613
 Sum of electronic and zero-point Energies=          -1485.349531
 Sum of electronic and thermal Energies=             -1485.337339
 Sum of electronic and thermal Enthalpies=           -1485.336395
 Sum of electronic and thermal Free Energies=        -1485.389144

                     E (Thermal)             CV                S
                      KCal/Mol        Cal/Mol-Kelvin    Cal/Mol-Kelvin
 Total                   45.443             42.895            111.019
 Electronic               0.000              0.000              0.000
 Translational            0.889              2.981             42.148
 Rotational               0.889              2.981             32.381
 Vibrational             43.665             36.933             36.491
 Vibration     1          0.596              1.975              4.551
 Vibration     2          0.598              1.970              4.232
 Vibration     3          0.603              1.953              3.575
 Vibration     4          0.614              1.917              2.850
 Vibration     5          0.620              1.896              2.593
 Vibration     6          0.623              1.888              2.516
 Vibration     7          0.643              1.823              2.027
 Vibration     8          0.669              1.743              1.650
 Vibration     9          0.675              1.724              1.582
 Vibration    10          0.706              1.635              1.308
 Vibration    11          0.715              1.609              1.244
 Vibration    12          0.716              1.605              1.235
 Vibration    13          0.733              1.558              1.129
 Vibration    14          0.797              1.391              0.839
 Vibration    15          0.799              1.386              0.831
 Vibration    16          0.844              1.276              0.688
 Vibration    17          0.861              1.238              0.645
 Vibration    18          0.898              1.156              0.559
 Vibration    19          0.922              1.104              0.511
 Vibration    20          0.971              1.007              0.430

 Optimization completed.
    -- Stationary point found.
 Normal termination of Gaussian 16 at Sun Dec 17 21:17:58 2023.
