 Gaussian 16, Revision A.03,
 Gaussian 16:  ES64L-G16RevA.03 25-Dec-2016

 ----------------------------------------------------------------
 #P UB3LYP/6-311++G(d,p) SCRF=(PCM,Solvent=n,n-DiMethylFormamide)
 ----------------------------------------------------------------

 ------------------
 Quinone PCM in DMF
 ------------------
 Symbolic Z-matrix:
 Charge =  0 Multiplicity = 1

                         Standard orientation:
 ---------------------------------------------------------------------
 Center     Atomic      Atomic             Coordinates (Angstroms)
 Number     Number       Type             X           Y           Z
 ---------------------------------------------------------------------
      1          8           0       -1.293813    2.213663   -0.711688
      2          6           0       -0.721461    1.190731   -0.369389
      3          6           0        0.753296    1.141158   -0.360564
      4          6           0        1.475141    0.051860   -0.022932
      5          6           0        0.721442   -1.190337    0.370745
      6          8           0        1.293783   -2.212914    0.714088
      7          6           0       -0.753320   -1.140937    0.361342
      8          6           0       -1.475147   -0.051672    0.023580
      9          6           0       -2.953337   -0.058756    0.011551
     10          6           0       -3.641001   -1.190647   -0.455595
     11          6           0       -5.030914   -1.237946   -0.438500
     12          6           0       -5.760328   -0.155023    0.050156
     13          6           0       -5.089669    0.976110    0.512551
     14          6           0       -3.699566    1.031559    0.486832
     15          6           0        2.953345    0.058731   -0.011629
     16          6           0        3.641448    1.190767    0.454533
     17          6           0        5.031358    1.237833    0.436657
     18          6           0        5.760335    0.154536   -0.051804
     19          6           0        5.089254   -0.976745   -0.513205
     20          6           0        3.699156   -1.031963   -0.486695
     21          1           0        1.230175    2.060461   -0.681869
     22          1           0       -1.230241   -2.060285    0.682473
     23          1           0       -3.081459   -2.027451   -0.857817
     24          1           0       -5.543849   -2.116195   -0.813735
     25          1           0       -6.843796   -0.189955    0.064061
     26          1           0       -5.650760    1.822395    0.892274
     27          1           0       -3.191719    1.918024    0.839870
     28          1           0        3.082263    2.027859    0.856625
     29          1           0        5.544633    2.116202    0.811145
     30          1           0        6.843803    0.189294   -0.066325
     31          1           0        5.649995   -1.823340   -0.892753
     32          1           0        3.190997   -1.918563   -0.838946
 ---------------------------------------------------------------------

 SCF Done:  E(UB3LYP) =  -843.796437135     A.U. after   15 cycles

 The electronic state is 1-A.
 Alpha  occ. eigenvalues --  -19.14337 -19.14337 -10.29063 -10.29062 -10.22689
 Alpha  occ. eigenvalues --  -10.22688 -10.20850 -10.20850 -10.20489 -10.20488
 Alpha  occ. eigenvalues --  -10.19044 -10.19044 -10.18882 -10.18881 -10.18782
 Alpha  occ. eigenvalues --  -10.18781 -10.18634 -10.18633 -10.18565 -10.18564
 Alpha  occ. eigenvalues --   -1.07593  -1.07410  -0.88787  -0.87990  -0.85782
 Alpha  occ. eigenvalues --   -0.81934  -0.77016  -0.76243  -0.76213  -0.74795
 Alpha  occ. eigenvalues --   -0.70817  -0.66041  -0.63652  -0.62228  -0.61289
 Alpha  occ. eigenvalues --   -0.60707  -0.58402  -0.53804  -0.53308  -0.52901
 Alpha  occ. eigenvalues --   -0.49942  -0.48977  -0.47428  -0.46940  -0.46903
 Alpha  occ. eigenvalues --   -0.46276  -0.45340  -0.44718  -0.43836  -0.43615
 Alpha  occ. eigenvalues --   -0.43220  -0.43148  -0.42317  -0.41015  -0.38713
 Alpha  occ. eigenvalues --   -0.38535  -0.36949  -0.36772  -0.36027  -0.35891
 Alpha  occ. eigenvalues --   -0.32042  -0.31819  -0.29478  -0.28263  -0.26952
 Alpha  occ. eigenvalues --   -0.26925  -0.26468  -0.25488
 Alpha virt. eigenvalues --   -0.13906  -0.06261  -0.02714  -0.02619  -0.02577
 Alpha virt. eigenvalues --   -0.01452  -0.00685  -0.00200   0.00795   0.01163
 Alpha virt. eigenvalues --    0.01357   0.01619   0.02322   0.02744   0.03310

  Beta  occ. eigenvalues --  -19.14337 -19.14337 -10.29063 -10.29062 -10.22689
  Beta  occ. eigenvalues --  -10.22688 -10.20850 -10.20850 -10.20489 -10.20488
  Beta  occ. eigenvalues --  -10.19044 -10.19044 -10.18882 -10.18881 -10.18782
  Beta  occ. eigenvalues --  -10.18781 -10.18634 -10.18633 -10.18565 -10.18564
  Beta  occ. eigenvalues --   -1.07593  -1.07410  -0.88787  -0.87990  -0.85782
  Beta  occ. eigenvalues --   -0.81934  -0.77016  -0.76243  -0.76213  -0.74795
  Beta  occ. eigenvalues --   -0.70817  -0.66041  -0.63652  -0.62228  -0.61289
  Beta  occ. eigenvalues --   -0.60707  -0.58402  -0.53804  -0.53308  -0.52901
  Beta  occ. eigenvalues --   -0.49942  -0.48977  -0.47428  -0.46940  -0.46903
  Beta  occ. eigenvalues --   -0.46276  -0.45340  -0.44718  -0.43836  -0.43615
  Beta  occ. eigenvalues --   -0.43220  -0.43148  -0.42317  -0.41015  -0.38713
  Beta  occ. eigenvalues --   -0.38535  -0.36949  -0.36772  -0.36027  -0.35891
  Beta  occ. eigenvalues --   -0.32042  -0.31819  -0.29478  -0.28263  -0.26952
  Beta  occ. eigenvalues --   -0.26925  -0.26468  -0.25488
  Beta virt. eigenvalues --   -0.13906  -0.06261  -0.02714  -0.02619  -0.02577
  Beta virt. eigenvalues --   -0.01452  -0.00685  -0.00200   0.00795   0.01163
  Beta virt. eigenvalues --    0.01357   0.01619   0.02322   0.02744   0.03310

 Mulliken charges and spin densities:
               1          2
     1  O   -0.268429   0.000000
     2  C   -0.835622   0.000000
     3  C   -0.535511  -0.000000
     4  C    1.228271  -0.000000
     5  C   -0.835867  -0.000000
     6  O   -0.268454   0.000000
     7  C   -0.534694   0.000000
     8  C    1.229214  -0.000000
     9  C    1.367304   0.000000
    10  C   -0.829200  -0.000000
    11  C   -0.187428   0.000000
    12  C   -0.523021  -0.000000
    13  C   -0.089650   0.000000
    14  C   -0.539096  -0.000000
    15  C    1.367755  -0.000000
    16  C   -0.827957   0.000000
    17  C   -0.187949  -0.000000
    18  C   -0.522825   0.000000
    19  C   -0.090035  -0.000000
    20  C   -0.539237   0.000000
    21  H    0.226351   0.000000
    22  H    0.226431   0.000000
    23  H    0.193422  -0.000000
    24  H    0.205074  -0.000000
    25  H    0.189659   0.000000
    26  H    0.208703  -0.000000
    27  H    0.187958  -0.000000
    28  H    0.193450  -0.000000
    29  H    0.205066   0.000000
    30  H    0.189662  -0.000000
    31  H    0.208704   0.000000
    32  H    0.187951   0.000000
 Sum of Mulliken charges =  -0.00000   0.00000

 Dipole moment (field-independent basis, Debye):
    X=              0.0006    Y=             -0.0013    Z=             -0.0034  Tot=              0.0037
 Quadrupole moment (field-independent basis, Debye-Ang):
   XX=            -88.7380   YY=           -119.2569   ZZ=           -120.1946
   XY=             11.5871   XZ=             -4.2246   YZ=             11.2593

 Normal termination of Gaussian 16 at Wed Jan 24 22:54:25 2024.
