 Q-Chem 5.4, Q-Chem, Inc., Pleasanton, CA (2021)
 Q-Chem 5.4.0 for Intel X86 EM64T Linux

User input:
--------------------------------------------------------------
$molecule
-1 2
C                 -0.9703480000      3.9908370000     -0.1174870000
C                 -2.2149470000      3.3922560000     -0.1896520000
C                 -2.3216410000      1.9870310000     -0.2068890000
C                  0.2063400000      3.2145970000     -0.0574410000
C                  0.0980500000      1.7964640000     -0.0753200000
C                 -1.1775850000      1.2087000000     -0.1528800000
C                  1.5077700000      3.8665530000     -0.0032190000
C                  2.6692440000      2.9985320000      0.0710980000
C                  2.5528670000      1.6168610000      0.1079380000
C                  1.2906930000      0.9320930000     -0.0131560000
O                  1.6590220000      5.1248260000     -0.0388340000
O                  1.2072530000     -0.3200170000     -0.0625930000
N                  3.8985250000      3.6620400000      0.1503620000
S                  3.9872940000      0.5464660000      0.2483440000
H                 -0.8612180000      5.0693320000     -0.1064990000
H                 -3.1109810000      4.0047540000     -0.2337250000
H                 -3.2988520000      1.5166830000     -0.2639320000
H                 -1.2277270000      0.1258550000     -0.1678220000
H                  3.7498120000      4.6507570000     -0.0374280000
H                  4.6293350000      3.2537820000     -0.4196680000
H                  4.7522460000      1.4487600000      0.9023820000
$end
$rem
MAX_SCF_CYCLES=200
BASIS  =  6-311++G(d,p)
GUI  =  2
JOB_TYPE  =  SP
METHOD  =  B3LYP
SOLVENT_METHOD = PCM
$end
$pcm
theory = CPCM
$end
$solvent
dielectric 37.219
opticaldielectric 1.43
$end

--------------------------------------------------------------

             Standard Nuclear Orientation (Angstroms)
    I     Atom           X                Y                Z
 ----------------------------------------------------------------
    1      C      -0.9703480000     3.9908370000    -0.1174870000
    2      C      -2.2149470000     3.3922560000    -0.1896520000
    3      C      -2.3216410000     1.9870310000    -0.2068890000
    4      C       0.2063400000     3.2145970000    -0.0574410000
    5      C       0.0980500000     1.7964640000    -0.0753200000
    6      C      -1.1775850000     1.2087000000    -0.1528800000
    7      C       1.5077700000     3.8665530000    -0.0032190000
    8      C       2.6692440000     2.9985320000     0.0710980000
    9      C       2.5528670000     1.6168610000     0.1079380000
   10      C       1.2906930000     0.9320930000    -0.0131560000
   11      O       1.6590220000     5.1248260000    -0.0388340000
   12      O       1.2072530000    -0.3200170000    -0.0625930000
   13      N       3.8985250000     3.6620400000     0.1503620000
   14      S       3.9872940000     0.5464660000     0.2483440000
   15      H      -0.8612180000     5.0693320000    -0.1064990000
   16      H      -3.1109810000     4.0047540000    -0.2337250000
   17      H      -3.2988520000     1.5166830000    -0.2639320000
   18      H      -1.2277270000     0.1258550000    -0.1678220000
   19      H       3.7498120000     4.6507570000    -0.0374280000
   20      H       4.6293350000     3.2537820000    -0.4196680000
   21      H       4.7522460000     1.4487600000     0.9023820000
 ----------------------------------------------------------------

    8    -989.0185134251      9.93e-06  Convergence criterion met
 Total energy in the final basis set =     -989.0185134251

                    Orbital Energies (a.u.)
 --------------------------------------------------------------

 Alpha MOs
 -- Occupied --
-88.8491 -19.0825 -19.0776 -14.3134 -10.2290 -10.2240 -10.2094 -10.1909
-10.1743 -10.1738 -10.1717 -10.1709 -10.1697 -10.1697  -7.9355  -5.8990
 -5.8956  -5.8900  -1.0083  -1.0049  -0.9112  -0.8580  -0.8050  -0.7633
 -0.7509  -0.7072  -0.6674  -0.6126  -0.6014  -0.5627  -0.5393  -0.5081
 -0.4763  -0.4749  -0.4516  -0.4356  -0.4261  -0.4205  -0.4158  -0.4037
 -0.3997  -0.3854  -0.3660  -0.3529  -0.3489  -0.3371  -0.3233  -0.2807
 -0.2638  -0.2578  -0.2547  -0.2439  -0.2111  -0.1505

 Beta MOs
 -- Occupied --
-88.8490 -19.0764 -19.0729 -14.3127 -10.2273 -10.2214 -10.2081 -10.1904
-10.1739 -10.1730 -10.1715 -10.1704 -10.1697 -10.1694  -7.9355  -5.8990
 -5.8956  -5.8898  -0.9988  -0.9953  -0.9085  -0.8559  -0.8020  -0.7609
 -0.7488  -0.7046  -0.6593  -0.6107  -0.5987  -0.5598  -0.5380  -0.5057
 -0.4744  -0.4721  -0.4509  -0.4306  -0.4225  -0.4129  -0.4112  -0.4008
 -0.3960  -0.3636  -0.3619  -0.3496  -0.3466  -0.3354  -0.3092  -0.2757
 -0.2504  -0.2496  -0.2483  -0.2391  -0.2033

          Ground-State Mulliken Net Atomic Charges

     Atom                 Charge (a.u.)    Spin (a.u.)
  --------------------------------------------------------
      1 C                    -0.000924       0.059712
      2 C                    -0.385765       0.013379
      3 C                    -0.432144       0.056093
      4 C                     0.326917       0.028015
      5 C                     0.718876       0.052463
      6 C                     0.080679       0.010413
      7 C                    -1.181412       0.157010
      8 C                     0.021386       0.086081
      9 C                     1.862506       0.018564
     10 C                    -1.465795       0.085008
     11 O                    -0.519028       0.228835
     12 O                    -0.459123       0.178306
     13 N                    -0.394103       0.030423
     14 S                    -0.588601       0.007393
     15 H                     0.167874      -0.003400
     16 H                     0.202198      -0.001638
     17 H                     0.201316      -0.004070
     18 H                     0.166407      -0.000772
     19 H                     0.299350      -0.002243
     20 H                     0.272160       0.000925
     21 H                     0.107225      -0.000497
  --------------------------------------------------------
  Sum of atomic charges =    -1.000000

                    Cartesian Multipole Moments
 -----------------------------------------------------------------
    Charge (ESU x 10^10)
                -4.8032
    Dipole Moment (Debye)
         X      -6.5085      Y      -8.8252      Z      -0.7390
       Tot      10.9905
    Quadrupole Moments (Debye-Ang)
        XX     -93.0602     XY      -8.4189     YY    -145.3468
        XZ      -2.7620     YZ      -3.0055     ZZ     -95.6025

 Total job time:  36.97s(wall), 232.87s(cpu)
        *  Thank you very much for using Q-Chem.  Have a nice day.  *
