 Gaussian 16, Revision A.03,
 Gaussian 16:  ES64L-G16RevA.03 25-Dec-2016

 --------------------------------------
 #P UB3LYP/6-311++G(d,p) nosym opt freq
 --------------------------------------

 --------
 Oxidized
 --------
 Symbolic Z-matrix:
 Charge =  0 Multiplicity = 1

 SCF Done:  E(UB3LYP) =  -5639.40833167     A.U. after   16 cycles
 SCF Done:  E(UB3LYP) =  -5639.42911677     A.U. after   14 cycles
 SCF Done:  E(UB3LYP) =  -5639.43200562     A.U. after   14 cycles
 SCF Done:  E(UB3LYP) =  -5639.43249323     A.U. after   13 cycles
 SCF Done:  E(UB3LYP) =  -5639.43253089     A.U. after   12 cycles
 SCF Done:  E(UB3LYP) =  -5639.43253127     A.U. after   10 cycles
 SCF Done:  E(UB3LYP) =  -5639.43253174     A.U. after   11 cycles
 SCF Done:  E(UB3LYP) =  -5639.43253248     A.U. after   10 cycles
 Optimization completed.
    -- Stationary point found.
 Normal termination of Gaussian 16 at Sun Dec 17 20:57:40 2023.

 ----------------------------------------------------------------------
 #P Geom=AllCheck Guess=TCheck SCRF=Check GenChk UB3LYP/6-311++G(d,p) F
 req
 ----------------------------------------------------------------------

 Structure from the checkpoint file:  "024.chk"
 --------
 Oxidized
 --------
 Charge =  0 Multiplicity = 1

                          Input orientation:
 ---------------------------------------------------------------------
 Center     Atomic      Atomic             Coordinates (Angstroms)
 Number     Number       Type             X           Y           Z
 ---------------------------------------------------------------------
      1          6           0       -1.650528    0.786621    1.629484
      2          6           0       -2.900339    1.061624    0.780223
      3          6           0       -2.863508    0.992843   -0.585683
      4          6           0       -1.659686    0.661096   -1.294221
      5          6           0       -0.409836    0.386245   -0.444966
      6          6           0       -0.446668    0.455022    0.920940
      7          8           0       -1.543081    0.579637   -2.507996
      8          8           0       -1.767065    0.868351    2.843248
      9         35           0        1.123551    0.107857    1.949176
     10         35           0       -4.433679    1.340197   -1.613927
     11          7           0        0.660086    0.086878   -1.185215
     12          7           0       -3.970233    1.361105    1.520466
     13          1           0        0.539866    0.073017   -2.189788
     14          1           0        1.550368   -0.116618   -0.759254
     15          1           0       -3.850028    1.374909    2.525042
     16          1           0       -4.860489    1.564705    1.094501
 ---------------------------------------------------------------------

 SCF Done:  E(UB3LYP) =  -5639.43253248     A.U. after    1 cycles

 Alpha  occ. eigenvalues -- -482.84614-482.84614 -62.49880 -62.49880 -56.31923
 Alpha  occ. eigenvalues --  -56.31923 -56.31524 -56.31524 -56.31517 -56.31517
 Alpha  occ. eigenvalues --  -19.13796 -19.13796 -14.37551 -14.37551 -10.29613
 Alpha  occ. eigenvalues --  -10.29612 -10.27672 -10.27671 -10.24163 -10.24162
 Alpha  occ. eigenvalues --   -8.70846  -8.70845  -6.54003  -6.54003  -6.52673
 Alpha  occ. eigenvalues --   -6.52673  -6.52668  -6.52668  -2.65092  -2.65092
 Alpha  occ. eigenvalues --   -2.64706  -2.64705  -2.64705  -2.64705  -2.63647
 Alpha  occ. eigenvalues --   -2.63647  -2.63646  -2.63646  -1.07822  -1.07525
 Alpha  occ. eigenvalues --   -0.97843  -0.97731  -0.86819  -0.83855  -0.79559
 Alpha  occ. eigenvalues --   -0.74172  -0.71183  -0.64974  -0.63200  -0.61148
 Alpha  occ. eigenvalues --   -0.55325  -0.54164  -0.53565  -0.49495  -0.47763
 Alpha  occ. eigenvalues --   -0.46171  -0.45880  -0.43825  -0.43374  -0.40905
 Alpha  occ. eigenvalues --   -0.40523  -0.37298  -0.32979  -0.32352  -0.31250
 Alpha  occ. eigenvalues --   -0.31220  -0.30121  -0.29066  -0.26684  -0.23679
 Alpha virt. eigenvalues --   -0.12577  -0.03152  -0.02848  -0.01385  -0.00989
 Alpha virt. eigenvalues --   -0.00890   0.00176   0.01752   0.01776   0.02737
 Alpha virt. eigenvalues --    0.03556   0.04868   0.05111   0.05193   0.06566

  Beta  occ. eigenvalues -- -482.84614-482.84614 -62.49880 -62.49880 -56.31923
  Beta  occ. eigenvalues --  -56.31923 -56.31524 -56.31524 -56.31517 -56.31517
  Beta  occ. eigenvalues --  -19.13796 -19.13796 -14.37551 -14.37551 -10.29613
  Beta  occ. eigenvalues --  -10.29612 -10.27672 -10.27671 -10.24163 -10.24162
  Beta  occ. eigenvalues --   -8.70846  -8.70845  -6.54003  -6.54003  -6.52673
  Beta  occ. eigenvalues --   -6.52673  -6.52668  -6.52668  -2.65092  -2.65092
  Beta  occ. eigenvalues --   -2.64706  -2.64705  -2.64705  -2.64705  -2.63647
  Beta  occ. eigenvalues --   -2.63647  -2.63646  -2.63646  -1.07822  -1.07525
  Beta  occ. eigenvalues --   -0.97843  -0.97731  -0.86819  -0.83855  -0.79559
  Beta  occ. eigenvalues --   -0.74172  -0.71183  -0.64974  -0.63200  -0.61148
  Beta  occ. eigenvalues --   -0.55325  -0.54164  -0.53565  -0.49495  -0.47763
  Beta  occ. eigenvalues --   -0.46171  -0.45880  -0.43825  -0.43374  -0.40905
  Beta  occ. eigenvalues --   -0.40523  -0.37298  -0.32979  -0.32352  -0.31250
  Beta  occ. eigenvalues --   -0.31220  -0.30121  -0.29066  -0.26684  -0.23679
  Beta virt. eigenvalues --   -0.12577  -0.03152  -0.02848  -0.01385  -0.00989
  Beta virt. eigenvalues --   -0.00890   0.00176   0.01752   0.01776   0.02737
  Beta virt. eigenvalues --    0.03556   0.04868   0.05111   0.05193   0.06566

 Mulliken charges and spin densities:
               1          2
     1  C   -0.671774   0.000000
     2  C   -0.990309  -0.000000
     3  C    1.648299   0.000000
     4  C   -0.671769   0.000000
     5  C   -0.990306   0.000000
     6  C    1.648293  -0.000000
     7  O   -0.252406  -0.000000
     8  O   -0.252406  -0.000000
     9  Br  -0.075787  -0.000000
    10  Br  -0.075787  -0.000000
    11  N   -0.237982  -0.000000
    12  N   -0.237982   0.000000
    13  H    0.310707   0.000000
    14  H    0.269252   0.000000
    15  H    0.310707  -0.000000
    16  H    0.269252   0.000000
 Sum of Mulliken charges =  -0.00000  -0.00000

 Dipole moment (field-independent basis, Debye):
    X=             -0.0001    Y=             -0.0002    Z=              0.0000  Tot=              0.0002
 Quadrupole moment (field-independent basis, Debye-Ang):
   XX=            -77.8636   YY=            -94.4733   ZZ=           -106.2723
   XY=             -4.9862   XZ=            -11.5301   YZ=              2.4266

  Exact polarizability: 163.388 -22.547  78.251   3.680   3.711 178.762
 Approx polarizability: 232.899 -31.610 121.429 -36.326  20.143 366.916

                      1                      2                      3
                      A                      A                      A
 Frequencies --     54.5397                82.6559               105.5731
 Red. masses --     17.2431                 8.8974                10.2680
 Frc consts  --      0.0302                 0.0358                 0.0674
 IR Inten    --      0.0263                 4.7467                 0.0000

                      4                      5                      6
                      A                      A                      A
 Frequencies --    145.1862               174.9794               184.7361
 Red. masses --     16.2490                 6.2869                11.5477
 Frc consts  --      0.2018                 0.1134                 0.2322
 IR Inten    --      0.1144                 3.8399                 0.0000

                      7                      8                      9
                      A                      A                      A
 Frequencies --    198.4367               245.3941               280.4129
 Red. masses --     18.5786                11.0215                 6.1866
 Frc consts  --      0.4310                 0.3910                 0.2866
 IR Inten    --      0.0000                 0.0000                 5.5074

                     10                     11                     12
                      A                      A                      A
 Frequencies --    358.5665               366.0461               372.0132
 Red. masses --      1.1297                 1.1870                 4.4325
 Frc consts  --      0.0856                 0.0937                 0.3614
 IR Inten    --      0.0000               331.2397                 0.0007

                     13                     14                     15
                      A                      A                      A
 Frequencies --    383.1815               396.7922               499.2478
 Red. masses --      4.6568                 7.9665                 6.4497
 Frc consts  --      0.4029                 0.7390                 0.9472
 IR Inten    --     19.6217                 0.0000                 0.0005

                     16                     17                     18
                      A                      A                      A
 Frequencies --    499.6023               530.1687               549.1936
 Red. masses --      8.2991                 9.2653                 4.8895
 Frc consts  --      1.2205                 1.5344                 0.8689
 IR Inten    --     31.8119                 0.0000                36.5598

                     19                     20                     21
                      A                      A                      A
 Frequencies --    654.9729               657.7628               709.6083
 Red. masses --      1.1771                 1.1457                 3.9097
 Frc consts  --      0.2975                 0.2920                 1.1599
 IR Inten    --      5.4369                 0.0000                 0.0000

                     22                     23                     24
                      A                      A                      A
 Frequencies --    727.3281               754.2841               772.0397
 Red. masses --      8.6007                 9.9334                 6.2850
 Frc consts  --      2.6807                 3.3298                 2.2072
 IR Inten    --      0.0000                11.0073                37.5341

                     25                     26                     27
                      A                      A                      A
 Frequencies --    817.5934               921.4619              1109.6311
 Red. masses --     10.7317                 3.7444                 1.8882
 Frc consts  --      4.2266                 1.8732                 1.3698
 IR Inten    --      0.0000               140.3053                 0.0000

                     28                     29                     30
                      A                      A                      A
 Frequencies --   1129.1609              1299.5974              1302.7063
 Red. masses --      2.4912                 7.5853                 4.9821
 Frc consts  --      1.8714                 7.5481                 4.9815
 IR Inten    --     25.3109                 0.0000               136.0351

                     31                     32                     33
                      A                      A                      A
 Frequencies --   1362.8557              1369.4162              1560.0332
 Red. masses --      3.4460                 4.5021                 1.7281
 Frc consts  --      3.7711                 4.9744                 2.4779
 IR Inten    --      0.0000               157.0357                 0.0000

                     34                     35                     36
                      A                      A                      A
 Frequencies --   1569.3296              1636.8116              1659.9641
 Red. masses --      1.4055                 7.1910                 3.5955
 Frc consts  --      2.0395                11.3511                 5.8372
 IR Inten    --    132.6610              1582.1244                 0.0000

                     37                     38                     39
                      A                      A                      A
 Frequencies --   1700.3445              1725.7908              3546.1450
 Red. masses --     10.2507                 7.5654                 1.0454
 Frc consts  --     17.4613                13.2757                 7.7453
 IR Inten    --      0.0000               118.4779                 0.0000

                     40                     41                     42
                      A                      A                      A
 Frequencies --   3548.9864              3688.1187              3688.2165
 Red. masses --      1.0458                 1.1044                 1.1041
 Frc consts  --      7.7605                 8.8509                 8.8493
 IR Inten    --    247.3627               179.7635                 0.0000

 - Thermochemistry -
 -------------------
 Temperature   298.150 Kelvin.  Pressure   1.00000 Atm.
 Atom     1 has atomic number  6 and mass  12.00000

 Molecular mass:   293.86395 amu.
 Principal axes and moments of inertia in atomic units:
                           1         2         3
     Eigenvalues --  1593.394757043.911618637.30634
           X            0.83011  -0.50232   0.24204
           Y           -0.18435   0.16243   0.96935
           Z            0.52624   0.84929  -0.04224
 This molecule is an asymmetric top.
 Rotational symmetry number  1.
 Warning -- assumption of classical behavior for rotation
           may cause significant error
 Rotational temperatures (Kelvin)      0.05436     0.01230     0.01003
 Rotational constants (GHZ):           1.13264     0.25621     0.20895
 Zero-point vibrational energy     259224.1 (Joules/Mol)
                                   61.95605 (Kcal/Mol)
 Warning -- explicit consideration of  18 degrees of freedom as
           vibrations may cause significant error
 Vibrational temperatures:     78.47   118.92   151.90   208.89   251.76
          (Kelvin)            265.79   285.51   353.07   403.45   515.90
                              526.66   535.24   551.31   570.90   718.31
                              718.82   762.79   790.17   942.36   946.37
                             1020.97  1046.46  1085.25  1110.79  1176.33
                             1325.78  1596.51  1624.61  1869.83  1874.30
                             1960.85  1970.28  2244.54  2257.92  2355.01
                             2388.32  2446.42  2483.03  5102.11  5106.20
                             5306.38  5306.52

 Zero-point correction=                           0.098733 (Hartree/Particle)
 Thermal correction to Energy=                    0.110616
 Thermal correction to Enthalpy=                  0.111560
 Thermal correction to Gibbs Free Energy=         0.058999
 Sum of electronic and zero-point Energies=          -5639.333799
 Sum of electronic and thermal Energies=             -5639.321917
 Sum of electronic and thermal Enthalpies=           -5639.320973
 Sum of electronic and thermal Free Energies=        -5639.373534

                     E (Thermal)             CV                S
                      KCal/Mol        Cal/Mol-Kelvin    Cal/Mol-Kelvin
 Total                   69.412             42.524            110.624
 Electronic               0.000              0.000              0.000
 Translational            0.889              2.981             42.931
 Rotational               0.889              2.981             32.938
 Vibrational             67.635             36.563             34.754
 Vibration     1          0.596              1.976              4.646
 Vibration     2          0.600              1.961              3.827
 Vibration     3          0.605              1.945              3.349
 Vibration     4          0.617              1.908              2.734
 Vibration     5          0.627              1.873              2.381
 Vibration     6          0.631              1.861              2.280
 Vibration     7          0.637              1.842              2.148
 Vibration     8          0.660              1.770              1.763
 Vibration     9          0.680              1.710              1.531
 Vibration    10          0.733              1.558              1.128
 Vibration    11          0.739              1.542              1.096
 Vibration    12          0.744              1.530              1.071
 Vibration    13          0.752              1.506              1.027
 Vibration    14          0.763              1.477              0.975
 Vibration    15          0.855              1.252              0.660
 Vibration    16          0.855              1.251              0.659
 Vibration    17          0.885              1.183              0.587
 Vibration    18          0.904              1.141              0.546

 Optimization completed.
    -- Stationary point found.
 Normal termination of Gaussian 16 at Sun Dec 17 21:05:43 2023.
