 Q-Chem 5.4, Q-Chem, Inc., Pleasanton, CA (2021)
 Q-Chem 5.4.0 for Intel X86 EM64T Linux

User input:
--------------------------------------------------------------
$molecule
-2 1
C                  5.6179160000     -5.4006740000      1.2607230000
C                  6.5895830000     -5.2927990000      0.2830410000
C                  6.5585140000     -4.2202710000     -0.6501490000
C                  4.5570640000     -4.4745520000      1.3745400000
C                  4.5233520000     -3.3719490000      0.4459790000
C                  5.5397750000     -3.2894240000     -0.5370940000
C                  3.5470230000     -4.6496440000      2.4201760000
C                  2.5474880000     -3.6361670000      2.4243120000
C                  2.5135540000     -2.5642130000      1.5215610000
C                  3.4708810000     -2.3553260000      0.4877640000
O                  3.5766570000     -5.6302630000      3.2555200000
O                  3.4236750000     -1.3696690000     -0.3402050000
H                  5.6290410000     -6.2166930000      1.9775380000
H                  7.3850610000     -6.0347040000      0.2183520000
H                  1.7716980000     -3.7231190000      3.1856200000
H                  1.7074520000     -1.8327710000      1.5870010000
C                  7.6265910000     -4.1147960000     -1.7152250000
H                  5.4833380000     -2.4434300000     -1.2166900000
H                  8.6435970000     -4.0711250000     -1.2869940000
H                  7.4959340000     -3.2186120000     -2.3300930000
H                  7.6221250000     -4.9776960000     -2.3912250000
$end

$rem
BASIS  =  6-311++G(d,p)
GUI  =  2
JOB_TYPE  =  SP
METHOD  =  B3LYP
SCF_CONVERGENCE  = 8
SOLVENT_METHOD = sm12
$end

$smx
solvent dimethylformamide
charges CM5
$end

--------------------------------------------------------------

             Standard Nuclear Orientation (Angstroms)
    I     Atom           X                Y                Z
 ----------------------------------------------------------------
    1      C       5.6179160000    -5.4006740000     1.2607230000
    2      C       6.5895830000    -5.2927990000     0.2830410000
    3      C       6.5585140000    -4.2202710000    -0.6501490000
    4      C       4.5570640000    -4.4745520000     1.3745400000
    5      C       4.5233520000    -3.3719490000     0.4459790000
    6      C       5.5397750000    -3.2894240000    -0.5370940000
    7      C       3.5470230000    -4.6496440000     2.4201760000
    8      C       2.5474880000    -3.6361670000     2.4243120000
    9      C       2.5135540000    -2.5642130000     1.5215610000
   10      C       3.4708810000    -2.3553260000     0.4877640000
   11      O       3.5766570000    -5.6302630000     3.2555200000
   12      O       3.4236750000    -1.3696690000    -0.3402050000
   13      H       5.6290410000    -6.2166930000     1.9775380000
   14      H       7.3850610000    -6.0347040000     0.2183520000
   15      H       1.7716980000    -3.7231190000     3.1856200000
   16      H       1.7074520000    -1.8327710000     1.5870010000
   17      C       7.6265910000    -4.1147960000    -1.7152250000
   18      H       5.4833380000    -2.4434300000    -1.2166900000
   19      H       8.6435970000    -4.0711250000    -1.2869940000
   20      H       7.4959340000    -3.2186120000    -2.3300930000
   21      H       7.6221250000    -4.9776960000    -2.3912250000
 ----------------------------------------------------------------

   20    -574.5427221825      9.51e-09  Convergence criterion met
 Total energy in the final basis set =     -574.8479359921

                    Orbital Energies (a.u.)
 --------------------------------------------------------------

 Alpha MOs
 -- Occupied --
-19.0287 -19.0269 -10.1887 -10.1872 -10.1822 -10.1796 -10.1751 -10.1737
-10.1682 -10.1597 -10.1592 -10.1444 -10.1434  -0.9443  -0.9410  -0.8525
 -0.7905  -0.7590  -0.7365  -0.6907  -0.6523  -0.6099  -0.5879  -0.5489
 -0.4961  -0.4807  -0.4570  -0.4335  -0.4266  -0.4253  -0.4097  -0.3945
 -0.3855  -0.3823  -0.3653  -0.3619  -0.3348  -0.3295  -0.3275  -0.3233
 -0.2503  -0.2370  -0.2344  -0.2050  -0.2025  -0.1247

          Ground-State Mulliken Net Atomic Charges

     Atom                 Charge (a.u.)
  ----------------------------------------
      1 C                    -0.468644
      2 C                     2.302330
      3 C                     3.217307
      4 C                    -2.336624
      5 C                    -2.433635
      6 C                    -1.311566
      7 C                    -1.385099
      8 C                    -1.050024
      9 C                    -0.788909
     10 C                    -1.574821
     11 O                    -0.350024
     12 O                    -0.358649
     13 H                     0.143424
     14 H                     0.358968
     15 H                     0.038770
     16 H                     0.047535
     17 C                     3.004906
     18 H                    -0.065046
     19 H                     0.295209
     20 H                     0.422772
     21 H                     0.291819
  ----------------------------------------
  Sum of atomic charges =    -2.000000

                    Cartesian Multipole Moments
 -----------------------------------------------------------------
    Charge (ESU x 10^10)
                -9.6064
    Dipole Moment (Debye)
         X     -35.2612      Y      34.3992      Z     -13.2767
       Tot      51.0189
    Quadrupole Moments (Debye-Ang)
        XX    -227.2951     XY     131.4281     YY    -245.3201
        XZ     -45.5803     YZ      71.8807     ZZ    -131.5742

 Total job time:  453.40s(wall), 2765.35s(cpu)
        *  Thank you very much for using Q-Chem.  Have a nice day.  *
