 Gaussian 16, Revision A.03,
 Gaussian 16:  ES64L-G16RevA.03 25-Dec-2016

 ----------------------------------------------------------------------
 #P UB3LYP/6-311++G(d,p) nosym opt freq SCRF=(PCM,Solvent=n,n-DiMethylF
 ormamide)
 ----------------------------------------------------------------------

 -------
 Radical
 -------
 Symbolic Z-matrix:
 Charge = -1 Multiplicity = 2

 SCF Done:  E(UB3LYP) =  -5764.75258353     A.U. after   19 cycles
 SCF Done:  E(UB3LYP) =  -5764.75269949     A.U. after   14 cycles
 SCF Done:  E(UB3LYP) =  -5764.75279040     A.U. after   13 cycles
 SCF Done:  E(UB3LYP) =  -5764.75278101     A.U. after   13 cycles
 SCF Done:  E(UB3LYP) =  -5764.75279787     A.U. after   12 cycles
 SCF Done:  E(UB3LYP) =  -5764.75280087     A.U. after   11 cycles
 SCF Done:  E(UB3LYP) =  -5764.75280110     A.U. after    9 cycles
 Optimization completed.
    -- Stationary point found.
 Normal termination of Gaussian 16 at Sat Feb 10 11:08:51 2024.

 ----------------------------------------------------------------------
 #P Geom=AllCheck Guess=TCheck SCRF=Check GenChk UB3LYP/6-311++G(d,p) F
 req
 ----------------------------------------------------------------------

 Structure from the checkpoint file:  "020-rad.chk"
 -------
 Radical
 -------
 Charge = -1 Multiplicity = 2

                          Input orientation:
 ---------------------------------------------------------------------
 Center     Atomic      Atomic             Coordinates (Angstroms)
 Number     Number       Type             X           Y           Z
 ---------------------------------------------------------------------
      1          6           0       -2.021414    0.360698    1.528657
      2          6           0       -2.915940    1.194526    0.719172
      3          6           0       -2.526109    1.502635   -0.559746
      4          6           0       -1.289508    1.074901   -1.195508
      5          6           0       -0.394963    0.241098   -0.386010
      6          6           0       -0.784812   -0.067036    0.892895
      7          8           0       -0.993706    1.397446   -2.375320
      8          8           0       -2.317299    0.038024    2.708411
      9         35           0        0.332602   -1.164458    2.048562
     10         35           0       -3.643544    2.600005   -1.715446
     11          6           0        0.912020   -0.233718   -1.008923
     12          6           0        1.860649    0.932263   -1.348526
     13          6           0        0.685883   -1.159011   -2.220372
     14          6           0       -4.222901    1.669367    1.342108
     15          6           0       -3.996742    2.594618    2.553585
     16          6           0       -5.171533    0.503395    1.681733
     17          1           0        1.415375   -0.832702   -0.250268
     18          1           0        2.053607    1.549869   -0.466335
     19          1           0        1.441729    1.566554   -2.129828
     20          1           0        2.820710    0.537952   -1.696538
     21          1           0        0.054151   -2.010390   -1.950084
     22          1           0        1.646146   -1.553088   -2.568079
     23          1           0        0.211342   -0.623285   -3.042774
     24          1           0       -4.726255    2.268373    0.583472
     25          1           0       -4.956996    2.988732    2.901273
     26          1           0       -3.364958    3.445973    2.283344
     27          1           0       -3.522251    2.058840    3.375982
     28          1           0       -6.131582    0.897717    2.029767
     29          1           0       -4.752599   -0.130887    2.463037
     30          1           0       -5.364516   -0.114225    0.799559
 ---------------------------------------------------------------------

 SCF Done:  E(UB3LYP) =  -5764.75280110     A.U. after    1 cycles

 Alpha  occ. eigenvalues -- -482.82139-482.82139 -62.47421 -62.47421 -56.29439
 Alpha  occ. eigenvalues --  -56.29439 -56.29090 -56.29090 -56.29055 -56.29055
 Alpha  occ. eigenvalues --  -19.08233 -19.08233 -10.23511 -10.23510 -10.21907
 Alpha  occ. eigenvalues --  -10.21905 -10.18656 -10.18655 -10.17474 -10.17473
 Alpha  occ. eigenvalues --  -10.15015 -10.15015 -10.15007 -10.15007  -8.68388
 Alpha  occ. eigenvalues --   -8.68388  -6.51467  -6.51467  -6.50305  -6.50305
 Alpha  occ. eigenvalues --   -6.50207  -6.50207  -2.62571  -2.62571  -2.62256
 Alpha  occ. eigenvalues --   -2.62256  -2.62183  -2.62183  -2.61257  -2.61257
 Alpha  occ. eigenvalues --   -2.61257  -2.61257  -1.01158  -1.00870  -0.85569
 Alpha  occ. eigenvalues --   -0.82802  -0.78656  -0.78476  -0.76299  -0.71207
 Alpha  occ. eigenvalues --   -0.67786  -0.67780  -0.67406  -0.62649  -0.57480
 Alpha  occ. eigenvalues --   -0.56730  -0.53722  -0.51127  -0.46164  -0.44842
 Alpha  occ. eigenvalues --   -0.44081  -0.43491  -0.42918  -0.41506  -0.41397
 Alpha  occ. eigenvalues --   -0.40754  -0.39784  -0.39576  -0.39561  -0.37420
 Alpha  occ. eigenvalues --   -0.36844  -0.36550  -0.34690  -0.34651  -0.34311
 Alpha  occ. eigenvalues --   -0.33787  -0.33298  -0.33230  -0.31736  -0.31252
 Alpha  occ. eigenvalues --   -0.28356  -0.27525  -0.27096  -0.24541  -0.24278
 Alpha  occ. eigenvalues --   -0.24042  -0.16729
 Alpha virt. eigenvalues --   -0.01697  -0.01567  -0.01087   0.00119   0.00488
 Alpha virt. eigenvalues --    0.01291   0.01847   0.02189   0.02292   0.02437
 Alpha virt. eigenvalues --    0.03115   0.04285   0.04446   0.04591   0.05076

  Beta  occ. eigenvalues -- -482.82139-482.82139 -62.47421 -62.47421 -56.29441
  Beta  occ. eigenvalues --  -56.29441 -56.29088 -56.29087 -56.29055 -56.29055
  Beta  occ. eigenvalues --  -19.07548 -19.07548 -10.23371 -10.23370 -10.21814
  Beta  occ. eigenvalues --  -10.21812 -10.18525 -10.18524 -10.17482 -10.17481
  Beta  occ. eigenvalues --  -10.15007 -10.15007 -10.14999 -10.14999  -8.68388
  Beta  occ. eigenvalues --   -8.68387  -6.51470  -6.51470  -6.50299  -6.50299
  Beta  occ. eigenvalues --   -6.50207  -6.50207  -2.62573  -2.62573  -2.62255
  Beta  occ. eigenvalues --   -2.62254  -2.62185  -2.62185  -2.61254  -2.61254
  Beta  occ. eigenvalues --   -2.61254  -2.61254  -0.99990  -0.99665  -0.85076
  Beta  occ. eigenvalues --   -0.82664  -0.78595  -0.78331  -0.76111  -0.70969
  Beta  occ. eigenvalues --   -0.67760  -0.67755  -0.66521  -0.62414  -0.57380
  Beta  occ. eigenvalues --   -0.56347  -0.53424  -0.50966  -0.45972  -0.44651
  Beta  occ. eigenvalues --   -0.43930  -0.42818  -0.42323  -0.41240  -0.40904
  Beta  occ. eigenvalues --   -0.40538  -0.39571  -0.39080  -0.38559  -0.37197
  Beta  occ. eigenvalues --   -0.36312  -0.35396  -0.34573  -0.34546  -0.34218
  Beta  occ. eigenvalues --   -0.33654  -0.33236  -0.33169  -0.31098  -0.30106
  Beta  occ. eigenvalues --   -0.28311  -0.27491  -0.24786  -0.23956  -0.23691
  Beta  occ. eigenvalues --   -0.23461
  Beta virt. eigenvalues --   -0.09636  -0.01613  -0.00992  -0.00229   0.00156
  Beta virt. eigenvalues --    0.00492   0.01821   0.01880   0.02310   0.02449
  Beta virt. eigenvalues --    0.03123   0.03948   0.04286   0.04484   0.04628

 Mulliken charges and spin densities:
               1          2
     1  C   -1.214281   0.088629
     2  C    1.406948   0.107455
     3  C   -0.077223   0.058246
     4  C   -1.214385   0.088624
     5  C    1.406977   0.107452
     6  C   -0.077206   0.058245
     7  O   -0.352482   0.250940
     8  O   -0.352482   0.250941
     9  Br  -0.163928   0.002734
    10  Br  -0.163929   0.002734
    11  C    0.244357  -0.024732
    12  C   -0.716577   0.009540
    13  C   -0.714850   0.009490
    14  C    0.244376  -0.024733
    15  C   -0.714844   0.009491
    16  C   -0.716572   0.009539
    17  H    0.164116  -0.000563
    18  H    0.128109  -0.000068
    19  H    0.184247  -0.001231
    20  H    0.149712   0.000436
    21  H    0.127876  -0.000052
    22  H    0.149628   0.000407
    23  H    0.184363  -0.001228
    24  H    0.164123  -0.000563
    25  H    0.149630   0.000407
    26  H    0.127874  -0.000052
    27  H    0.184360  -0.001228
    28  H    0.149710   0.000435
    29  H    0.184247  -0.001231
    30  H    0.128106  -0.000067
 Sum of Mulliken charges =  -1.00000   1.00000

 Dipole moment (field-independent basis, Debye):
    X=              7.9518    Y=             -3.4474    Z=             -0.7999  Tot=              8.7038
 Quadrupole moment (field-independent basis, Debye-Ang):
   XX=           -143.2730   YY=           -136.2059   ZZ=           -162.0359
   XY=              6.9286   XZ=              2.0631   YZ=             13.2688

  Exact polarizability: 293.106 -47.538 245.134 -17.098 -57.163 357.267
 Approx polarizability: 297.986 -39.062 262.686 -21.776 -70.713 412.980

                      1                      2                      3
                      A                      A                      A
 Frequencies --     37.8510                46.4901                61.0388
 Red. masses --      5.8031                 3.7851                 3.1200
 Frc consts  --      0.0049                 0.0048                 0.0068
 IR Inten    --      0.1314                 7.6702                 0.0000

                      4                      5                      6
                      A                      A                      A
 Frequencies --     64.3931                88.4298               144.2041
 Red. masses --      3.7212                 4.5873                 5.0888
 Frc consts  --      0.0091                 0.0211                 0.0623
 IR Inten    --      1.5634                 0.0000                 4.0676

                      7                      8                      9
                      A                      A                      A
 Frequencies --    152.6167               170.5874               171.2921
 Red. masses --      4.7423                 3.3389                 3.4155
 Frc consts  --      0.0651                 0.0572                 0.0590
 IR Inten    --      0.0000                 4.9017                 4.6830

                     10                     11                     12
                      A                      A                      A
 Frequencies --    191.5209               193.4314               214.5838
 Red. masses --      1.7193                 9.6572                 1.4063
 Frc consts  --      0.0372                 0.2129                 0.0382
 IR Inten    --      0.0000                 0.0000                 0.0000

                     13                     14                     15
                      A                      A                      A
 Frequencies --    215.3620               226.0367               228.2185
 Red. masses --      1.2718                 1.9891                 1.1672
 Frc consts  --      0.0348                 0.0599                 0.0358
 IR Inten    --      3.0740                 0.0005                 2.0456

                     16                     17                     18
                      A                      A                      A
 Frequencies --    242.0180               303.9104               311.4908
 Red. masses --      1.7709                 7.9209                 3.7755
 Frc consts  --      0.0611                 0.4310                 0.2158
 IR Inten    --      0.0000                 0.0000                 1.8055

                     19                     20                     21
                      A                      A                      A
 Frequencies --    312.9396               323.3434               344.2767
 Red. masses --      3.3392                12.4066                10.0751
 Frc consts  --      0.1927                 0.7642                 0.7036
 IR Inten    --      3.2347                 1.3902                 0.0000

                     22                     23                     24
                      A                      A                      A
 Frequencies --    424.2515               454.6624               463.2268
 Red. masses --      2.8465                 5.4857                 2.7536
 Frc consts  --      0.3019                 0.6681                 0.3481
 IR Inten    --      0.0000                67.7216                 3.9908

                     25                     26                     27
                      A                      A                      A
 Frequencies --    475.5794               501.5163               514.4592
 Red. masses --      4.1533                 6.0050                 5.5206
 Frc consts  --      0.5535                 0.8899                 0.8609
 IR Inten    --      0.0000                 0.0000                 0.0000

                     28                     29                     30
                      A                      A                      A
 Frequencies --    607.1097               701.2809               733.9112
 Red. masses --      8.7692                 3.8862                 9.0926
 Frc consts  --      1.9043                 1.1261                 2.8855
 IR Inten    --      1.4904               238.2738                19.4322

                     31                     32                     33
                      A                      A                      A
 Frequencies --    739.2378               769.2358               787.2983
 Red. masses --      5.9974                 9.9758                 7.0547
 Frc consts  --      1.9310                 3.4779                 2.5764
 IR Inten    --      0.0000                 0.0000                 0.0000

                     34                     35                     36
                      A                      A                      A
 Frequencies --    854.7240               872.5271               929.0226
 Red. masses --      4.3370                 2.8898                 1.1463
 Frc consts  --      1.8668                 1.2962                 0.5829
 IR Inten    --    110.2727                 0.0000                 0.3923

                     37                     38                     39
                      A                      A                      A
 Frequencies --    929.0289               944.2280               961.5289
 Red. masses --      1.1464                 3.3804                 1.5500
 Frc consts  --      0.5829                 1.7757                 0.8443
 IR Inten    --      5.1823                76.3584                 0.0024

                     40                     41                     42
                      A                      A                      A
 Frequencies --    961.5446              1011.9570              1039.7232
 Red. masses --      1.5481                 2.5089                 1.9012
 Frc consts  --      0.8433                 1.5138                 1.2109
 IR Inten    --      0.0000                 0.0000               291.6567

                     43                     44                     45
                      A                      A                      A
 Frequencies --   1115.0617              1116.8967              1131.5919
 Red. masses --      2.4563                 2.4632                 7.4967
 Frc consts  --      1.7994                 1.8104                 5.6558
 IR Inten    --      0.0000                 8.7860                74.2949

                     46                     47                     48
                      A                      A                      A
 Frequencies --   1134.4167              1190.5549              1198.5410
 Red. masses --      2.1019                 2.1638                 2.0985
 Frc consts  --      1.5937                 1.8071                 1.7761
 IR Inten    --      0.0000                14.8479                 0.0000

                     49                     50                     51
                      A                      A                      A
 Frequencies --   1237.4752              1338.6446              1351.7567
 Red. masses --      4.2580                 4.0168                 1.2869
 Frc consts  --      3.8417                 4.2409                 1.3854
 IR Inten    --    120.0056                 0.0000                 7.4551

                     52                     53                     54
                      A                      A                      A
 Frequencies --   1351.7782              1371.1050              1378.9883
 Red. masses --      1.2859                 1.3486                 1.2168
 Frc consts  --      1.3844                 1.4938                 1.3633
 IR Inten    --      0.4820                 6.3420                 0.0027

                     55                     56                     57
                      A                      A                      A
 Frequencies --   1379.0709              1384.1942              1394.8059
 Red. masses --      1.2167                 1.5020                 1.2359
 Frc consts  --      1.3634                 1.6956                 1.4166
 IR Inten    --     16.1995                 0.0000                73.1956

                     58                     59                     60
                      A                      A                      A
 Frequencies --   1397.7128              1474.6258              1474.6310
 Red. masses --      1.3001                 1.0513                 1.0415
 Frc consts  --      1.4965                 1.3469                 1.3344
 IR Inten    --      0.0001                 2.9460                 0.0003

                     61                     62                     63
                      A                      A                      A
 Frequencies --   1475.6596              1480.3810              1482.8533
 Red. masses --      3.4318                 1.4572                 1.1057
 Frc consts  --      4.4030                 1.8816                 1.4325
 IR Inten    --    164.5192               237.5842                 0.0000

                     64                     65                     66
                      A                      A                      A
 Frequencies --   1491.1240              1491.1435              1503.3842
 Red. masses --      1.0489                 1.0500                 1.5451
 Frc consts  --      1.3741                 1.3756                 2.0575
 IR Inten    --      0.3471                 5.0566               350.8660

                     67                     68                     69
                      A                      A                      A
 Frequencies --   1506.0449              1513.8778              1515.7956
 Red. masses --      1.0690                 1.9092                 7.3159
 Frc consts  --      1.4285                 2.5779                 9.9037
 IR Inten    --      0.0033               365.5905                 0.0001

                     70                     71                     72
                      A                      A                      A
 Frequencies --   1588.1253              3018.1209              3018.1285
 Red. masses --      8.8096                 1.0376                 1.0376
 Frc consts  --     13.0910                 5.5687                 5.5687
 IR Inten    --      0.0000                 1.0201               140.7381

                     73                     74                     75
                      A                      A                      A
 Frequencies --   3021.5934              3021.9898              3073.1458
 Red. masses --      1.0381                 1.0381                 1.1016
 Frc consts  --      5.5843                 5.5856                 6.1298
 IR Inten    --    153.3283                 0.0003                 0.2621

                     76                     77                     78
                      A                      A                      A
 Frequencies --   3073.1780              3074.4189              3074.4579
 Red. masses --      1.1016                 1.1001                 1.1000
 Frc consts  --      6.1300                 6.1264                 6.1260
 IR Inten    --     75.6676               167.6781                 0.3072

                     79                     80                     81
                      A                      A                      A
 Frequencies --   3078.8670              3079.0218              3117.0940
 Red. masses --      1.0845                 1.0846                 1.0987
 Frc consts  --      6.0573                 6.0583                 6.2899
 IR Inten    --     36.4409                 0.0127                 5.1520

                     82                     83                     84
                      A                      A                      A
 Frequencies --   3117.0993              3121.3732              3121.3820
 Red. masses --      1.0987                 1.0975                 1.0975
 Frc consts  --      6.2900                 6.3002                 6.3003
 IR Inten    --      1.1971                64.2502                32.9221

 - Thermochemistry -
 -------------------
 Temperature   298.150 Kelvin.  Pressure   1.00000 Atm.
 Atom     1 has atomic number  6 and mass  12.00000

 Molecular mass:   347.93605 amu.
 Principal axes and moments of inertia in atomic units:
                           1         2         3
     Eigenvalues --  4321.677667807.34471**********
           X            0.73939  -0.49314   0.45839
           Y           -0.56361  -0.08091   0.82207
           Z            0.36831   0.86618   0.33776
 This molecule is an asymmetric top.
 Rotational symmetry number  1.
 Warning -- assumption of classical behavior for rotation
           may cause significant error
 Rotational temperatures (Kelvin)      0.02004     0.01109     0.00764
 Rotational constants (GHZ):           0.41760     0.23116     0.15920
 Zero-point vibrational energy     605311.6 (Joules/Mol)
                                  144.67295 (Kcal/Mol)
 Warning -- explicit consideration of  28 degrees of freedom as
           vibrations may cause significant error
 Vibrational temperatures:     54.46    66.89    87.82    92.65   127.23
          (Kelvin)            207.48   219.58   245.44   246.45   275.56
                              278.30   308.74   309.86   325.22   328.36
                              348.21   437.26   448.17   450.25   465.22
                              495.34   610.40   654.16   666.48   684.25
                              721.57   740.19   873.50  1008.99  1055.93
                             1063.60  1106.76  1132.75  1229.76  1255.37
                             1336.66  1336.67  1358.53  1383.43  1383.45
                             1455.98  1495.93  1604.33  1606.97  1628.11
                             1632.17  1712.94  1724.43  1780.45  1926.01
                             1944.88  1944.91  1972.71  1984.06  1984.18
                             1991.55  2006.81  2011.00  2121.66  2121.67
                             2123.14  2129.94  2133.50  2145.39  2145.42
                             2163.03  2166.86  2178.13  2180.89  2284.96
                             4342.40  4342.41  4347.40  4347.97  4421.57
                             4421.62  4423.40  4423.46  4429.80  4430.03
                             4484.80  4484.81  4490.96  4490.97

 Zero-point correction=                           0.230551 (Hartree/Particle)
 Thermal correction to Energy=                    0.248517
 Thermal correction to Enthalpy=                  0.249461
 Thermal correction to Gibbs Free Energy=         0.182664
 Sum of electronic and zero-point Energies=          -5764.522250
 Sum of electronic and thermal Energies=             -5764.504284
 Sum of electronic and thermal Enthalpies=           -5764.503340
 Sum of electronic and thermal Free Energies=        -5764.570137

                     E (Thermal)             CV                S
                      KCal/Mol        Cal/Mol-Kelvin    Cal/Mol-Kelvin
 Total                  155.947             64.497            140.587
 Electronic               0.000              0.000              1.377
 Translational            0.889              2.981             43.435
 Rotational               0.889              2.981             34.302
 Vibrational            154.169             58.535             61.472
 Vibration     1          0.594              1.982              5.369
 Vibration     2          0.595              1.979              4.961
 Vibration     3          0.597              1.973              4.423
 Vibration     4          0.597              1.971              4.318
 Vibration     5          0.601              1.957              3.695
 Vibration     6          0.616              1.909              2.747
 Vibration     7          0.619              1.900              2.639
 Vibration     8          0.626              1.879              2.429
 Vibration     9          0.626              1.878              2.421
 Vibration    10          0.634              1.852              2.213
 Vibration    11          0.635              1.849              2.195
 Vibration    12          0.645              1.819              2.004
 Vibration    13          0.645              1.818              1.998
 Vibration    14          0.650              1.801              1.910
 Vibration    15          0.651              1.798              1.893
 Vibration    16          0.658              1.776              1.788
 Vibration    17          0.695              1.666              1.395
 Vibration    18          0.700              1.652              1.354
 Vibration    19          0.701              1.649              1.347
 Vibration    20          0.708              1.629              1.293
 Vibration    21          0.723              1.587              1.192
 Vibration    22          0.786              1.417              0.878
 Vibration    23          0.813              1.351              0.782
 Vibration    24          0.821              1.332              0.757
 Vibration    25          0.832              1.304              0.722
 Vibration    26          0.857              1.247              0.654
 Vibration    27          0.870              1.218              0.623
 Vibration    28          0.966              1.017              0.438

 Optimization completed.
    -- Stationary point found.
 Normal termination of Gaussian 16 at Sat Feb 10 12:49:50 2024.
