 Q-Chem 5.4, Q-Chem, Inc., Pleasanton, CA (2021)
 Q-Chem 5.4.0 for Intel X86 EM64T Linux

User input:
--------------------------------------------------------------
$molecule
0 1
C                  0.8951390000      1.2098250000     -1.3149540000
C                 -0.5375880000      1.2594120000     -1.8144890000
C                 -1.4706450000      0.6087220000     -1.0891260000
C                 -1.1056020000     -0.2513590000      0.0629340000
C                  0.2742060000     -0.1162870000      0.6815510000
C                  1.1752020000      0.6463910000      0.0283350000
O                  1.7919590000      1.6354480000     -2.0151150000
O                 -1.8941930000     -1.0546100000      0.5196350000
S                  2.8888490000      0.8672830000      0.6699530000
C                  3.3217840000      2.5882130000      0.3580810000
C                  4.1610490000      2.8989400000     -0.7079930000
C                  2.8610540000      3.5615000000      1.2430340000
C                  3.2370660000      4.8867110000      1.0362440000
C                  4.5403940000      4.2254400000     -0.8939380000
C                  4.0750270000      5.2160250000     -0.0288820000
O                  3.7711340000      0.0001270000     -0.1108040000
O                  2.7968050000      0.7191410000      2.1271040000
H                  4.5012910000      2.1144310000     -1.3702030000
H                  2.2421790000      3.2834220000      2.0869190000
H                  5.1981040000      4.4846510000     -1.7151970000
H                  2.8889860000      5.6564980000      1.7149650000
H                  4.3714710000      6.2475750000     -0.1816690000
S                 -3.2390990000      0.5798980000     -1.6075060000
C                 -4.2066220000      0.7218300000     -0.0942780000
C                 -4.3860510000      1.9857480000      0.4651880000
C                 -4.8112940000     -0.4129990000      0.4385910000
C                 -5.6111520000     -0.2741700000      1.5695330000
C                 -5.1773440000      2.1074560000      1.6050900000
C                 -5.7881610000      0.9801430000      2.1539160000
H                 -3.9356500000      2.8559820000      0.0044060000
H                 -4.6516410000     -1.3758500000     -0.0274530000
H                 -6.0945090000     -1.1460150000      1.9943740000
H                 -5.3285860000      3.0826050000      2.0529760000
H                 -6.4094590000      1.0804930000      3.0366590000
O                 -3.5002060000     -0.7201770000     -2.2252610000
O                 -3.4595470000      1.8204460000     -2.3599790000
C                 -0.7350940000      2.0251750000     -3.0883170000
C                  0.4710010000     -0.8800000000      1.9567430000
H                  0.2307210000      2.1849970000     -3.5634840000
H                 -1.1900810000      2.9965770000     -2.8748200000
H                 -1.4120580000      1.5117130000     -3.7683180000
H                 -0.3346550000     -1.6027370000      2.0692860000
H                  0.4554050000     -0.1956880000      2.8097520000
H                  1.4365410000     -1.3814720000      1.9830260000
$end
$rem
MAX_SCF_CYCLES=200
BASIS  =  6-311++G(d,p)
GUI  =  2
JOB_TYPE  =  SP
METHOD  =  B3LYP
SOLVENT_METHOD = PCM
$end
$pcm
theory = CPCM
$end
$solvent
dielectric 37.219
opticaldielectric 1.43
$end

--------------------------------------------------------------

             Standard Nuclear Orientation (Angstroms)
    I     Atom           X                Y                Z
 ----------------------------------------------------------------
    1      C       0.8951390000     1.2098250000    -1.3149540000
    2      C      -0.5375880000     1.2594120000    -1.8144890000
    3      C      -1.4706450000     0.6087220000    -1.0891260000
    4      C      -1.1056020000    -0.2513590000     0.0629340000
    5      C       0.2742060000    -0.1162870000     0.6815510000
    6      C       1.1752020000     0.6463910000     0.0283350000
    7      O       1.7919590000     1.6354480000    -2.0151150000
    8      O      -1.8941930000    -1.0546100000     0.5196350000
    9      S       2.8888490000     0.8672830000     0.6699530000
   10      C       3.3217840000     2.5882130000     0.3580810000
   11      C       4.1610490000     2.8989400000    -0.7079930000
   12      C       2.8610540000     3.5615000000     1.2430340000
   13      C       3.2370660000     4.8867110000     1.0362440000
   14      C       4.5403940000     4.2254400000    -0.8939380000
   15      C       4.0750270000     5.2160250000    -0.0288820000
   16      O       3.7711340000     0.0001270000    -0.1108040000
   17      O       2.7968050000     0.7191410000     2.1271040000
   18      H       4.5012910000     2.1144310000    -1.3702030000
   19      H       2.2421790000     3.2834220000     2.0869190000
   20      H       5.1981040000     4.4846510000    -1.7151970000
   21      H       2.8889860000     5.6564980000     1.7149650000
   22      H       4.3714710000     6.2475750000    -0.1816690000
   23      S      -3.2390990000     0.5798980000    -1.6075060000
   24      C      -4.2066220000     0.7218300000    -0.0942780000
   25      C      -4.3860510000     1.9857480000     0.4651880000
   26      C      -4.8112940000    -0.4129990000     0.4385910000
   27      C      -5.6111520000    -0.2741700000     1.5695330000
   28      C      -5.1773440000     2.1074560000     1.6050900000
   29      C      -5.7881610000     0.9801430000     2.1539160000
   30      H      -3.9356500000     2.8559820000     0.0044060000
   31      H      -4.6516410000    -1.3758500000    -0.0274530000
   32      H      -6.0945090000    -1.1460150000     1.9943740000
   33      H      -5.3285860000     3.0826050000     2.0529760000
   34      H      -6.4094590000     1.0804930000     3.0366590000
   35      O      -3.5002060000    -0.7201770000    -2.2252610000
   36      O      -3.4595470000     1.8204460000    -2.3599790000
   37      C      -0.7350940000     2.0251750000    -3.0883170000
   38      C       0.4710010000    -0.8800000000     1.9567430000
   39      H       0.2307210000     2.1849970000    -3.5634840000
   40      H      -1.1900810000     2.9965770000    -2.8748200000
   41      H      -1.4120580000     1.5117130000    -3.7683180000
   42      H      -0.3346550000    -1.6027370000     2.0692860000
   43      H       0.4554050000    -0.1956880000     2.8097520000
   44      H       1.4365410000    -1.3814720000     1.9830260000
 ----------------------------------------------------------------

    9   -2019.7185738595      4.44e-06  Convergence criterion met
 Total energy in the final basis set =    -2019.7185738595

                    Orbital Energies (a.u.)
 --------------------------------------------------------------

 Alpha MOs
 -- Occupied --
-89.0755 -89.0754 -19.1612 -19.1612 -19.1417 -19.1417 -19.1372 -19.1372
-10.3131 -10.3131 -10.2547 -10.2547 -10.2495 -10.2494 -10.2249 -10.2249
-10.2036 -10.2036 -10.2019 -10.2019 -10.1954 -10.1954 -10.1935 -10.1935
-10.1930 -10.1930 -10.1815 -10.1815  -8.1390  -8.1390  -6.1017  -6.1017
 -6.1010  -6.1010  -6.1000  -6.1000  -1.1359  -1.1357  -1.0983  -1.0966
 -1.0322  -1.0322  -0.8950  -0.8869  -0.8866  -0.8488  -0.7946  -0.7939
 -0.7724  -0.7723  -0.7598  -0.7569  -0.7148  -0.6842  -0.6801  -0.6477
 -0.6313  -0.6313  -0.6110  -0.6062  -0.5925  -0.5701  -0.5536  -0.5535
 -0.5290  -0.5216  -0.4991  -0.4962  -0.4914  -0.4907  -0.4867  -0.4840
 -0.4786  -0.4687  -0.4670  -0.4621  -0.4617  -0.4499  -0.4457  -0.4454
 -0.4418  -0.4315  -0.4297  -0.4190  -0.4139  -0.4048  -0.3953  -0.3943
 -0.3874  -0.3873  -0.3688  -0.3687  -0.3651  -0.3637  -0.3552  -0.3541
 -0.3371  -0.3365  -0.3265  -0.3219  -0.3217  -0.3174  -0.3064  -0.2921
 -0.2825  -0.2813  -0.2775  -0.2757

          Ground-State Mulliken Net Atomic Charges

     Atom                 Charge (a.u.)
  ----------------------------------------
      1 C                    -1.001217
      2 C                     0.626132
      3 C                     0.118541
      4 C                    -0.997223
      5 C                     0.617789
      6 C                     0.128968
      7 O                    -0.160051
      8 O                    -0.160063
      9 S                     0.536613
     10 C                     0.161229
     11 C                    -0.214907
     12 C                     0.151328
     13 C                    -0.512742
     14 C                    -0.418137
     15 C                    -0.301659
     16 O                    -0.117419
     17 O                    -0.158653
     18 H                     0.279540
     19 H                     0.271350
     20 H                     0.238241
     21 H                     0.236317
     22 H                     0.217448
     23 S                     0.522958
     24 C                     0.158487
     25 C                     0.152557
     26 C                    -0.210771
     27 C                    -0.417198
     28 C                    -0.513418
     29 C                    -0.300818
     30 H                     0.272249
     31 H                     0.279569
     32 H                     0.238260
     33 H                     0.236247
     34 H                     0.217626
     35 O                    -0.115283
     36 O                    -0.158362
     37 C                    -0.640573
     38 C                    -0.640671
     39 H                     0.207730
     40 H                     0.244696
     41 H                     0.236923
     42 H                     0.207699
     43 H                     0.244092
     44 H                     0.236526
  ----------------------------------------
  Sum of atomic charges =    -0.000049

                    Cartesian Multipole Moments
 -----------------------------------------------------------------
    Charge (ESU x 10^10)
                -0.0002
    Dipole Moment (Debye)
         X      -2.0241      Y       7.0560      Z       4.5549
       Tot       8.6389
    Quadrupole Moments (Debye-Ang)
        XX    -185.9208     XY      11.6879     YY    -146.0009
        XZ     -34.5038     YZ       2.4063     ZZ    -182.1713

 Total job time:  166.19s(wall), 1153.77s(cpu)
        *  Thank you very much for using Q-Chem.  Have a nice day.  *
