 Gaussian 16, Revision A.03,
 Gaussian 16:  ES64L-G16RevA.03 25-Dec-2016

 --------------------------------------
 #P UB3LYP/6-311++G(d,p) nosym opt freq
 --------------------------------------

 --------
 Oxidized
 --------
 Symbolic Z-matrix:
 Charge =  0 Multiplicity = 1

 SCF Done:  E(UB3LYP) =  -2019.68775291     A.U. after   19 cycles
 SCF Done:  E(UB3LYP) =  -2019.68775290     A.U. after   11 cycles
 Optimization completed.
    -- Stationary point found.
 Normal termination of Gaussian 16 at Wed Jan 10 05:39:40 2024.

 ----------------------------------------------------------------------
 #P Geom=AllCheck Guess=TCheck SCRF=Check GenChk UB3LYP/6-311++G(d,p) F
 req
 ----------------------------------------------------------------------

 Structure from the checkpoint file:  "073.chk"
 --------
 Oxidized
 --------
 Charge =  0 Multiplicity = 1

                          Input orientation:
 ---------------------------------------------------------------------
 Center     Atomic      Atomic             Coordinates (Angstroms)
 Number     Number       Type             X           Y           Z
 ---------------------------------------------------------------------
      1          6           0        0.895139    1.209825   -1.314954
      2          6           0       -0.537588    1.259412   -1.814489
      3          6           0       -1.470645    0.608722   -1.089126
      4          6           0       -1.105602   -0.251359    0.062934
      5          6           0        0.274206   -0.116287    0.681551
      6          6           0        1.175202    0.646391    0.028335
      7          8           0        1.791959    1.635448   -2.015115
      8          8           0       -1.894193   -1.054610    0.519635
      9         16           0        2.888849    0.867283    0.669953
     10          6           0        3.321784    2.588213    0.358081
     11          6           0        4.161049    2.898940   -0.707993
     12          6           0        2.861054    3.561500    1.243034
     13          6           0        3.237066    4.886711    1.036244
     14          6           0        4.540394    4.225440   -0.893938
     15          6           0        4.075027    5.216025   -0.028882
     16          8           0        3.771134    0.000127   -0.110804
     17          8           0        2.796805    0.719141    2.127104
     18          1           0        4.501291    2.114431   -1.370203
     19          1           0        2.242179    3.283422    2.086919
     20          1           0        5.198104    4.484651   -1.715197
     21          1           0        2.888986    5.656498    1.714965
     22          1           0        4.371471    6.247575   -0.181669
     23         16           0       -3.239099    0.579898   -1.607506
     24          6           0       -4.206622    0.721830   -0.094278
     25          6           0       -4.386051    1.985748    0.465188
     26          6           0       -4.811294   -0.412999    0.438591
     27          6           0       -5.611152   -0.274170    1.569533
     28          6           0       -5.177344    2.107456    1.605090
     29          6           0       -5.788161    0.980143    2.153916
     30          1           0       -3.935650    2.855982    0.004406
     31          1           0       -4.651641   -1.375850   -0.027453
     32          1           0       -6.094509   -1.146015    1.994374
     33          1           0       -5.328586    3.082605    2.052976
     34          1           0       -6.409459    1.080493    3.036659
     35          8           0       -3.500206   -0.720177   -2.225261
     36          8           0       -3.459547    1.820446   -2.359979
     37          6           0       -0.735094    2.025175   -3.088317
     38          6           0        0.471001   -0.880000    1.956743
     39          1           0        0.230721    2.184997   -3.563484
     40          1           0       -1.190081    2.996577   -2.874820
     41          1           0       -1.412058    1.511713   -3.768318
     42          1           0       -0.334655   -1.602737    2.069286
     43          1           0        0.455405   -0.195688    2.809752
     44          1           0        1.436541   -1.381472    1.983026
 ---------------------------------------------------------------------

 SCF Done:  E(UB3LYP) =  -2019.68775290     A.U. after    2 cycles

 Alpha  occ. eigenvalues --  -89.06974 -89.06974 -19.16408 -19.16407 -19.13159
 Alpha  occ. eigenvalues --  -19.13158 -19.12983 -19.12983 -10.31517 -10.31515
 Alpha  occ. eigenvalues --  -10.25878 -10.25877 -10.25295 -10.25294 -10.22933
 Alpha  occ. eigenvalues --  -10.22932 -10.21286 -10.21284 -10.20857 -10.20855
 Alpha  occ. eigenvalues --  -10.20723 -10.20722 -10.20540 -10.20538 -10.20350
 Alpha  occ. eigenvalues --  -10.20349 -10.18952 -10.18952  -8.13319  -8.13318
 Alpha  occ. eigenvalues --   -6.09555  -6.09555  -6.09524  -6.09524  -6.09442
 Alpha  occ. eigenvalues --   -6.09441  -1.12766  -1.12735  -1.10047  -1.09878
 Alpha  occ. eigenvalues --   -1.02256  -1.02252  -0.89988  -0.89431  -0.89413
 Alpha  occ. eigenvalues --   -0.85354  -0.80009  -0.79959  -0.78153  -0.78149
 Alpha  occ. eigenvalues --   -0.76490  -0.76364  -0.71660  -0.68832  -0.68470
 Alpha  occ. eigenvalues --   -0.65266  -0.64074  -0.64067  -0.61625  -0.61085
 Alpha  occ. eigenvalues --   -0.59723  -0.57399  -0.55866  -0.55788  -0.52781
 Alpha  occ. eigenvalues --   -0.52212  -0.50176  -0.49725  -0.49389  -0.49325
 Alpha  occ. eigenvalues --   -0.49031  -0.48407  -0.48006  -0.47305  -0.47196
 Alpha  occ. eigenvalues --   -0.46298  -0.46142  -0.45610  -0.45584  -0.45537
 Alpha  occ. eigenvalues --   -0.44834  -0.43590  -0.43550  -0.42604  -0.41895
 Alpha  occ. eigenvalues --   -0.41053  -0.40242  -0.40120  -0.39679  -0.39673
 Alpha  occ. eigenvalues --   -0.37974  -0.37972  -0.35666  -0.35388  -0.34786
 Alpha  occ. eigenvalues --   -0.34747  -0.33073  -0.32871  -0.32502  -0.31937
 Alpha  occ. eigenvalues --   -0.31844  -0.31761  -0.30875  -0.29292  -0.28852
 Alpha  occ. eigenvalues --   -0.28801  -0.28519  -0.28114
 Alpha virt. eigenvalues --   -0.15667  -0.07895  -0.06232  -0.05534  -0.04110
 Alpha virt. eigenvalues --   -0.04043  -0.03234  -0.02094  -0.01372  -0.00477
 Alpha virt. eigenvalues --   -0.00025   0.00180   0.00868   0.01649   0.01654

  Beta  occ. eigenvalues --  -89.06974 -89.06974 -19.16408 -19.16407 -19.13159
  Beta  occ. eigenvalues --  -19.13158 -19.12983 -19.12983 -10.31517 -10.31515
  Beta  occ. eigenvalues --  -10.25878 -10.25877 -10.25295 -10.25294 -10.22933
  Beta  occ. eigenvalues --  -10.22932 -10.21286 -10.21284 -10.20857 -10.20855
  Beta  occ. eigenvalues --  -10.20723 -10.20722 -10.20540 -10.20538 -10.20350
  Beta  occ. eigenvalues --  -10.20349 -10.18952 -10.18952  -8.13319  -8.13318
  Beta  occ. eigenvalues --   -6.09555  -6.09555  -6.09524  -6.09524  -6.09442
  Beta  occ. eigenvalues --   -6.09441  -1.12766  -1.12735  -1.10047  -1.09878
  Beta  occ. eigenvalues --   -1.02256  -1.02252  -0.89988  -0.89431  -0.89413
  Beta  occ. eigenvalues --   -0.85354  -0.80009  -0.79959  -0.78153  -0.78149
  Beta  occ. eigenvalues --   -0.76490  -0.76364  -0.71660  -0.68832  -0.68470
  Beta  occ. eigenvalues --   -0.65266  -0.64074  -0.64067  -0.61625  -0.61085
  Beta  occ. eigenvalues --   -0.59723  -0.57399  -0.55866  -0.55788  -0.52781
  Beta  occ. eigenvalues --   -0.52212  -0.50176  -0.49725  -0.49389  -0.49325
  Beta  occ. eigenvalues --   -0.49031  -0.48407  -0.48006  -0.47305  -0.47196
  Beta  occ. eigenvalues --   -0.46298  -0.46142  -0.45610  -0.45584  -0.45537
  Beta  occ. eigenvalues --   -0.44834  -0.43590  -0.43550  -0.42604  -0.41895
  Beta  occ. eigenvalues --   -0.41053  -0.40242  -0.40120  -0.39679  -0.39673
  Beta  occ. eigenvalues --   -0.37974  -0.37972  -0.35666  -0.35388  -0.34786
  Beta  occ. eigenvalues --   -0.34747  -0.33073  -0.32871  -0.32502  -0.31937
  Beta  occ. eigenvalues --   -0.31844  -0.31761  -0.30875  -0.29292  -0.28852
  Beta  occ. eigenvalues --   -0.28801  -0.28519  -0.28114
  Beta virt. eigenvalues --   -0.15667  -0.07895  -0.06232  -0.05534  -0.04110
  Beta virt. eigenvalues --   -0.04043  -0.03234  -0.02094  -0.01372  -0.00477
  Beta virt. eigenvalues --   -0.00025   0.00180   0.00868   0.01649   0.01654

 Mulliken charges and spin densities:
               1          2
     1  C   -0.957906   0.000000
     2  C    0.570338  -0.000000
     3  C   -0.023770   0.000000
     4  C   -0.958738   0.000000
     5  C    0.570406  -0.000000
     6  C   -0.025013   0.000000
     7  O   -0.111077  -0.000000
     8  O   -0.110899  -0.000000
     9  S    0.456606  -0.000000
    10  C    0.153154   0.000000
    11  C   -0.236834   0.000000
    12  C    0.195018  -0.000000
    13  C   -0.486911   0.000000
    14  C   -0.374025  -0.000000
    15  C   -0.239598  -0.000000
    16  O   -0.014242  -0.000000
    17  O   -0.059876  -0.000000
    18  H    0.270911   0.000000
    19  H    0.240743  -0.000000
    20  H    0.195371   0.000000
    21  H    0.189064   0.000000
    22  H    0.173383   0.000000
    23  S    0.457840  -0.000000
    24  C    0.152352  -0.000000
    25  C    0.194992   0.000000
    26  C   -0.236932  -0.000000
    27  C   -0.373760   0.000000
    28  C   -0.486846  -0.000000
    29  C   -0.239662   0.000000
    30  H    0.240832   0.000000
    31  H    0.270792  -0.000000
    32  H    0.195373   0.000000
    33  H    0.189080   0.000000
    34  H    0.173375  -0.000000
    35  O   -0.014061  -0.000000
    36  O   -0.059932  -0.000000
    37  C   -0.596562   0.000000
    38  C   -0.596460   0.000000
    39  H    0.203414  -0.000000
    40  H    0.221507  -0.000000
    41  H    0.231917  -0.000000
    42  H    0.203463  -0.000000
    43  H    0.221453   0.000000
    44  H    0.231722  -0.000000
 Sum of Mulliken charges =  -0.00000   0.00000

 Dipole moment (field-independent basis, Debye):
    X=             -1.4306    Y=              4.9803    Z=              3.2131  Tot=              6.0971
 Quadrupole moment (field-independent basis, Debye-Ang):
   XX=           -182.2706   YY=           -154.3255   ZZ=           -181.5344
   XY=             10.6234   XZ=            -27.5085   YZ=              1.2528

  Exact polarizability: 329.864  53.779 282.363 -49.134 -21.799 264.917
 Approx polarizability: 464.003  82.597 496.521-118.916 -45.447 461.323

                      1                      2                      3
                      A                      A                      A
 Frequencies --     11.5435                18.7840                26.6561
 Red. masses --      6.2321                 6.4137                 4.9905
 Frc consts  --      0.0005                 0.0013                 0.0021
 IR Inten    --      0.7734                 0.2381                 0.7381

                      4                      5                      6
                      A                      A                      A
 Frequencies --     35.4266                46.9501                50.5045
 Red. masses --      5.3103                 4.2864                 3.8241
 Frc consts  --      0.0039                 0.0056                 0.0057
 IR Inten    --      0.6548                 0.2233                 0.2489

                      7                      8                      9
                      A                      A                      A
 Frequencies --     59.0199                82.9887                90.8905
 Red. masses --      3.9832                 6.0698                 4.1654
 Frc consts  --      0.0082                 0.0246                 0.0203
 IR Inten    --      3.5978                 3.3143                 0.1735

                     10                     11                     12
                      A                      A                      A
 Frequencies --    106.6832               108.3046               130.4868
 Red. masses --      1.1378                 1.1778                 7.7835
 Frc consts  --      0.0076                 0.0081                 0.0781
 IR Inten    --      0.8411                 1.4000                 2.1648

                     13                     14                     15
                      A                      A                      A
 Frequencies --    158.3201               168.5772               176.6799
 Red. masses --      7.1066                 8.6496                 6.4636
 Frc consts  --      0.1050                 0.1448                 0.1189
 IR Inten    --      2.0948                 1.0291                 2.9137

                     16                     17                     18
                      A                      A                      A
 Frequencies --    180.1884               191.5387               213.3899
 Red. masses --      6.3296                 7.7109                 6.0335
 Frc consts  --      0.1211                 0.1667                 0.1619
 IR Inten    --      1.6078                 4.8270                 1.6580

                     19                     20                     21
                      A                      A                      A
 Frequencies --    230.1583               234.6873               275.1727
 Red. masses --      7.1088                 5.9238                 9.2276
 Frc consts  --      0.2219                 0.1922                 0.4117
 IR Inten    --      0.1191                 0.0700                 0.0063

                     22                     23                     24
                      A                      A                      A
 Frequencies --    286.7259               307.6334               309.7616
 Red. masses --      8.4387                 8.6134                 8.6038
 Frc consts  --      0.4088                 0.4803                 0.4864
 IR Inten    --      0.1350                 2.0745                 2.8453

                     25                     26                     27
                      A                      A                      A
 Frequencies --    343.8933               373.8361               381.3177
 Red. masses --      6.0628                 3.9592                 4.7214
 Frc consts  --      0.4224                 0.3260                 0.4045
 IR Inten    --      1.5492                 1.4948                 0.7139

                     28                     29                     30
                      A                      A                      A
 Frequencies --    400.1190               401.9050               412.2706
 Red. masses --      4.4118                 5.1475                 2.8927
 Frc consts  --      0.4161                 0.4899                 0.2897
 IR Inten    --     12.5751                 0.6859                 0.3003

                     31                     32                     33
                      A                      A                      A
 Frequencies --    412.7348               416.0749               430.9285
 Red. masses --      2.9483                 6.4220                 8.2059
 Frc consts  --      0.2959                 0.6550                 0.8978
 IR Inten    --      0.1209                 0.2702                40.7806

                     34                     35                     36
                      A                      A                      A
 Frequencies --    457.7532               464.0356               487.7677
 Red. masses --      5.0631                 5.4991                 7.7907
 Frc consts  --      0.6251                 0.6977                 1.0921
 IR Inten    --      0.4325                25.5507                14.3585

                     37                     38                     39
                      A                      A                      A
 Frequencies --    494.7912               517.3522               544.6246
 Red. masses --      8.6353                 8.7739                10.4650
 Frc consts  --      1.2456                 1.3836                 1.8289
 IR Inten    --     14.5059                 6.4698                53.9567

                     40                     41                     42
                      A                      A                      A
 Frequencies --    587.9311               596.3808               596.4490
 Red. masses --      6.7611                 6.3806                 9.2186
 Frc consts  --      1.3770                 1.3371                 1.9322
 IR Inten    --      2.1073                39.6421               403.0495

                     43                     44                     45
                      A                      A                      A
 Frequencies --    626.7938               626.8344               700.0604
 Red. masses --      6.4440                 6.4428                 5.3818
 Frc consts  --      1.4916                 1.4915                 1.5540
 IR Inten    --      0.1075                 0.0197                 0.0075

                     46                     47                     48
                      A                      A                      A
 Frequencies --    702.9101               703.2574               714.6973
 Red. masses --      1.9875                 1.9903                 7.1898
 Frc consts  --      0.5786                 0.5800                 2.1638
 IR Inten    --     91.3003                 1.2211                55.5585

                     49                     50                     51
                      A                      A                      A
 Frequencies --    724.7720               737.9065               754.1635
 Red. masses --      5.8970                 7.0327                 3.0243
 Frc consts  --      1.8251                 2.2562                 1.0135
 IR Inten    --      0.4679                56.7262                43.5032

                     52                     53                     54
                      A                      A                      A
 Frequencies --    764.7550               771.5279               801.1511
 Red. masses --      1.7225                 2.3016                 8.5610
 Frc consts  --      0.5936                 0.8072                 3.2374
 IR Inten    --      1.9059                25.8590                10.7453

                     55                     56                     57
                      A                      A                      A
 Frequencies --    802.2805               853.7181               854.0760
 Red. masses --      5.8925                 1.2449                 1.2446
 Frc consts  --      2.2346                 0.5346                 0.5349
 IR Inten    --     13.9581                 0.3429                 0.0024

                     58                     59                     60
                      A                      A                      A
 Frequencies --    891.2094               944.1829               944.2782
 Red. masses --      3.3187                 1.3511                 1.3513
 Frc consts  --      1.5530                 0.7096                 0.7099
 IR Inten    --     60.7715                 0.7402                 0.8599

                     61                     62                     63
                      A                      A                      A
 Frequencies --    993.2350               993.2537              1013.1110
 Red. masses --      1.3874                 1.3868                 1.3234
 Frc consts  --      0.8064                 0.8061                 0.8003
 IR Inten    --      0.4792                 0.0672                 0.1343

                     64                     65                     66
                      A                      A                      A
 Frequencies --   1013.1393              1014.5787              1014.7154
 Red. masses --      1.3226                 5.9742                 5.9539
 Frc consts  --      0.7999                 3.6233                 3.6119
 IR Inten    --      0.0459                 6.5514                 2.2763

                     67                     68                     69
                      A                      A                      A
 Frequencies --   1033.6471              1037.1941              1038.9888
 Red. masses --      1.6198                 1.9302                 3.6569
 Frc consts  --      1.0197                 1.2234                 2.3259
 IR Inten    --      4.0498                 3.4188                18.9525

                     70                     71                     72
                      A                      A                      A
 Frequencies --   1040.4748              1057.9028              1061.4471
 Red. masses --      2.9017                 2.6972                 1.9913
 Frc consts  --      1.8508                 1.7785                 1.3219
 IR Inten    --      2.4088                52.0273                 0.0064

                     73                     74                     75
                      A                      A                      A
 Frequencies --   1069.1523              1072.4697              1081.6251
 Red. masses --      3.3198                 2.7725                 3.2652
 Frc consts  --      2.2358                 1.8789                 2.2507
 IR Inten    --      3.1794                89.1745                 0.0542

                     76                     77                     78
                      A                      A                      A
 Frequencies --   1101.1374              1101.2127              1112.3825
 Red. masses --      1.5657                 1.5664                 4.9080
 Frc consts  --      1.1185                 1.1192                 3.5782
 IR Inten    --      6.8365                 6.7716               133.7657

                     79                     80                     81
                      A                      A                      A
 Frequencies --   1115.2137              1185.4870              1185.5102
 Red. masses --      5.5394                 1.1215                 1.1215
 Frc consts  --      4.0591                 0.9287                 0.9286
 IR Inten    --     90.9300                 0.3599                 0.3467

                     82                     83                     84
                      A                      A                      A
 Frequencies --   1198.6578              1199.8404              1200.1801
 Red. masses --      3.8822                 1.1862                 1.1538
 Frc consts  --      3.2864                 1.0061                 0.9792
 IR Inten    --    153.3365                15.6775                 0.9162

                     85                     86                     87
                      A                      A                      A
 Frequencies --   1235.4498              1273.3419              1279.2345
 Red. masses --     10.0498                11.1584                16.7937
 Frc consts  --      9.0377                10.6596                16.1918
 IR Inten    --    219.7913               174.4110               101.5439

                     88                     89                     90
                      A                      A                      A
 Frequencies --   1289.3660              1333.2110              1333.2670
 Red. masses --      7.8809                 2.4144                 2.4071
 Frc consts  --      7.7193                 2.5284                 2.5210
 IR Inten    --     40.0986                 0.0155                 0.0328

                     91                     92                     93
                      A                      A                      A
 Frequencies --   1346.4055              1346.4496              1406.3974
 Red. masses --      2.0680                 2.0717                 1.1738
 Frc consts  --      2.2088                 2.2128                 1.3679
 IR Inten    --      3.8803                 1.6061                36.3042

                     94                     95                     96
                      A                      A                      A
 Frequencies --   1406.6658              1464.6940              1466.2637
 Red. masses --      1.1727                 1.0762                 1.0903
 Frc consts  --      1.3672                 1.3603                 1.3811
 IR Inten    --      2.4378                53.0750                 1.1178

                     97                     98                     99
                      A                      A                      A
 Frequencies --   1476.9299              1476.9628              1486.7444
 Red. masses --      2.1433                 2.1414                 1.0613
 Frc consts  --      2.7546                 2.7522                 1.3822
 IR Inten    --     11.0925                19.7870                17.7411

                    100                    101                    102
                      A                      A                      A
 Frequencies --   1487.0537              1506.7231              1506.7315
 Red. masses --      1.0599                 2.0245                 2.0244
 Frc consts  --      1.3810                 2.7079                 2.7079
 IR Inten    --      8.5011                 3.1098                 3.4585

                    103                    104                    105
                      A                      A                      A
 Frequencies --   1621.4700              1621.4973              1625.2388
 Red. masses --      5.3445                 5.3309                 8.4577
 Frc consts  --      8.2790                 8.2582                13.1625
 IR Inten    --      0.4704                 2.3364                78.5930

                    106                    107                    108
                      A                      A                      A
 Frequencies --   1625.9660              1626.1194              1654.5857
 Red. masses --      5.8067                 6.1789                 9.7884
 Frc consts  --      9.0450                 9.6264                15.7885
 IR Inten    --      0.1704                12.5946                 0.4498

                    109                    110                    111
                      A                      A                      A
 Frequencies --   1722.5979              1726.8934              3051.1841
 Red. masses --     12.8722                12.8773                 1.0434
 Frc consts  --     22.5046                22.6259                 5.7230
 IR Inten    --      8.1957               367.5968                 0.1098

                    112                    113                    114
                      A                      A                      A
 Frequencies --   3051.3362              3117.3243              3117.4574
 Red. masses --      1.0433                 1.0887                 1.0887
 Frc consts  --      5.7231                 6.2335                 6.2341
 IR Inten    --      0.0914                 4.9934                 2.1860

                    115                    116                    117
                      A                      A                      A
 Frequencies --   3156.6838              3156.8197              3170.1387
 Red. masses --      1.1044                 1.1044                 1.0864
 Frc consts  --      6.4837                 6.4844                 6.4328
 IR Inten    --      5.1335                 1.6076                 0.6773

                    118                    119                    120
                      A                      A                      A
 Frequencies --   3170.1420              3182.0808              3182.1036
 Red. masses --      1.0864                 1.0898                 1.0898
 Frc consts  --      6.4328                 6.5018                 6.5019
 IR Inten    --      0.2854                 6.3021                10.6531

                    121                    122                    123
                      A                      A                      A
 Frequencies --   3191.0696              3191.1027              3201.2180
 Red. masses --      1.0944                 1.0944                 1.0949
 Frc consts  --      6.5657                 6.5659                 6.6110
 IR Inten    --     16.8468                 4.4297                 4.0825

                    124                    125                    126
                      A                      A                      A
 Frequencies --   3201.3034              3217.3980              3217.5285
 Red. masses --      1.0949                 1.0936                 1.0936
 Frc consts  --      6.6113                 6.6699                 6.6704
 IR Inten    --      4.7677                 3.2984                 3.2199

 - Thermochemistry -
 -------------------
 Temperature   298.150 Kelvin.  Pressure   1.00000 Atm.
 Atom     1 has atomic number  6 and mass  12.00000

 Molecular mass:   416.03883 amu.
 Principal axes and moments of inertia in atomic units:
                           1         2         3
     Eigenvalues --  6022.90359********************
           X            0.96483   0.11924  -0.23427
           Y            0.26188  -0.51324   0.81732
           Z            0.02278   0.84992   0.52642
 This molecule is an asymmetric top.
 Rotational symmetry number  1.
 Warning -- assumption of classical behavior for rotation
           may cause significant error
 Rotational temperatures (Kelvin)      0.01438     0.00435     0.00420
 Rotational constants (GHZ):           0.29965     0.09064     0.08748
 Zero-point vibrational energy     840948.0 (Joules/Mol)
                                  200.99139 (Kcal/Mol)
 Warning -- explicit consideration of  42 degrees of freedom as
           vibrations may cause significant error
 Vibrational temperatures:     16.61    27.03    38.35    50.97    67.55
          (Kelvin)             72.66    84.92   119.40   130.77   153.49
                              155.83   187.74   227.79   242.54   254.20
                              259.25   275.58   307.02   331.15   337.66
                              395.91   412.53   442.62   445.68   494.79
                              537.87   548.63   575.68   578.25   593.17
                              593.83   598.64   620.01   658.60   667.64
                              701.79   711.89   744.35   783.59   845.90
                              858.06   858.16   901.82   901.87  1007.23
                             1011.33  1011.83  1028.29  1042.79  1061.68
                             1085.07  1100.31  1110.06  1152.68  1154.30
                             1228.31  1228.82  1282.25  1358.47  1358.61
                             1429.04  1429.07  1457.64  1457.68  1459.75
                             1459.95  1487.19  1492.29  1494.87  1497.01
                             1522.09  1527.19  1538.27  1543.04  1556.22
                             1584.29  1584.40  1600.47  1604.54  1705.65
                             1705.68  1724.60  1726.30  1726.79  1777.54
                             1832.05  1840.53  1855.11  1918.19  1918.27
                             1937.18  1937.24  2023.49  2023.88  2107.37
                             2109.63  2124.97  2125.02  2139.09  2139.54
                             2167.84  2167.85  2332.93  2332.97  2338.36
                             2339.40  2339.62  2380.58  2478.43  2484.61
                             4389.97  4390.19  4485.13  4485.33  4541.76
                             4541.96  4561.12  4561.13  4578.30  4578.34
                             4591.24  4591.28  4605.84  4605.96  4629.12
                             4629.31

 Zero-point correction=                           0.320300 (Hartree/Particle)
 Thermal correction to Energy=                    0.346262
 Thermal correction to Enthalpy=                  0.347207
 Thermal correction to Gibbs Free Energy=         0.260919
 Sum of electronic and zero-point Energies=          -2019.367453
 Sum of electronic and thermal Energies=             -2019.341491
 Sum of electronic and thermal Enthalpies=           -2019.340546
 Sum of electronic and thermal Free Energies=        -2019.426834

                     E (Thermal)             CV                S
                      KCal/Mol        Cal/Mol-Kelvin    Cal/Mol-Kelvin
 Total                  217.283             97.402            181.607
 Electronic               0.000              0.000              0.000
 Translational            0.889              2.981             43.967
 Rotational               0.889              2.981             36.157
 Vibrational            215.505             91.441            101.482
 Vibration     1          0.593              1.987              7.726
 Vibration     2          0.593              1.986              6.759
 Vibration     3          0.593              1.984              6.064
 Vibration     4          0.594              1.982              5.500
 Vibration     5          0.595              1.979              4.942
 Vibration     6          0.595              1.977              4.798
 Vibration     7          0.596              1.974              4.490
 Vibration     8          0.600              1.961              3.819
 Vibration     9          0.602              1.956              3.641
 Vibration    10          0.606              1.944              3.328
 Vibration    11          0.606              1.943              3.299
 Vibration    12          0.612              1.923              2.939
 Vibration    13          0.621              1.893              2.570
 Vibration    14          0.625              1.881              2.451
 Vibration    15          0.628              1.871              2.363
 Vibration    16          0.629              1.867              2.326
 Vibration    17          0.634              1.852              2.213
 Vibration    18          0.644              1.821              2.014
 Vibration    19          0.652              1.795              1.878
 Vibration    20          0.654              1.788              1.843
 Vibration    21          0.677              1.719              1.563
 Vibration    22          0.684              1.698              1.493
 Vibration    23          0.697              1.659              1.375
 Vibration    24          0.699              1.655              1.364
 Vibration    25          0.723              1.588              1.194
 Vibration    26          0.745              1.526              1.064
 Vibration    27          0.751              1.510              1.034
 Vibration    28          0.766              1.470              0.962
 Vibration    29          0.768              1.466              0.956
 Vibration    30          0.776              1.444              0.919
 Vibration    31          0.777              1.443              0.917
 Vibration    32          0.779              1.435              0.905
 Vibration    33          0.792              1.403              0.856
 Vibration    34          0.816              1.344              0.773
 Vibration    35          0.822              1.330              0.754
 Vibration    36          0.844              1.277              0.689
 Vibration    37          0.850              1.262              0.671
 Vibration    38          0.872              1.212              0.616
 Vibration    39          0.900              1.151              0.555
 Vibration    40          0.945              1.058              0.471
 Vibration    41          0.954              1.039              0.456
 Vibration    42          0.954              1.039              0.456

                           ! Non-Optimized Parameters !
 Normal termination of Gaussian 16 at Wed Jan 10 12:53:03 2024.
