 Q-Chem 5.4, Q-Chem, Inc., Pleasanton, CA (2021)
 Q-Chem 5.4.0 for Intel X86 EM64T Linux

User input:
--------------------------------------------------------------
$molecule
-2 1
C                 -1.2202220000      1.9887820000     -0.4394690000
C                 -2.4643770000      1.2617270000     -0.4350260000
C                 -2.6687270000     -0.0575580000     -0.0144880000
C                 -1.5606300000     -0.8476530000      0.4840380000
C                 -0.3133040000     -0.1544020000      0.4992370000
C                 -0.1764500000      1.1605100000      0.0632520000
Br                 1.6379230000      1.9547500000      0.1511580000
C                 -4.0695280000     -0.7030400000     -0.0579100000
C                 -5.1642390000      0.2370260000     -0.5985900000
C                 -4.4792790000     -1.1388370000      1.3705710000
C                 -4.0295670000     -1.9533540000     -0.9726250000
O                 -1.1149380000      3.2071010000     -0.8431360000
O                 -1.6660690000     -2.0835280000      0.8911400000
H                 -3.2968610000      1.8510450000     -0.8085310000
H                  0.5486450000     -0.7025300000      0.8641480000
H                 -5.2694140000      1.1341670000      0.0194900000
H                 -6.1298100000     -0.2876200000     -0.6039900000
H                 -4.9494470000      0.5609460000     -1.6222320000
H                 -4.5836970000     -0.2587020000      2.0164490000
H                 -3.6995340000     -1.7884250000      1.7763880000
H                 -5.4412840000     -1.6743630000      1.3603980000
H                 -3.8002040000     -1.6573370000     -2.0028330000
H                 -5.0028430000     -2.4719420000     -0.9738620000
H                 -3.2493850000     -2.6284100000     -0.6140660000
$end
$rem
MAX_SCF_CYCLES=200
BASIS  =  6-311++G(d,p)
GUI  =  2
JOB_TYPE  =  SP
METHOD  =  B3LYP
SOLVENT_METHOD = PCM
$end
$pcm
theory = CPCM
$end
$solvent
dielectric 37.219
opticaldielectric 1.43
$end

--------------------------------------------------------------

             Standard Nuclear Orientation (Angstroms)
    I     Atom           X                Y                Z
 ----------------------------------------------------------------
    1      C      -1.2202220000     1.9887820000    -0.4394690000
    2      C      -2.4643770000     1.2617270000    -0.4350260000
    3      C      -2.6687270000    -0.0575580000    -0.0144880000
    4      C      -1.5606300000    -0.8476530000     0.4840380000
    5      C      -0.3133040000    -0.1544020000     0.4992370000
    6      C      -0.1764500000     1.1605100000     0.0632520000
    7      Br      1.6379230000     1.9547500000     0.1511580000
    8      C      -4.0695280000    -0.7030400000    -0.0579100000
    9      C      -5.1642390000     0.2370260000    -0.5985900000
   10      C      -4.4792790000    -1.1388370000     1.3705710000
   11      C      -4.0295670000    -1.9533540000    -0.9726250000
   12      O      -1.1149380000     3.2071010000    -0.8431360000
   13      O      -1.6660690000    -2.0835280000     0.8911400000
   14      H      -3.2968610000     1.8510450000    -0.8085310000
   15      H       0.5486450000    -0.7025300000     0.8641480000
   16      H      -5.2694140000     1.1341670000     0.0194900000
   17      H      -6.1298100000    -0.2876200000    -0.6039900000
   18      H      -4.9494470000     0.5609460000    -1.6222320000
   19      H      -4.5836970000    -0.2587020000     2.0164490000
   20      H      -3.6995340000    -1.7884250000     1.7763880000
   21      H      -5.4412840000    -1.6743630000     1.3603980000
   22      H      -3.8002040000    -1.6573370000    -2.0028330000
   23      H      -5.0028430000    -2.4719420000    -0.9738620000
   24      H      -3.2493850000    -2.6284100000    -0.6140660000
 ----------------------------------------------------------------

    9   -3112.6750433600      4.84e-06  Convergence criterion met
 Total energy in the final basis set =    -3112.6750433600

                    Orbital Energies (a.u.)
 --------------------------------------------------------------

 Alpha MOs
 -- Occupied --
******** -62.4542 -56.2742 -56.2711 -56.2709 -19.0235 -19.0145 -10.1808
-10.1781 -10.1733 -10.1633 -10.1389 -10.1355 -10.1322 -10.1320 -10.1292
-10.1264  -8.6627  -6.4926  -6.4822  -6.4818  -2.6039  -2.6009  -2.6005
 -2.5923  -2.5922  -0.9399  -0.9267  -0.8067  -0.7903  -0.7476  -0.6850
 -0.6656  -0.6605  -0.6488  -0.5685  -0.5418  -0.4958  -0.4467  -0.4419
 -0.4161  -0.4093  -0.4050  -0.3971  -0.3810  -0.3665  -0.3581  -0.3576
 -0.3460  -0.3378  -0.3262  -0.3140  -0.3062  -0.3053  -0.2996  -0.2883
 -0.2695  -0.2272  -0.2096  -0.2049  -0.1925  -0.1242

          Ground-State Mulliken Net Atomic Charges

     Atom                 Charge (a.u.)
  ----------------------------------------
      1 C                    -0.724561
      2 C                    -0.461264
      3 C                     0.830785
      4 C                    -0.624426
      5 C                    -0.498118
      6 C                     0.781434
      7 Br                   -0.317043
      8 C                     0.694810
      9 C                    -0.537212
     10 C                    -0.688020
     11 C                    -0.689206
     12 O                    -0.704199
     13 O                    -0.695316
     14 H                     0.162877
     15 H                     0.174331
     16 H                     0.130904
     17 H                     0.167207
     18 H                     0.129963
     19 H                     0.124097
     20 H                     0.171232
     21 H                     0.137732
     22 H                     0.124705
     23 H                     0.138317
     24 H                     0.170969
  ----------------------------------------
  Sum of atomic charges =    -2.000000

                    Cartesian Multipole Moments
 -----------------------------------------------------------------
    Charge (ESU x 10^10)
                -9.6064
    Dipole Moment (Debye)
         X       9.8031      Y      -7.1596      Z      -0.3433
       Tot      12.1440
    Quadrupole Moments (Debye-Ang)
        XX    -124.6766     XY      -4.0822     YY    -163.0094
        XZ       1.8619     YZ      16.6993     ZZ    -108.1020

 Total job time:  32.75s(wall), 245.41s(cpu)
        *  Thank you very much for using Q-Chem.  Have a nice day.  *
