 Gaussian 16, Revision A.03,
 Gaussian 16:  ES64L-G16RevA.03 25-Dec-2016

 ----------------------------------------------------------------
 #P UB3LYP/6-311++G(d,p) SCRF=(PCM,Solvent=n,n-DiMethylFormamide)
 ----------------------------------------------------------------

 ------------------
 Quinone PCM in DMF
 ------------------
 Symbolic Z-matrix:
 Charge =  0 Multiplicity = 1

                         Standard orientation:
 ---------------------------------------------------------------------
 Center     Atomic      Atomic             Coordinates (Angstroms)
 Number     Number       Type             X           Y           Z
 ---------------------------------------------------------------------
      1          7           0        2.233262    2.780790    0.044942
      2          6           0        2.164908    1.420697    0.008410
      3          6           0        3.371154    0.681983   -0.011586
      4          6           0        3.364448   -0.688460   -0.021376
      5          6           0        2.161479   -1.419744   -0.009352
      6          8           0        2.206242   -2.778378   -0.014661
      7          6           0        0.940138   -0.733627    0.005338
      8          6           0       -0.343870   -1.493499    0.015287
      9          8           0       -0.388728   -2.712790    0.030431
     10          6           0       -1.614199   -0.708092    0.005400
     11          6           0       -2.832989   -1.395914    0.004524
     12          6           0       -4.030438   -0.693326   -0.006218
     13          6           0       -4.022968    0.705761   -0.015439
     14          6           0       -2.818139    1.394973   -0.013876
     15          6           0       -1.606747    0.691752   -0.003525
     16          6           0       -0.329340    1.449538    0.001258
     17          8           0       -0.366427    2.686573   -0.004967
     18          6           0        0.938120    0.701831    0.009798
     19          1           0        3.121935    3.235163   -0.076186
     20          1           0        1.367487    3.302086   -0.017394
     21          1           0        4.314980    1.217100   -0.014848
     22          1           0        4.307467   -1.228235   -0.036294
     23          1           0        3.127896   -3.059377   -0.029453
     24          1           0       -2.812184   -2.478434    0.011945
     25          1           0       -4.972476   -1.230163   -0.007334
     26          1           0       -4.959023    1.252840   -0.023515
     27          1           0       -2.786960    2.477021   -0.019796
 ---------------------------------------------------------------------

 SCF Done:  E(UB3LYP) =  -819.589956010     A.U. after   16 cycles

 The electronic state is 1-A.
 Alpha  occ. eigenvalues --  -19.17037 -19.12143 -19.11789 -14.33332 -10.27532
 Alpha  occ. eigenvalues --  -10.27479 -10.26096 -10.24635 -10.20657 -10.20336
 Alpha  occ. eigenvalues --  -10.20283 -10.20260 -10.20186 -10.19996 -10.19500
 Alpha  occ. eigenvalues --  -10.19448 -10.19294 -10.19275  -1.08641  -1.05612
 Alpha  occ. eigenvalues --   -1.05400  -0.94359  -0.88641  -0.86532  -0.81028
 Alpha  occ. eigenvalues --   -0.77419  -0.77116  -0.75433  -0.68743  -0.66928
 Alpha  occ. eigenvalues --   -0.65337  -0.61950  -0.59368  -0.57933  -0.57202
 Alpha  occ. eigenvalues --   -0.54143  -0.52518  -0.50509  -0.49221  -0.48273
 Alpha  occ. eigenvalues --   -0.47614  -0.46085  -0.45832  -0.44828  -0.44494
 Alpha  occ. eigenvalues --   -0.44078  -0.42545  -0.41933  -0.41414  -0.40605
 Alpha  occ. eigenvalues --   -0.38619  -0.38561  -0.37528  -0.37054  -0.36497
 Alpha  occ. eigenvalues --   -0.31285  -0.28765  -0.27928  -0.27514  -0.27474
 Alpha  occ. eigenvalues --   -0.26468  -0.21663
 Alpha virt. eigenvalues --   -0.11126  -0.06353  -0.03679  -0.01071  -0.00757
 Alpha virt. eigenvalues --   -0.00059   0.00332   0.01651   0.01785   0.03001
 Alpha virt. eigenvalues --    0.03489   0.03865   0.04175   0.04295   0.04612

  Beta  occ. eigenvalues --  -19.17037 -19.12143 -19.11789 -14.33332 -10.27532
  Beta  occ. eigenvalues --  -10.27479 -10.26096 -10.24635 -10.20657 -10.20336
  Beta  occ. eigenvalues --  -10.20283 -10.20260 -10.20186 -10.19996 -10.19500
  Beta  occ. eigenvalues --  -10.19448 -10.19294 -10.19275  -1.08641  -1.05612
  Beta  occ. eigenvalues --   -1.05400  -0.94359  -0.88641  -0.86532  -0.81028
  Beta  occ. eigenvalues --   -0.77419  -0.77116  -0.75433  -0.68743  -0.66928
  Beta  occ. eigenvalues --   -0.65337  -0.61950  -0.59368  -0.57933  -0.57202
  Beta  occ. eigenvalues --   -0.54143  -0.52518  -0.50509  -0.49221  -0.48273
  Beta  occ. eigenvalues --   -0.47614  -0.46085  -0.45832  -0.44828  -0.44494
  Beta  occ. eigenvalues --   -0.44078  -0.42545  -0.41933  -0.41414  -0.40605
  Beta  occ. eigenvalues --   -0.38619  -0.38561  -0.37528  -0.37054  -0.36497
  Beta  occ. eigenvalues --   -0.31285  -0.28765  -0.27928  -0.27514  -0.27474
  Beta  occ. eigenvalues --   -0.26468  -0.21663
  Beta virt. eigenvalues --   -0.11126  -0.06353  -0.03679  -0.01071  -0.00757
  Beta virt. eigenvalues --   -0.00059   0.00332   0.01651   0.01785   0.03001
  Beta virt. eigenvalues --    0.03489   0.03865   0.04175   0.04295   0.04612

 Mulliken charges and spin densities:
               1          2
     1  N   -0.423095   0.000000
     2  C    0.173530  -0.000000
     3  C   -0.132168   0.000000
     4  C   -0.292882  -0.000000
     5  C   -0.178924   0.000000
     6  O   -0.215346  -0.000000
     7  C    0.416935  -0.000000
     8  C   -0.373533   0.000000
     9  O   -0.295199   0.000000
    10  C   -0.073815  -0.000000
    11  C    0.209494  -0.000000
    12  C   -0.465119  -0.000000
    13  C   -0.496385  -0.000000
    14  C    0.290620   0.000000
    15  C    0.074091   0.000000
    16  C   -0.351957   0.000000
    17  O   -0.319829   0.000000
    18  C    0.355028  -0.000000
    19  H    0.298721  -0.000000
    20  H    0.331268  -0.000000
    21  H    0.207122   0.000000
    22  H    0.194129  -0.000000
    23  H    0.301421  -0.000000
    24  H    0.177421  -0.000000
    25  H    0.202098  -0.000000
    26  H    0.201682   0.000000
    27  H    0.184693  -0.000000
 Sum of Mulliken charges =  -0.00000  -0.00000

 Dipole moment (field-independent basis, Debye):
    X=              4.6614    Y=              2.3737    Z=             -0.4132  Tot=              5.2473
 Quadrupole moment (field-independent basis, Debye-Ang):
   XX=            -58.0601   YY=           -110.2188   ZZ=           -107.3671
   XY=              0.6683   XZ=             -1.0034   YZ=             -0.8113

 Normal termination of Gaussian 16 at Sun Jan 14 01:07:33 2024.
