 Gaussian 16, Revision A.03,
 Gaussian 16:  ES64L-G16RevA.03 25-Dec-2016

 --------------------------------------
 #P UB3LYP/6-311++G(d,p) nosym opt freq
 --------------------------------------

 -------
 Reduced
 -------
 Symbolic Z-matrix:
 Charge = -2 Multiplicity = 1

 SCF Done:  E(UB3LYP) =  -798.714764572     A.U. after   34 cycles
 Optimization completed.
    -- Stationary point found.
 Normal termination of Gaussian 16 at Mon Jan  8 01:31:04 2024.

 ----------------------------------------------------------------------
 #P Geom=AllCheck Guess=TCheck SCRF=Check GenChk UB3LYP/6-311++G(d,p) F
 req
 ----------------------------------------------------------------------

 Structure from the checkpoint file:  "275-an.chk"
 -------
 Reduced
 -------
 Charge = -2 Multiplicity = 1

                          Input orientation:
 ---------------------------------------------------------------------
 Center     Atomic      Atomic             Coordinates (Angstroms)
 Number     Number       Type             X           Y           Z
 ---------------------------------------------------------------------
      1          6           0        0.225841   -0.618493   -0.087555
      2          6           0       -0.377115   -1.792561   -0.549140
      3          6           0       -1.793122   -1.948068   -0.617211
      4          8           0       -2.365335   -3.015284   -1.032669
      5          6           0       -2.568666   -0.782008   -0.172847
      6          6           0       -3.976439   -0.826391   -0.201198
      7          6           0       -4.757317    0.244793    0.203210
      8          6           0       -4.129034    1.430716    0.661930
      9          6           0       -2.750468    1.507617    0.703734
     10          6           0       -1.929370    0.424677    0.296434
     11          6           0       -0.497137    0.539855    0.356678
     12          8           0        0.136963    1.596811    0.768964
     13          1           0        0.242377   -2.621543   -0.866423
     14          1           0       -4.422798   -1.749620   -0.558613
     15          1           0       -5.843073    0.178652    0.169435
     16          1           0       -4.732776    2.278811    0.980881
     17          1           0       -2.245587    2.403518    1.051435
     18          7           0        1.615867   -0.375486   -0.011188
     19          6           0        2.703202   -1.151397   -0.242692
     20          7           0        3.916122   -0.504616    0.100903
     21          6           0        5.145164   -0.961321   -0.527288
     22          8           0        2.711829   -2.306639   -0.667073
     23          1           0        1.723132    0.572374    0.368240
     24          1           0        3.840184    0.500467    0.174951
     25          1           0        5.201661   -2.046519   -0.447683
     26          1           0        6.005708   -0.526308   -0.011238
     27          1           0        5.219532   -0.695183   -1.596463
 ---------------------------------------------------------------------

 SCF Done:  E(UB3LYP) =  -798.714764572     A.U. after    1 cycles

 Alpha  occ. eigenvalues --  -18.86431 -18.80880 -18.79326 -14.12370 -14.10831
 Alpha  occ. eigenvalues --  -10.07570 -10.00624  -9.95586  -9.95515  -9.95476
 Alpha  occ. eigenvalues --   -9.94520  -9.94196  -9.93597  -9.93430  -9.92410
 Alpha  occ. eigenvalues --   -9.92048  -9.89804  -0.82687  -0.73332  -0.71217
 Alpha  occ. eigenvalues --   -0.70965  -0.68081  -0.61277  -0.55014  -0.51071
 Alpha  occ. eigenvalues --   -0.51004  -0.47945  -0.43198  -0.39769  -0.37568
 Alpha  occ. eigenvalues --   -0.35599  -0.33001  -0.31728  -0.28903  -0.25738
 Alpha  occ. eigenvalues --   -0.25457  -0.24831  -0.22343  -0.21905  -0.20537
 Alpha  occ. eigenvalues --   -0.19796  -0.19008  -0.18550  -0.18232  -0.16062
 Alpha  occ. eigenvalues --   -0.15470  -0.13587  -0.13376  -0.11495  -0.11171
 Alpha  occ. eigenvalues --   -0.09501  -0.08865  -0.06412  -0.05922  -0.04541
 Alpha  occ. eigenvalues --   -0.01501  -0.00366   0.01024   0.02329   0.03284
 Alpha  occ. eigenvalues --    0.11637
 Alpha virt. eigenvalues --    0.13063   0.15352   0.16586   0.17140   0.17382
 Alpha virt. eigenvalues --    0.19110   0.19790   0.20603   0.20865   0.21881
 Alpha virt. eigenvalues --    0.22316   0.23276   0.23909   0.24345   0.25477

  Beta  occ. eigenvalues --  -18.86431 -18.80880 -18.79326 -14.12370 -14.10831
  Beta  occ. eigenvalues --  -10.07570 -10.00624  -9.95586  -9.95515  -9.95476
  Beta  occ. eigenvalues --   -9.94520  -9.94196  -9.93597  -9.93430  -9.92410
  Beta  occ. eigenvalues --   -9.92048  -9.89804  -0.82687  -0.73332  -0.71217
  Beta  occ. eigenvalues --   -0.70965  -0.68081  -0.61277  -0.55014  -0.51071
  Beta  occ. eigenvalues --   -0.51004  -0.47945  -0.43198  -0.39769  -0.37568
  Beta  occ. eigenvalues --   -0.35599  -0.33001  -0.31728  -0.28903  -0.25738
  Beta  occ. eigenvalues --   -0.25457  -0.24831  -0.22343  -0.21905  -0.20537
  Beta  occ. eigenvalues --   -0.19796  -0.19008  -0.18550  -0.18232  -0.16062
  Beta  occ. eigenvalues --   -0.15470  -0.13587  -0.13376  -0.11495  -0.11171
  Beta  occ. eigenvalues --   -0.09501  -0.08865  -0.06412  -0.05922  -0.04541
  Beta  occ. eigenvalues --   -0.01501  -0.00366   0.01024   0.02329   0.03284
  Beta  occ. eigenvalues --    0.11637
  Beta virt. eigenvalues --    0.13063   0.15352   0.16586   0.17140   0.17382
  Beta virt. eigenvalues --    0.19110   0.19790   0.20603   0.20865   0.21881
  Beta virt. eigenvalues --    0.22316   0.23276   0.23909   0.24345   0.25477

 Mulliken charges and spin densities:
               1          2
     1  C    0.813627  -0.000000
     2  C    0.329456  -0.000000
     3  C   -0.604923   0.000000
     4  O   -0.505653  -0.000000
     5  C    0.878331  -0.000000
     6  C    0.024998   0.000000
     7  C   -0.310962  -0.000000
     8  C   -0.363735  -0.000000
     9  C   -0.066730   0.000000
    10  C   -0.096816  -0.000000
    11  C   -1.760531   0.000000
    12  O   -0.508425  -0.000000
    13  H    0.209282   0.000000
    14  H    0.123759  -0.000000
    15  H    0.081656   0.000000
    16  H    0.079259  -0.000000
    17  H    0.137494   0.000000
    18  N   -0.268276   0.000000
    19  C   -0.079192   0.000000
    20  N   -0.286792   0.000000
    21  C    1.134230  -0.000000
    22  O   -0.421906  -0.000000
    23  H    0.382432  -0.000000
    24  H    0.093145   0.000000
    25  H   -0.050102   0.000000
    26  H   -0.691867   0.000000
    27  H   -0.271760   0.000000
 Sum of Mulliken charges =  -2.00000  -0.00000

 Dipole moment (field-independent basis, Debye):
    X=             -0.3433    Y=              8.5969    Z=              2.1206  Tot=              8.8612
 Quadrupole moment (field-independent basis, Debye-Ang):
   XX=           -233.7008   YY=           -159.5137   ZZ=           -124.0326
   XY=              0.2230   XZ=              1.7174   YZ=            -16.1278

  Exact polarizability:2135.033 -25.985 374.030 -53.944  75.995 415.273
 Approx polarizability:******** 163.613 512.075-443.355 102.769 418.493

                      1                      2                      3
                      A                      A                      A
 Frequencies --     36.3514                51.1952                82.7543
 Red. masses --      5.1312                 3.7604                 3.8528
 Frc consts  --      0.0040                 0.0058                 0.0155
 IR Inten    --      0.3032                 1.3705                12.8811

                      4                      5                      6
                      A                      A                      A
 Frequencies --     94.7784               103.6556               138.6465
 Red. masses --      2.5337                 1.8448                 3.9998
 Frc consts  --      0.0134                 0.0117                 0.0453
 IR Inten    --      6.9149                 2.9076                 0.0849

                      7                      8                      9
                      A                      A                      A
 Frequencies --    145.2677               184.7092               238.8578
 Red. masses --      3.7904                 6.7334                 5.2123
 Frc consts  --      0.0471                 0.1354                 0.1752
 IR Inten    --      3.9999                 1.3207                26.2939

                     10                     11                     12
                      A                      A                      A
 Frequencies --    250.5944               268.2288               281.3292
 Red. masses --      5.7164                 5.6563                 5.4409
 Frc consts  --      0.2115                 0.2398                 0.2537
 IR Inten    --      0.9930                12.3460                57.7519

                     13                     14                     15
                      A                      A                      A
 Frequencies --    338.6712               371.0786               381.5451
 Red. masses --      6.0859                 9.2751                 6.2731
 Frc consts  --      0.4113                 0.7525                 0.5381
 IR Inten    --     61.2312                12.8623                 0.2350

                     16                     17                     18
                      A                      A                      A
 Frequencies --    440.9717               461.5733               486.7231
 Red. masses --      3.5982                10.9666                 4.9451
 Frc consts  --      0.4122                 1.3766                 0.6902
 IR Inten    --      2.1685               660.4475                66.6342

                     19                     20                     21
                      A                      A                      A
 Frequencies --    499.1634               531.8146               578.5729
 Red. masses --      3.6807                 1.9324                 5.6079
 Frc consts  --      0.5403                 0.3220                 1.1060
 IR Inten    --     18.5439                26.6640                 0.6988

                     22                     23                     24
                      A                      A                      A
 Frequencies --    649.6982               652.8140               691.5987
 Red. masses --      3.2025                 5.0458                 2.5262
 Frc consts  --      0.7964                 1.2669                 0.7119
 IR Inten    --      4.6689                 2.6696                42.0422

                     25                     26                     27
                      A                      A                      A
 Frequencies --    695.0141               725.5485               734.4471
 Red. masses --      3.7581                 6.4702                 3.8341
 Frc consts  --      1.0696                 2.0068                 1.2185
 IR Inten    --     24.2864                26.6445                 9.5796

                     28                     29                     30
                      A                      A                      A
 Frequencies --    748.5762               749.6048               764.4886
 Red. masses --      3.0207                 3.0171                 2.5053
 Frc consts  --      0.9973                 0.9989                 0.8627
 IR Inten    --     36.7816                28.5203                 0.9328

                     31                     32                     33
                      A                      A                      A
 Frequencies --    806.0734               812.3105               838.1608
 Red. masses --      1.6134                 1.5162                 3.6856
 Frc consts  --      0.6177                 0.5895                 1.5255
 IR Inten    --      8.0544                 7.0896                 6.6930

                     34                     35                     36
                      A                      A                      A
 Frequencies --    856.5532               944.5983               945.0976
 Red. masses --      1.5185                 3.9242                 1.2536
 Frc consts  --      0.6564                 2.0630                 0.6597
 IR Inten    --     30.0498                61.6545                 1.4622

                     37                     38                     39
                      A                      A                      A
 Frequencies --    954.4683               989.9621              1019.3349
 Red. masses --      1.3233                 5.8915                 2.1339
 Frc consts  --      0.7103                 3.4018                 1.3063
 IR Inten    --      3.0359               239.3323               308.1840

                     40                     41                     42
                      A                      A                      A
 Frequencies --   1084.9248              1112.0615              1126.3594
 Red. masses --      2.7877                 3.2008                 1.5423
 Frc consts  --      1.9333                 2.3322                 1.1529
 IR Inten    --     81.7910               439.1406                16.1031

                     43                     44                     45
                      A                      A                      A
 Frequencies --   1134.7932              1141.9840              1146.3542
 Red. masses --      1.4813                 1.5409                 1.5396
 Frc consts  --      1.1239                 1.1840                 1.1920
 IR Inten    --    221.7888                 7.7679               127.5394

                     46                     47                     48
                      A                      A                      A
 Frequencies --   1192.3462              1203.7716              1225.3068
 Red. masses --      2.5581                 2.2180                 2.6220
 Frc consts  --      2.1428                 1.8937                 2.3194
 IR Inten    --     52.8284                39.9413                26.7044

                     49                     50                     51
                      A                      A                      A
 Frequencies --   1243.5938              1284.4900              1331.7728
 Red. masses --      2.3776                 1.9831                 7.1362
 Frc consts  --      2.1664                 1.9278                 7.4572
 IR Inten    --     59.5216                26.9903               972.9747

                     52                     53                     54
                      A                      A                      A
 Frequencies --   1401.5039              1411.9785              1429.4055
 Red. masses --      2.9674                 6.4027                 1.3899
 Frc consts  --      3.4341                 7.5209                 1.6732
 IR Inten    --     80.9476              2813.3606               923.6513

                     55                     56                     57
                      A                      A                      A
 Frequencies --   1436.2682              1456.4576              1466.7513
 Red. masses --      3.2966                 2.7986                 1.1770
 Frc consts  --      4.0067                 3.4978                 1.4919
 IR Inten    --    598.9498               196.9406               188.9767

                     58                     59                     60
                      A                      A                      A
 Frequencies --   1491.6615              1507.4419              1518.2815
 Red. masses --      1.4073                 2.5860                 1.7269
 Frc consts  --      1.8449                 3.4623                 2.3454
 IR Inten    --    103.3302               114.2446              1047.0712

                     61                     62                     63
                      A                      A                      A
 Frequencies --   1522.2291              1545.5937              1578.5557
 Red. masses --      2.5535                 1.8927                 5.8624
 Frc consts  --      3.4861                 2.6640                 8.6069
 IR Inten    --     60.1044               324.2877              1057.9490

                     64                     65                     66
                      A                      A                      A
 Frequencies --   1598.2744              1711.0219              2914.8552
 Red. masses --      6.1461                 6.6288                 1.0621
 Frc consts  --      9.2503                11.4339                 5.3167
 IR Inten    --   1765.4923               360.6020                53.4475

                     67                     68                     69
                      A                      A                      A
 Frequencies --   3043.9390              3094.7382              3118.3548
 Red. masses --      1.0767                 1.0828                 1.0955
 Frc consts  --      5.8779                 6.1099                 6.2762
 IR Inten    --     95.9307                34.5142                54.5760

                     70                     71                     72
                      A                      A                      A
 Frequencies --   3118.5375              3156.4438              3160.8736
 Red. masses --      1.0909                 1.0905                 1.0914
 Frc consts  --      6.2506                 6.4015                 6.4246
 IR Inten    --    241.9291                86.3812               153.3316

                     73                     74                     75
                      A                      A                      A
 Frequencies --   3196.3782              3342.1100              3580.5484
 Red. masses --      1.0889                 1.0763                 1.0753
 Frc consts  --      6.5546                 7.0832                 8.1223
 IR Inten    --     22.6446               226.4095                 5.0107

 - Thermochemistry -
 -------------------
 Temperature   298.150 Kelvin.  Pressure   1.00000 Atm.
 Atom     1 has atomic number  6 and mass  12.00000

 Molecular mass:   230.06914 amu.
 Principal axes and moments of inertia in atomic units:
                           1         2         3
     Eigenvalues --  1633.242207101.358078711.00062
           X            0.98741   0.15817   0.00306
           Y           -0.14666   0.92249  -0.35708
           Z           -0.05930   0.35213   0.93407
 This molecule is an asymmetric top.
 Rotational symmetry number  1.
 Warning -- assumption of classical behavior for rotation
           may cause significant error
 Rotational temperatures (Kelvin)      0.05303     0.01220     0.00994
 Rotational constants (GHZ):           1.10501     0.25414     0.20718
 Zero-point vibrational energy     523813.6 (Joules/Mol)
                                  125.19445 (Kcal/Mol)
 Warning -- explicit consideration of  21 degrees of freedom as
           vibrations may cause significant error
 Vibrational temperatures:     52.30    73.66   119.06   136.36   149.14
          (Kelvin)            199.48   209.01   265.76   343.66   360.55
                              385.92   404.77   487.27   533.90   548.96
                              634.46   664.10   700.29   718.18   765.16
                              832.44   934.77   939.25   995.06   999.97
                             1043.90  1056.71  1077.03  1078.51  1099.93
                             1159.76  1168.73  1205.93  1232.39  1359.07
                             1359.78  1373.27  1424.33  1466.60  1560.96
                             1600.01  1620.58  1632.71  1643.06  1649.35
                             1715.52  1731.96  1762.94  1789.25  1848.09
                             1916.12  2016.45  2031.52  2056.60  2066.47
                             2095.52  2110.33  2146.17  2168.87  2184.47
                             2190.15  2223.76  2271.19  2299.56  2461.78
                             4193.83  4379.55  4452.64  4486.62  4486.88
                             4541.42  4547.79  4598.88  4808.55  5151.61

 Zero-point correction=                           0.199510 (Hartree/Particle)
 Thermal correction to Energy=                    0.214233
 Thermal correction to Enthalpy=                  0.215177
 Thermal correction to Gibbs Free Energy=         0.156898
 Sum of electronic and zero-point Energies=           -798.515255
 Sum of electronic and thermal Energies=              -798.500532
 Sum of electronic and thermal Enthalpies=            -798.499588
 Sum of electronic and thermal Free Energies=         -798.557867

                     E (Thermal)             CV                S
                      KCal/Mol        Cal/Mol-Kelvin    Cal/Mol-Kelvin
 Total                  134.433             56.037            122.659
 Electronic               0.000              0.000              0.000
 Translational            0.889              2.981             42.202
 Rotational               0.889              2.981             32.979
 Vibrational            132.656             50.075             47.478
 Vibration     1          0.594              1.982              5.449
 Vibration     2          0.595              1.977              4.771
 Vibration     3          0.600              1.961              3.824
 Vibration     4          0.603              1.953              3.559
 Vibration     5          0.605              1.946              3.384
 Vibration     6          0.614              1.915              2.822
 Vibration     7          0.617              1.908              2.733
 Vibration     8          0.631              1.861              2.280
 Vibration     9          0.657              1.781              1.811
 Vibration    10          0.663              1.762              1.726
 Vibration    11          0.673              1.732              1.608
 Vibration    12          0.681              1.708              1.526
 Vibration    13          0.719              1.598              1.218
 Vibration    14          0.743              1.532              1.075
 Vibration    15          0.751              1.510              1.033
 Vibration    16          0.801              1.381              0.824
 Vibration    17          0.819              1.335              0.762
 Vibration    18          0.843              1.279              0.692
 Vibration    19          0.855              1.252              0.660
 Vibration    20          0.887              1.180              0.583
 Vibration    21          0.935              1.078              0.488

                           ! Non-Optimized Parameters !
 Normal termination of Gaussian 16 at Mon Jan  8 02:27:31 2024.
