 Q-Chem 5.4, Q-Chem, Inc., Pleasanton, CA (2021)
 Q-Chem 5.4.0 for Intel X86 EM64T Linux

User input:
--------------------------------------------------------------
$molecule
-2 1
C                  0.2258410000     -0.6184930000     -0.0875550000
C                 -0.3771150000     -1.7925610000     -0.5491400000
C                 -1.7931220000     -1.9480680000     -0.6172110000
O                 -2.3653350000     -3.0152840000     -1.0326690000
C                 -2.5686660000     -0.7820080000     -0.1728470000
C                 -3.9764390000     -0.8263910000     -0.2011980000
C                 -4.7573170000      0.2447930000      0.2032100000
C                 -4.1290340000      1.4307160000      0.6619300000
C                 -2.7504680000      1.5076170000      0.7037340000
C                 -1.9293700000      0.4246770000      0.2964340000
C                 -0.4971370000      0.5398550000      0.3566780000
O                  0.1369630000      1.5968110000      0.7689640000
H                  0.2423770000     -2.6215430000     -0.8664230000
H                 -4.4227980000     -1.7496200000     -0.5586130000
H                 -5.8430730000      0.1786520000      0.1694350000
H                 -4.7327760000      2.2788110000      0.9808810000
H                 -2.2455870000      2.4035180000      1.0514350000
N                  1.6158670000     -0.3754860000     -0.0111880000
C                  2.7032020000     -1.1513970000     -0.2426920000
N                  3.9161220000     -0.5046160000      0.1009030000
C                  5.1451640000     -0.9613210000     -0.5272880000
O                  2.7118290000     -2.3066390000     -0.6670730000
H                  1.7231320000      0.5723740000      0.3682400000
H                  3.8401840000      0.5004670000      0.1749510000
H                  5.2016610000     -2.0465190000     -0.4476830000
H                  6.0057080000     -0.5263080000     -0.0112380000
H                  5.2195320000     -0.6951830000     -1.5964630000
$end
$rem
MAX_SCF_CYCLES=200
BASIS  =  6-311++G(d,p)
GUI  =  2
JOB_TYPE  =  SP
METHOD  =  B3LYP
SOLVENT_METHOD = PCM
$end
$pcm
theory = CPCM
$end
$solvent
dielectric 37.219
opticaldielectric 1.43
$end

--------------------------------------------------------------

             Standard Nuclear Orientation (Angstroms)
    I     Atom           X                Y                Z
 ----------------------------------------------------------------
    1      C       0.2258410000    -0.6184930000    -0.0875550000
    2      C      -0.3771150000    -1.7925610000    -0.5491400000
    3      C      -1.7931220000    -1.9480680000    -0.6172110000
    4      O      -2.3653350000    -3.0152840000    -1.0326690000
    5      C      -2.5686660000    -0.7820080000    -0.1728470000
    6      C      -3.9764390000    -0.8263910000    -0.2011980000
    7      C      -4.7573170000     0.2447930000     0.2032100000
    8      C      -4.1290340000     1.4307160000     0.6619300000
    9      C      -2.7504680000     1.5076170000     0.7037340000
   10      C      -1.9293700000     0.4246770000     0.2964340000
   11      C      -0.4971370000     0.5398550000     0.3566780000
   12      O       0.1369630000     1.5968110000     0.7689640000
   13      H       0.2423770000    -2.6215430000    -0.8664230000
   14      H      -4.4227980000    -1.7496200000    -0.5586130000
   15      H      -5.8430730000     0.1786520000     0.1694350000
   16      H      -4.7327760000     2.2788110000     0.9808810000
   17      H      -2.2455870000     2.4035180000     1.0514350000
   18      N       1.6158670000    -0.3754860000    -0.0111880000
   19      C       2.7032020000    -1.1513970000    -0.2426920000
   20      N       3.9161220000    -0.5046160000     0.1009030000
   21      C       5.1451640000    -0.9613210000    -0.5272880000
   22      O       2.7118290000    -2.3066390000    -0.6670730000
   23      H       1.7231320000     0.5723740000     0.3682400000
   24      H       3.8401840000     0.5004670000     0.1749510000
   25      H       5.2016610000    -2.0465190000    -0.4476830000
   26      H       6.0057080000    -0.5263080000    -0.0112380000
   27      H       5.2195320000    -0.6951830000    -1.5964630000
 ----------------------------------------------------------------

    9    -798.9910829186      2.87e-06  Convergence criterion met
 Total energy in the final basis set =     -798.9910829186

                    Orbital Energies (a.u.)
 --------------------------------------------------------------

 Alpha MOs
 -- Occupied --
-19.0798 -19.0277 -19.0227 -14.3205 -14.3164 -10.2867 -10.1858 -10.1783
-10.1716 -10.1708 -10.1512 -10.1480 -10.1472 -10.1469 -10.1412 -10.1378
-10.1210  -1.0403  -0.9529  -0.9423  -0.9174  -0.8866  -0.8270  -0.7661
 -0.7244  -0.7145  -0.6822  -0.6456  -0.6070  -0.5899  -0.5563  -0.5423
 -0.5304  -0.4960  -0.4673  -0.4575  -0.4459  -0.4366  -0.4290  -0.4148
 -0.4052  -0.3990  -0.3945  -0.3791  -0.3774  -0.3742  -0.3669  -0.3533
 -0.3330  -0.3268  -0.3233  -0.3074  -0.2836  -0.2698  -0.2506  -0.2321
 -0.2275  -0.2144  -0.2017  -0.1990  -0.1135

          Ground-State Mulliken Net Atomic Charges

     Atom                 Charge (a.u.)
  ----------------------------------------
      1 C                     0.564567
      2 C                     0.140502
      3 C                    -0.262759
      4 O                    -0.707455
      5 C                     0.568561
      6 C                     0.058250
      7 C                    -0.419069
      8 C                    -0.481679
      9 C                    -0.031646
     10 C                    -0.274185
     11 C                    -1.214310
     12 O                    -0.699825
     13 H                     0.186368
     14 H                     0.138937
     15 H                     0.173188
     16 H                     0.173108
     17 H                     0.151985
     18 N                    -0.271163
     19 C                     0.121184
     20 N                    -0.200018
     21 C                    -0.325612
     22 O                    -0.515828
     23 H                     0.379026
     24 H                     0.264132
     25 H                     0.163846
     26 H                     0.155497
     27 H                     0.164398
  ----------------------------------------
  Sum of atomic charges =    -2.000000

                    Cartesian Multipole Moments
 -----------------------------------------------------------------
    Charge (ESU x 10^10)
                -9.6064
    Dipole Moment (Debye)
         X      11.5453      Y      11.6324      Z       1.9467
       Tot      16.5045
    Quadrupole Moments (Debye-Ang)
        XX    -137.5136     XY      -9.9949     YY    -163.7641
        XZ      -7.2687     YZ     -18.3134     ZZ    -118.0672

 Total job time:  45.87s(wall), 302.55s(cpu)
        *  Thank you very much for using Q-Chem.  Have a nice day.  *
