 Q-Chem 5.4, Q-Chem, Inc., Pleasanton, CA (2021)
 Q-Chem 5.4.0 for Intel X86 EM64T Linux

User input:
--------------------------------------------------------------
$molecule
-2 1
C                 -3.0878040000      3.7659780000      0.6413130000
C                 -4.3458220000      3.2229730000      0.8012070000
C                 -4.5171150000      1.8227690000      0.6489790000
C                 -1.9561540000      2.9747490000      0.3264030000
C                 -2.1401000000      1.5480430000      0.1907020000
C                 -3.4432880000      1.0150390000      0.3571090000
C                 -0.6647660000      3.6183630000      0.1660140000
C                  0.4314880000      2.7154890000     -0.1379520000
C                  0.2475430000      1.2887830000     -0.2736530000
C                 -1.0438470000      0.6451700000     -0.1132680000
C                  1.7346730000      3.2484950000     -0.3043620000
C                  2.8085040000      2.4407620000     -0.5962210000
C                  2.6372140000      1.0405610000     -0.7484410000
C                  1.3791940000      0.4975540000     -0.5885540000
O                 -0.5021120000      4.8788690000      0.2911860000
O                 -1.2064970000     -0.6153360000     -0.2384390000
H                 -3.5632820000     -0.0582410000      0.2545920000
H                  1.2097980000     -0.5683400000     -0.7026300000
H                 -2.9184060000      4.8318710000      0.7553970000
H                  1.8546540000      4.3217780000     -0.2018540000
O                  4.0838210000      2.9932820000     -0.7950240000
O                 -5.7924160000      1.2702210000      0.8477940000
C                 -6.5942180000      1.2320370000     -0.3237070000
C                  4.8853480000      3.0321020000      0.3766440000
H                 -5.2034960000      3.8410930000      1.0527060000
H                  3.4948980000      0.4224470000     -0.9999210000
H                 -7.5646070000      0.8071790000     -0.0432110000
H                 -6.1373950000      0.6032920000     -1.0997080000
H                 -6.7544160000      2.2378220000     -0.7383330000
H                  5.8557750000      3.4568830000      0.0961620000
H                  5.0455100000      2.0265280000      0.7918000000
H                  4.4283090000      3.6611970000      1.1522300000
$end

$rem
BASIS  =  6-311++G(d,p)
GUI  =  2
JOB_TYPE  =  SP
METHOD  =  B3LYP
SCF_CONVERGENCE  = 8
SOLVENT_METHOD = sm12
$end

$smx
solvent dimethylformamide
charges CM5
$end

--------------------------------------------------------------

             Standard Nuclear Orientation (Angstroms)
    I     Atom           X                Y                Z
 ----------------------------------------------------------------
    1      C      -3.0878040000     3.7659780000     0.6413130000
    2      C      -4.3458220000     3.2229730000     0.8012070000
    3      C      -4.5171150000     1.8227690000     0.6489790000
    4      C      -1.9561540000     2.9747490000     0.3264030000
    5      C      -2.1401000000     1.5480430000     0.1907020000
    6      C      -3.4432880000     1.0150390000     0.3571090000
    7      C      -0.6647660000     3.6183630000     0.1660140000
    8      C       0.4314880000     2.7154890000    -0.1379520000
    9      C       0.2475430000     1.2887830000    -0.2736530000
   10      C      -1.0438470000     0.6451700000    -0.1132680000
   11      C       1.7346730000     3.2484950000    -0.3043620000
   12      C       2.8085040000     2.4407620000    -0.5962210000
   13      C       2.6372140000     1.0405610000    -0.7484410000
   14      C       1.3791940000     0.4975540000    -0.5885540000
   15      O      -0.5021120000     4.8788690000     0.2911860000
   16      O      -1.2064970000    -0.6153360000    -0.2384390000
   17      H      -3.5632820000    -0.0582410000     0.2545920000
   18      H       1.2097980000    -0.5683400000    -0.7026300000
   19      H      -2.9184060000     4.8318710000     0.7553970000
   20      H       1.8546540000     4.3217780000    -0.2018540000
   21      O       4.0838210000     2.9932820000    -0.7950240000
   22      O      -5.7924160000     1.2702210000     0.8477940000
   23      C      -6.5942180000     1.2320370000    -0.3237070000
   24      C       4.8853480000     3.0321020000     0.3766440000
   25      H      -5.2034960000     3.8410930000     1.0527060000
   26      H       3.4948980000     0.4224470000    -0.9999210000
   27      H      -7.5646070000     0.8071790000    -0.0432110000
   28      H      -6.1373950000     0.6032920000    -1.0997080000
   29      H      -6.7544160000     2.2378220000    -0.7383330000
   30      H       5.8557750000     3.4568830000     0.0961620000
   31      H       5.0455100000     2.0265280000     0.7918000000
   32      H       4.4283090000     3.6611970000     1.1522300000
 ----------------------------------------------------------------

   17    -918.0193914891      4.17e-09  Convergence criterion met
 Total energy in the final basis set =     -918.2972515234

                    Orbital Energies (a.u.)
 --------------------------------------------------------------

 Alpha MOs
 -- Occupied --
-19.1352 -19.1352 -19.0245 -19.0245 -10.2168 -10.2168 -10.2130 -10.2130
-10.1825 -10.1825 -10.1676 -10.1675 -10.1666 -10.1666 -10.1589 -10.1589
-10.1486 -10.1486 -10.1480 -10.1480  -1.0451  -1.0450  -0.9469  -0.9441
 -0.8397  -0.8356  -0.7650  -0.7418  -0.7414  -0.7279  -0.6895  -0.6807
 -0.6376  -0.6259  -0.5899  -0.5829  -0.5435  -0.5290  -0.5190  -0.4942
 -0.4712  -0.4631  -0.4549  -0.4548  -0.4542  -0.4394  -0.4306  -0.4203
 -0.4202  -0.4100  -0.3903  -0.3902  -0.3881  -0.3645  -0.3637  -0.3544
 -0.3451  -0.3419  -0.3330  -0.3289  -0.3159  -0.3035  -0.2734  -0.2729
 -0.2486  -0.2379  -0.2281  -0.2245  -0.2051  -0.1981  -0.1099

          Ground-State Mulliken Net Atomic Charges

     Atom                 Charge (a.u.)
  ----------------------------------------
      1 C                    -0.199058
      2 C                     2.386054
      3 C                     2.354312
      4 C                    -1.661867
      5 C                    -2.039398
      6 C                    -0.150254
      7 C                    -2.818476
      8 C                    -2.038873
      9 C                    -1.662193
     10 C                    -2.818782
     11 C                    -0.149976
     12 C                     2.354461
     13 C                     2.385623
     14 C                    -0.198839
     15 O                    -0.332344
     16 O                    -0.332350
     17 H                     0.100592
     18 H                     0.105928
     19 H                     0.105928
     20 H                     0.100569
     21 O                     0.032335
     22 O                     0.032357
     23 C                     0.238018
     24 C                     0.237977
     25 H                     0.382542
     26 H                     0.382525
     27 H                     0.308190
     28 H                     0.139821
     29 H                     0.153580
     30 H                     0.308185
     31 H                     0.153562
     32 H                     0.139851
  ----------------------------------------
  Sum of atomic charges =    -2.000000

                    Cartesian Multipole Moments
 -----------------------------------------------------------------
    Charge (ESU x 10^10)
                -9.6064
    Dipole Moment (Debye)
         X       8.2065      Y     -20.4778      Z      -0.2532
       Tot      22.0625
    Quadrupole Moments (Debye-Ang)
        XX    -165.1138     XY      11.1956     YY    -221.1188
        XZ      20.5276     YZ      -2.1107     ZZ    -134.4350

 Total job time:  978.37s(wall), 7503.56s(cpu)
        *  Thank you very much for using Q-Chem.  Have a nice day.  *
