 Gaussian 16, Revision A.03,
 Gaussian 16:  ES64L-G16RevA.03 25-Dec-2016

 ----------------------------------------------------------------------
 #P UB3LYP/6-311++G(d,p) nosym opt freq SCRF=(PCM,Solvent=n,n-DiMethylF
 ormamide)
 ----------------------------------------------------------------------

 -------
 Reduced
 -------
 Symbolic Z-matrix:
 Charge = -2 Multiplicity = 1

 SCF Done:  E(UB3LYP) =  -728.432662376     A.U. after   18 cycles
 SCF Done:  E(UB3LYP) =  -728.435648894     A.U. after   15 cycles
 SCF Done:  E(UB3LYP) =  -728.436160397     A.U. after   14 cycles
 SCF Done:  E(UB3LYP) =  -728.436187579     A.U. after   14 cycles
 SCF Done:  E(UB3LYP) =  -728.436197214     A.U. after   13 cycles
 SCF Done:  E(UB3LYP) =  -728.436200819     A.U. after   13 cycles
 SCF Done:  E(UB3LYP) =  -728.436204319     A.U. after   13 cycles
 SCF Done:  E(UB3LYP) =  -728.436209710     A.U. after   13 cycles
 SCF Done:  E(UB3LYP) =  -728.436214320     A.U. after   13 cycles
 SCF Done:  E(UB3LYP) =  -728.436217045     A.U. after   13 cycles
 SCF Done:  E(UB3LYP) =  -728.436217385     A.U. after   11 cycles
 Optimization completed.
    -- Stationary point found.
 Normal termination of Gaussian 16 at Sun Feb 11 17:01:50 2024.

 ----------------------------------------------------------------------
 #P Geom=AllCheck Guess=TCheck SCRF=Check GenChk UB3LYP/6-311++G(d,p) F
 req
 ----------------------------------------------------------------------

 Structure from the checkpoint file:  "345-an.chk"
 -------
 Reduced
 -------
 Charge = -2 Multiplicity = 1

                          Input orientation:
 ---------------------------------------------------------------------
 Center     Atomic      Atomic             Coordinates (Angstroms)
 Number     Number       Type             X           Y           Z
 ---------------------------------------------------------------------
      1          8           0        2.000692   -3.097657    0.876492
      2          6           0        1.463009   -1.940185    0.595274
      3          6           0        0.100427   -1.680961    0.510116
      4          6           0       -0.487601   -0.419465    0.200756
      5          8           0        0.417199    0.669858   -0.027071
      6          6           0        1.763689    0.479947    0.030666
      7          6           0        2.567555    1.593199   -0.223069
      8          6           0        3.970055    1.478712   -0.177749
      9          6           0        4.554811    0.255014    0.119822
     10          6           0        3.739766   -0.861902    0.372978
     11          6           0        2.338750   -0.777093    0.334145
     12          6           0       -1.832378   -0.082700    0.086421
     13          6           0       -2.905361   -1.050070    0.273756
     14          6           0       -4.235952   -0.700744    0.155074
     15          6           0       -4.649401    0.615962   -0.154993
     16          6           0       -3.630781    1.575493   -0.341339
     17          6           0       -2.287866    1.263190   -0.230417
     18          1           0       -0.577019   -2.509636    0.691540
     19          1           0        2.092512    2.540645   -0.453530
     20          1           0        4.583950    2.351041   -0.376685
     21          1           0        5.635243    0.158742    0.157168
     22          1           0        4.176142   -1.825632    0.606885
     23          1           0       -2.658557   -2.079349    0.512211
     24          1           0       -4.987734   -1.473080    0.306938
     25          1           0       -5.697957    0.874644   -0.245480
     26          1           0       -3.904023    2.601575   -0.581567
     27          1           0       -1.549167    2.040453   -0.384394
 ---------------------------------------------------------------------

 SCF Done:  E(UB3LYP) =  -728.436217385     A.U. after    1 cycles

 Alpha  occ. eigenvalues --  -19.13238 -19.01844 -10.21747 -10.17292 -10.16850
 Alpha  occ. eigenvalues --  -10.15577 -10.15365 -10.15062 -10.14801 -10.14535
 Alpha  occ. eigenvalues --  -10.14189 -10.14139 -10.13904 -10.12998 -10.12677
 Alpha  occ. eigenvalues --  -10.11989 -10.11881  -1.04536  -0.92507  -0.83181
 Alpha  occ. eigenvalues --   -0.81087  -0.75709  -0.73975  -0.71677  -0.70739
 Alpha  occ. eigenvalues --   -0.69160  -0.62302  -0.60365  -0.57560  -0.55914
 Alpha  occ. eigenvalues --   -0.54779  -0.50261  -0.49577  -0.48383  -0.45248
 Alpha  occ. eigenvalues --   -0.43747  -0.43046  -0.41654  -0.41214  -0.39817
 Alpha  occ. eigenvalues --   -0.39045  -0.38535  -0.37723  -0.36088  -0.35090
 Alpha  occ. eigenvalues --   -0.34524  -0.33414  -0.32981  -0.32427  -0.31814
 Alpha  occ. eigenvalues --   -0.30847  -0.28757  -0.25758  -0.23078  -0.22710
 Alpha  occ. eigenvalues --   -0.20935  -0.19886  -0.18506  -0.07959
 Alpha virt. eigenvalues --   -0.01155  -0.00095   0.00588   0.01019   0.01383
 Alpha virt. eigenvalues --    0.02053   0.02062   0.02387   0.03859   0.04141
 Alpha virt. eigenvalues --    0.04610   0.04882   0.05410   0.06033   0.06287

  Beta  occ. eigenvalues --  -19.13238 -19.01844 -10.21747 -10.17292 -10.16850
  Beta  occ. eigenvalues --  -10.15577 -10.15365 -10.15062 -10.14801 -10.14535
  Beta  occ. eigenvalues --  -10.14189 -10.14139 -10.13904 -10.12998 -10.12677
  Beta  occ. eigenvalues --  -10.11989 -10.11881  -1.04536  -0.92507  -0.83181
  Beta  occ. eigenvalues --   -0.81087  -0.75709  -0.73975  -0.71677  -0.70739
  Beta  occ. eigenvalues --   -0.69160  -0.62302  -0.60365  -0.57560  -0.55914
  Beta  occ. eigenvalues --   -0.54779  -0.50261  -0.49577  -0.48383  -0.45248
  Beta  occ. eigenvalues --   -0.43747  -0.43046  -0.41654  -0.41214  -0.39817
  Beta  occ. eigenvalues --   -0.39045  -0.38535  -0.37723  -0.36088  -0.35090
  Beta  occ. eigenvalues --   -0.34524  -0.33414  -0.32981  -0.32427  -0.31814
  Beta  occ. eigenvalues --   -0.30847  -0.28757  -0.25758  -0.23078  -0.22710
  Beta  occ. eigenvalues --   -0.20935  -0.19886  -0.18506  -0.07959
  Beta virt. eigenvalues --   -0.01155  -0.00095   0.00588   0.01019   0.01383
  Beta virt. eigenvalues --    0.02053   0.02062   0.02387   0.03859   0.04141
  Beta virt. eigenvalues --    0.04610   0.04882   0.05410   0.06033   0.06287

 Mulliken charges and spin densities:
               1          2
     1  O   -0.710045   0.000000
     2  C   -0.797621  -0.000000
     3  C   -0.465203  -0.000000
     4  C    0.459010   0.000000
     5  O   -0.130530  -0.000000
     6  C   -1.409236   0.000000
     7  C   -0.382730   0.000000
     8  C   -0.468138   0.000000
     9  C   -0.203552  -0.000000
    10  C    0.222994   0.000000
    11  C    1.798582  -0.000000
    12  C    1.017509   0.000000
    13  C   -0.678409  -0.000000
    14  C   -0.558054  -0.000000
    15  C   -0.553289   0.000000
    16  C   -0.385415  -0.000000
    17  C   -0.165662   0.000000
    18  H    0.144773  -0.000000
    19  H    0.155417   0.000000
    20  H    0.167600  -0.000000
    21  H    0.155630   0.000000
    22  H    0.160406  -0.000000
    23  H    0.067963  -0.000000
    24  H    0.157697   0.000000
    25  H    0.117906   0.000000
    26  H    0.152345  -0.000000
    27  H    0.130051   0.000000
 Sum of Mulliken charges =  -2.00000   0.00000

 Dipole moment (field-independent basis, Debye):
    X=             -0.3094    Y=             10.0214    Z=             -3.3714  Tot=             10.5778
 Quadrupole moment (field-independent basis, Debye-Ang):
   XX=           -174.3102   YY=           -146.1269   ZZ=           -118.8422
   XY=             26.1736   XZ=             -7.4504   YZ=              8.6909

  Exact polarizability:1038.908 -43.288 331.871  27.830 -37.205 187.443
 Approx polarizability:1066.953 -59.579 376.049  32.013 -45.172 200.861

                      1                      2                      3
                      A                      A                      A
 Frequencies --     33.0108                65.1685               108.6041
 Red. masses --      6.1096                 4.4765                 5.1235
 Frc consts  --      0.0039                 0.0112                 0.0356
 IR Inten    --      1.6031                 1.8016                 3.2822

                      4                      5                      6
                      A                      A                      A
 Frequencies --    119.2002               138.5531               174.6062
 Red. masses --      4.3740                 4.9879                 5.1938
 Frc consts  --      0.0366                 0.0564                 0.0933
 IR Inten    --      0.3892                 0.3583                 1.2910

                      7                      8                      9
                      A                      A                      A
 Frequencies --    236.3589               263.0554               295.8988
 Red. masses --      5.3445                 7.1201                 6.1832
 Frc consts  --      0.1759                 0.2903                 0.3190
 IR Inten    --      0.3723                 3.3349                 9.1397

                     10                     11                     12
                      A                      A                      A
 Frequencies --    323.2473               345.5361               406.5848
 Red. masses --      5.6056                 6.3345                 3.5624
 Frc consts  --      0.3451                 0.4456                 0.3470
 IR Inten    --      8.2690                20.5949                 2.1054

                     13                     14                     15
                      A                      A                      A
 Frequencies --    435.5840               481.6652               491.6881
 Red. masses --      3.3831                10.9322                 2.9195
 Frc consts  --      0.3782                 1.4943                 0.4158
 IR Inten    --      1.1520                20.6903                75.0953

                     16                     17                     18
                      A                      A                      A
 Frequencies --    506.2544               533.0221               576.4327
 Red. masses --      6.7835                 3.5709                 8.4683
 Frc consts  --      1.0243                 0.5978                 1.6579
 IR Inten    --      7.4142                 1.8930                17.1105

                     19                     20                     21
                      A                      A                      A
 Frequencies --    598.7116               616.9322               620.4219
 Red. masses --      6.2228                 3.5610                 1.2543
 Frc consts  --      1.3142                 0.7985                 0.2845
 IR Inten    --      0.3079                 4.8469               108.6445

                     22                     23                     24
                      A                      A                      A
 Frequencies --    625.6409               657.5142               685.2906
 Red. masses --      6.2929                 6.6664                 2.5787
 Frc consts  --      1.4513                 1.6981                 0.7135
 IR Inten    --      2.1317                 4.9268                26.1560

                     25                     26                     27
                      A                      A                      A
 Frequencies --    733.1835               738.4193               741.2014
 Red. masses --      1.3836                 2.6627                 5.3104
 Frc consts  --      0.4382                 0.8554                 1.7189
 IR Inten    --    124.6527                83.3729                 7.7257

                     28                     29                     30
                      A                      A                      A
 Frequencies --    742.8089               757.7477               796.6062
 Red. masses --      2.4541                 1.2707                 1.4869
 Frc consts  --      0.7978                 0.4299                 0.5559
 IR Inten    --     33.8621                11.4378                57.1467

                     31                     32                     33
                      A                      A                      A
 Frequencies --    821.5505               824.0781               847.1256
 Red. masses --      5.9806                 1.4999                 5.8868
 Frc consts  --      2.3783                 0.6001                 2.4890
 IR Inten    --   1267.2612                 0.3315               241.2491

                     34                     35                     36
                      A                      A                      A
 Frequencies --    886.4292               935.9634               936.7711
 Red. masses --      1.3521                 1.2085                 5.4137
 Frc consts  --      0.6260                 0.6238                 2.7991
 IR Inten    --     19.9915                 3.6217               503.7169

                     37                     38                     39
                      A                      A                      A
 Frequencies --    939.2250               942.4040               981.4996
 Red. masses --      1.2249                 1.2933                 6.3140
 Frc consts  --      0.6366                 0.6768                 3.5837
 IR Inten    --      2.0536                 0.0895               363.5635

                     40                     41                     42
                      A                      A                      A
 Frequencies --   1003.0036              1043.3101              1072.9356
 Red. masses --      2.3351                 2.0707                 1.8473
 Frc consts  --      1.3841                 1.3280                 1.2530
 IR Inten    --    487.0612               222.0963                76.1771

                     43                     44                     45
                      A                      A                      A
 Frequencies --   1090.3913              1127.6444              1136.6339
 Red. masses --      2.2115                 2.1906                 1.3037
 Frc consts  --      1.5492                 1.6412                 0.9924
 IR Inten    --     58.2224               127.8187               211.3482

                     46                     47                     48
                      A                      A                      A
 Frequencies --   1158.9098              1187.0802              1200.2771
 Red. masses --      1.1198                 1.2325                 2.0654
 Frc consts  --      0.8861                 1.0233                 1.7531
 IR Inten    --    135.7406               999.4053              1134.4913

                     49                     50                     51
                      A                      A                      A
 Frequencies --   1231.0240              1246.8742              1280.9995
 Red. masses --      2.8035                 2.0938                 2.7591
 Frc consts  --      2.5031                 1.9179                 2.6676
 IR Inten    --   1713.6127               490.1964              1000.1050

                     52                     53                     54
                      A                      A                      A
 Frequencies --   1288.5644              1317.3376              1354.7237
 Red. masses --      2.4338                 4.0315                 1.9352
 Frc consts  --      2.3810                 4.1220                 2.0926
 IR Inten    --    553.8550               277.9295               160.1367

                     55                     56                     57
                      A                      A                      A
 Frequencies --   1359.1938              1411.6668              1450.6198
 Red. masses --      7.1062                 2.4768                 3.1516
 Frc consts  --      7.7349                 2.9081                 3.9074
 IR Inten    --     13.0304               506.8478               150.5308

                     58                     59                     60
                      A                      A                      A
 Frequencies --   1458.9918              1484.5941              1502.9420
 Red. masses --      2.1022                 2.9490                 2.9421
 Frc consts  --      2.6365                 3.8294                 3.9156
 IR Inten    --     32.5682               456.8526                23.7691

                     61                     62                     63
                      A                      A                      A
 Frequencies --   1511.2992              1525.6797              1581.4509
 Red. masses --      3.8004                 4.9026                 5.5144
 Frc consts  --      5.1142                 6.7236                 8.1256
 IR Inten    --    885.6044               455.4359               625.0164

                     64                     65                     66
                      A                      A                      A
 Frequencies --   1603.9618              1617.1602              3112.2390
 Red. masses --      6.4279                 5.9605                 1.0854
 Frc consts  --      9.7434                 9.1841                 6.1942
 IR Inten    --    187.1057              2197.5983               106.6910

                     67                     68                     69
                      A                      A                      A
 Frequencies --   3114.8242              3146.3522              3146.7953
 Red. masses --      1.0865                 1.0884                 1.0850
 Frc consts  --      6.2106                 6.3481                 6.3299
 IR Inten    --     86.8293                20.7983                13.7702

                     70                     71                     72
                      A                      A                      A
 Frequencies --   3160.4143              3161.0206              3170.1559
 Red. masses --      1.0871                 1.0895                 1.0910
 Frc consts  --      6.3972                 6.4139                 6.4603
 IR Inten    --    105.4988                98.6033                44.2602

                     73                     74                     75
                      A                      A                      A
 Frequencies --   3174.1747              3177.6557              3181.9625
 Red. masses --      1.0930                 1.0914                 1.0928
 Frc consts  --      6.4882                 6.4931                 6.5188
 IR Inten    --     43.7962                29.7127                13.0700

 - Thermochemistry -
 -------------------
 Temperature   298.150 Kelvin.  Pressure   1.00000 Atm.
 Atom     1 has atomic number  8 and mass  15.99491

 Molecular mass:   222.06808 amu.
 Principal axes and moments of inertia in atomic units:
                           1         2         3
     Eigenvalues --  1573.483366714.252958287.49574
           X            0.99697   0.07503  -0.02045
           Y           -0.06837   0.97099   0.22916
           Z            0.03705  -0.22706   0.97318
 This molecule is an asymmetric top.
 Rotational symmetry number  1.
 Warning -- assumption of classical behavior for rotation
           may cause significant error
 Rotational temperatures (Kelvin)      0.05505     0.01290     0.01045
 Rotational constants (GHZ):           1.14697     0.26879     0.21777
 Zero-point vibrational energy     524902.6 (Joules/Mol)
                                  125.45473 (Kcal/Mol)
 Warning -- explicit consideration of  21 degrees of freedom as
           vibrations may cause significant error
 Vibrational temperatures:     47.50    93.76   156.26   171.50   199.35
          (Kelvin)            251.22   340.07   378.48   425.73   465.08
                              497.15   584.98   626.71   693.01   707.43
                              728.39   766.90   829.36   861.41   887.63
                              892.65   900.16   946.02   985.98  1054.89
                             1062.42  1066.42  1068.74  1090.23  1146.14
                             1182.03  1185.66  1218.82  1275.37  1346.64
                             1347.80  1351.34  1355.91  1412.16  1443.10
                             1501.09  1543.72  1568.83  1622.43  1635.36
                             1667.41  1707.94  1726.93  1771.17  1793.97
                             1843.07  1853.96  1895.36  1949.15  1955.58
                             2031.07  2087.12  2099.16  2136.00  2162.40
                             2174.42  2195.11  2275.36  2307.74  2326.73
                             4477.82  4481.54  4526.90  4527.54  4547.13
                             4548.00  4561.15  4566.93  4571.94  4578.13

 Zero-point correction=                           0.199925 (Hartree/Particle)
 Thermal correction to Energy=                    0.213173
 Thermal correction to Enthalpy=                  0.214117
 Thermal correction to Gibbs Free Energy=         0.159581
 Sum of electronic and zero-point Energies=           -728.236293
 Sum of electronic and thermal Energies=              -728.223044
 Sum of electronic and thermal Enthalpies=            -728.222100
 Sum of electronic and thermal Free Energies=         -728.276637

                     E (Thermal)             CV                S
                      KCal/Mol        Cal/Mol-Kelvin    Cal/Mol-Kelvin
 Total                  133.768             53.839            114.782
 Electronic               0.000              0.000              0.000
 Translational            0.889              2.981             42.096
 Rotational               0.889              2.981             32.837
 Vibrational            131.991             47.877             39.849
 Vibration     1          0.594              1.983              5.640
 Vibration     2          0.597              1.971              4.294
 Vibration     3          0.606              1.942              3.294
 Vibration     4          0.609              1.933              3.113
 Vibration     5          0.614              1.915              2.824
 Vibration     6          0.627              1.874              2.385
 Vibration     7          0.655              1.785              1.830
 Vibration     8          0.670              1.741              1.641
 Vibration     9          0.690              1.681              1.440
 Vibration    10          0.708              1.629              1.294
 Vibration    11          0.724              1.584              1.186
 Vibration    12          0.771              1.456              0.939
 Vibration    13          0.796              1.393              0.841
 Vibration    14          0.838              1.291              0.706
 Vibration    15          0.847              1.268              0.679
 Vibration    16          0.861              1.236              0.643
 Vibration    17          0.888              1.177              0.580
 Vibration    18          0.933              1.082              0.492
 Vibration    19          0.957              1.035              0.452
 Vibration    20          0.977              0.996              0.421
 Vibration    21          0.980              0.989              0.416

 Optimization completed.
    -- Stationary point found.
 Normal termination of Gaussian 16 at Sun Feb 11 17:44:25 2024.
