 Q-Chem 5.4, Q-Chem, Inc., Pleasanton, CA (2021)
 Q-Chem 5.4.0 for Intel X86 EM64T Linux

User input:
--------------------------------------------------------------
$molecule
-1 2
I                 -2.7979160000     -2.0528820000      0.0039920000
C                 -1.1199340000     -0.7442720000      0.0007270000
C                 -1.3190510000      0.6057140000     -0.0163020000
C                 -0.2050890000      1.5362930000     -0.0191900000
O                 -0.3714510000      2.7839410000     -0.0348410000
C                  1.1137200000      0.9305440000     -0.0029220000
C                  1.2760040000     -0.4245960000      0.0139190000
I                  3.2384270000     -1.2464600000      0.0372550000
C                  0.1864610000     -1.3959120000      0.0175190000
O                  0.3509680000     -2.6322970000      0.0329200000
H                 -2.3132210000      1.0349790000     -0.0282860000
H                  1.9610800000      1.6049480000     -0.0047900000
$end

$rem
BASIS  =  6-311++G(d,p)
GUI  =  2
JOB_TYPE  =  SP
METHOD  =  B3LYP
SCF_CONVERGENCE  = 8
SOLVENT_METHOD = sm12
$end

$smx
solvent dimethylformamide
charges CM5
$end

--------------------------------------------------------------

             Standard Nuclear Orientation (Angstroms)
    I     Atom           X                Y                Z
 ----------------------------------------------------------------
    1      I      -2.7979160000    -2.0528820000     0.0039920000
    2      C      -1.1199340000    -0.7442720000     0.0007270000
    3      C      -1.3190510000     0.6057140000    -0.0163020000
    4      C      -0.2050890000     1.5362930000    -0.0191900000
    5      O      -0.3714510000     2.7839410000    -0.0348410000
    6      C       1.1137200000     0.9305440000    -0.0029220000
    7      C       1.2760040000    -0.4245960000     0.0139190000
    8      I       3.2384270000    -1.2464600000     0.0372550000
    9      C       0.1864610000    -1.3959120000     0.0175190000
   10      O       0.3509680000    -2.6322970000     0.0329200000
   11      H      -2.3132210000     1.0349790000    -0.0282860000
   12      H       1.9610800000     1.6049480000    -0.0047900000
 ----------------------------------------------------------------

   18  -14219.4865269978      4.33e-09  Convergence criterion met
 Total energy in the final basis set =   -14219.5714171648

                    Orbital Energies (a.u.)
 --------------------------------------------------------------

 Alpha MOs
 -- Occupied --
*****************-176.3072-176.3071-165.7108-165.7107-165.7089-165.7088
********-165.7087 -35.8035 -35.8034 -31.2963 -31.2962 -31.2910 -31.2909
-31.2907 -31.2907 -22.9469 -22.9468 -22.9457 -22.9456 -22.9455 -22.9455
-22.9418 -22.9418 -22.9417 -22.9417 -19.1052 -19.1012 -10.2597 -10.2479
-10.2354 -10.2354 -10.1977 -10.1977  -6.3526  -6.3526  -4.7639  -4.7639
 -4.7508  -4.7508  -4.7502  -4.7502  -2.0299  -2.0297  -2.0256  -2.0255
 -2.0252  -2.0251  -2.0139  -2.0139  -2.0138  -2.0138  -1.0348  -1.0228
 -0.8616  -0.7918  -0.7218  -0.6747  -0.6646  -0.5891  -0.5812  -0.5116
 -0.4969  -0.4428  -0.4386  -0.4288  -0.4257  -0.4021  -0.3885  -0.3613
 -0.3306  -0.3224  -0.2828  -0.2761  -0.2723  -0.2657  -0.2559  -0.2557
 -0.1891

 Beta MOs
 -- Occupied --
*****************-176.3072-176.3071-165.7108-165.7107-165.7089-165.7088
********-165.7087 -35.8035 -35.8034 -31.2963 -31.2962 -31.2910 -31.2909
-31.2907 -31.2907 -22.9469 -22.9469 -22.9457 -22.9456 -22.9455 -22.9455
-22.9418 -22.9418 -22.9417 -22.9417 -19.0981 -19.0933 -10.2586 -10.2473
-10.2344 -10.2344 -10.1963 -10.1963  -6.3526  -6.3526  -4.7639  -4.7639
 -4.7508  -4.7508  -4.7502  -4.7502  -2.0299  -2.0298  -2.0256  -2.0255
 -2.0253  -2.0251  -2.0139  -2.0138  -2.0138  -2.0138  -1.0226  -1.0092
 -0.8554  -0.7890  -0.7125  -0.6724  -0.6621  -0.5864  -0.5773  -0.5094
 -0.4927  -0.4314  -0.4275  -0.4251  -0.4203  -0.3854  -0.3730  -0.3593
 -0.3255  -0.2963  -0.2803  -0.2760  -0.2596  -0.2591  -0.2516  -0.2506

          Ground-State Mulliken Net Atomic Charges

     Atom                 Charge (a.u.)    Spin (a.u.)
  --------------------------------------------------------
      1 I                     0.061743      -0.000471
      2 C                     1.404804       0.085945
      3 C                    -0.399271       0.097591
      4 C                    -0.371821       0.083390
      5 O                    -0.349814       0.279900
      6 C                    -0.383002       0.098116
      7 C                     1.370116       0.085934
      8 I                     0.065508      -0.000445
      9 C                    -2.632460       0.024756
     10 O                    -0.192007       0.261530
     11 H                     0.212814      -0.008100
     12 H                     0.213390      -0.008146
  --------------------------------------------------------
  Sum of atomic charges =    -1.000000

                    Cartesian Multipole Moments
 -----------------------------------------------------------------
    Charge (ESU x 10^10)
                -4.8032
    Dipole Moment (Debye)
         X      -0.1948      Y       1.4899      Z      -0.0183
       Tot       1.5027
    Quadrupole Moments (Debye-Ang)
        XX    -117.3374     XY       3.2088     YY    -141.0193
        XZ      -0.1067     YZ       0.4087     ZZ    -107.5853

 Total job time:  147.98s(wall), 941.74s(cpu)
        *  Thank you very much for using Q-Chem.  Have a nice day.  *
