 Q-Chem 5.4, Q-Chem, Inc., Pleasanton, CA (2021)
 Q-Chem 5.4.0 for Intel X86 EM64T Linux

User input:
--------------------------------------------------------------
$molecule
0 1
C                  5.0607930000     -2.4805110000      0.1160610000
C                  5.7806010000     -1.5361890000     -0.6059700000
C                  5.1111740000     -0.5301070000     -1.3085920000
C                  3.6636330000     -2.4293820000      0.1417960000
C                  2.9896500000     -1.4168340000     -0.5656040000
C                  3.7229910000     -0.4705960000     -1.2886000000
C                  2.9181490000     -3.4570340000      0.9231290000
C                  1.4252850000     -3.3740820000      0.9191750000
C                  0.7507180000     -2.3641570000      0.2128980000
C                  1.5021000000     -1.3278070000     -0.5617460000
C                  0.6977190000     -4.3292690000      1.6337110000
C                 -0.6466180000     -2.3189780000      0.2240290000
C                 -1.3730410000     -3.2647030000      0.9351850000
O                  3.4966760000     -4.3309100000      1.5451100000
O                  0.9125760000     -0.4477980000     -1.1652620000
H                  5.5592800000     -3.2682190000      0.6671830000
H                 -2.4556640000     -3.2520150000      0.9377180000
H                  3.1845550000      0.3003100000     -1.8257160000
H                  1.2257660000     -5.1152900000      2.1585300000
H                 -1.1451230000     -1.5375060000     -0.3355700000
C                 -0.6872830000     -4.2556000000      1.6397780000
H                  5.6752370000      0.2051020000     -1.8710080000
H                  6.8635300000     -1.5806320000     -0.6236970000
S                 -1.6305330000     -5.4813960000      2.5694750000
O                 -0.8160870000     -6.6883810000      2.6555080000
O                 -2.9880360000     -5.4818620000      2.0319870000
N                 -1.7088790000     -4.8060990000      4.1159200000
H                 -1.2136700000     -5.3849200000      4.7866100000
H                 -2.6738570000     -4.6469860000      4.3867820000
$end

$rem
BASIS  =  6-311++G(d,p)
GUI  =  2
JOB_TYPE  =  SP
METHOD  =  B3LYP
SCF_CONVERGENCE  = 8
SOLVENT_METHOD = sm12
$end

$smx
solvent dimethylformamide
charges CM5
$end

--------------------------------------------------------------

             Standard Nuclear Orientation (Angstroms)
    I     Atom           X                Y                Z
 ----------------------------------------------------------------
    1      C       5.0607930000    -2.4805110000     0.1160610000
    2      C       5.7806010000    -1.5361890000    -0.6059700000
    3      C       5.1111740000    -0.5301070000    -1.3085920000
    4      C       3.6636330000    -2.4293820000     0.1417960000
    5      C       2.9896500000    -1.4168340000    -0.5656040000
    6      C       3.7229910000    -0.4705960000    -1.2886000000
    7      C       2.9181490000    -3.4570340000     0.9231290000
    8      C       1.4252850000    -3.3740820000     0.9191750000
    9      C       0.7507180000    -2.3641570000     0.2128980000
   10      C       1.5021000000    -1.3278070000    -0.5617460000
   11      C       0.6977190000    -4.3292690000     1.6337110000
   12      C      -0.6466180000    -2.3189780000     0.2240290000
   13      C      -1.3730410000    -3.2647030000     0.9351850000
   14      O       3.4966760000    -4.3309100000     1.5451100000
   15      O       0.9125760000    -0.4477980000    -1.1652620000
   16      H       5.5592800000    -3.2682190000     0.6671830000
   17      H      -2.4556640000    -3.2520150000     0.9377180000
   18      H       3.1845550000     0.3003100000    -1.8257160000
   19      H       1.2257660000    -5.1152900000     2.1585300000
   20      H      -1.1451230000    -1.5375060000    -0.3355700000
   21      C      -0.6872830000    -4.2556000000     1.6397780000
   22      H       5.6752370000     0.2051020000    -1.8710080000
   23      H       6.8635300000    -1.5806320000    -0.6236970000
   24      S      -1.6305330000    -5.4813960000     2.5694750000
   25      O      -0.8160870000    -6.6883810000     2.6555080000
   26      O      -2.9880360000    -5.4818620000     2.0319870000
   27      N      -1.7088790000    -4.8060990000     4.1159200000
   28      H      -1.2136700000    -5.3849200000     4.7866100000
   29      H      -2.6738570000    -4.6469860000     4.3867820000
 ----------------------------------------------------------------

   15   -1292.9644999002      8.53e-09  Convergence criterion met
 Total energy in the final basis set =    -1292.9968650553

                    Orbital Energies (a.u.)
 --------------------------------------------------------------

 Alpha MOs
 -- Occupied --
-89.0814 -19.1353 -19.1350 -19.1334 -19.1333 -14.3466 -10.2876 -10.2875
-10.2372 -10.2220 -10.2215 -10.2170 -10.2167 -10.2125 -10.2120 -10.2100
-10.1999 -10.1996 -10.1992 -10.1990  -8.1429  -6.1058  -6.1053  -6.1038
 -1.1388  -1.0710  -1.0692  -1.0311  -0.9160  -0.9070  -0.8893  -0.8271
 -0.7967  -0.7826  -0.7806  -0.7114  -0.6903  -0.6652  -0.6376  -0.6252
 -0.5938  -0.5698  -0.5672  -0.5355  -0.5303  -0.5182  -0.5078  -0.4976
 -0.4936  -0.4663  -0.4627  -0.4623  -0.4614  -0.4560  -0.4522  -0.4469
 -0.4262  -0.4244  -0.4049  -0.3924  -0.3831  -0.3770  -0.3722  -0.3699
 -0.3449  -0.3349  -0.3301  -0.3176  -0.2948  -0.2923  -0.2884  -0.2813
 -0.2801  -0.2799

          Ground-State Mulliken Net Atomic Charges

     Atom                 Charge (a.u.)
  ----------------------------------------
      1 C                     0.024038
      2 C                     0.434443
      3 C                     0.460669
      4 C                     0.026593
      5 C                    -0.040427
      6 C                     0.231699
      7 C                    -1.272728
      8 C                    -0.144657
      9 C                     0.152169
     10 C                    -1.286376
     11 C                    -0.291398
     12 C                     0.345216
     13 C                     0.195750
     14 O                    -0.266623
     15 O                    -0.245640
     16 H                     0.189022
     17 H                     0.326213
     18 H                     0.197312
     19 H                     0.209757
     20 H                     0.244910
     21 C                    -0.544557
     22 H                     0.330598
     23 H                     0.326982
     24 S                     0.338900
     25 O                    -0.289232
     26 O                    -0.272238
     27 N                    -0.153774
     28 H                     0.384985
     29 H                     0.388395
  ----------------------------------------
  Sum of atomic charges =     0.000000

                    Cartesian Multipole Moments
 -----------------------------------------------------------------
    Charge (ESU x 10^10)
                 0.0000
    Dipole Moment (Debye)
         X       2.4349      Y       3.9642      Z       1.1737
       Tot       4.7981
    Quadrupole Moments (Debye-Ang)
        XX    -100.5451     XY       0.7699     YY    -164.0790
        XZ     -15.3607     YZ      -2.9745     ZZ    -105.4466

 Total job time:  686.71s(wall), 5365.53s(cpu)
        *  Thank you very much for using Q-Chem.  Have a nice day.  *
