 Q-Chem 5.4, Q-Chem, Inc., Pleasanton, CA (2021)
 Q-Chem 5.4.0 for Intel X86 EM64T Linux

User input:
--------------------------------------------------------------
$molecule
0 1
N                 -2.8958530000     -2.5429540000     -0.0840230000
C                 -2.5707520000     -1.2409180000      0.1266480000
C                 -3.6012020000     -0.3338530000      0.5059790000
C                 -3.3473460000      0.9863870000      0.7251790000
C                 -2.0380050000      1.5315910000      0.5892900000
N                 -1.8673730000      2.8636990000      0.7921810000
C                 -0.9843960000      0.6547310000      0.2393950000
C                  0.3711350000      1.1858330000      0.1268480000
O                  0.6353760000      2.3877760000      0.2568590000
C                  1.4778460000      0.2379720000     -0.1710250000
C                  1.2090380000     -1.1082480000     -0.4684100000
C                  2.2432020000     -1.9803420000     -0.8258790000
C                  3.5508590000     -1.5247170000     -0.8947330000
C                  3.8427510000     -0.1944620000     -0.5912700000
C                  2.8140220000      0.6570090000     -0.2248220000
N                  3.2346990000      2.0349280000      0.1473980000
O                  3.3319790000      2.2755020000      1.3383670000
O                  3.5438050000      2.7825270000     -0.7655740000
C                 -0.1786870000     -1.6462260000     -0.3885720000
O                 -0.3655920000     -2.8465460000     -0.6395870000
C                 -1.2541500000     -0.7400660000     -0.0012010000
H                 -3.8552340000     -2.8381950000     -0.0281840000
H                 -2.1646140000     -3.1740370000     -0.3908260000
H                 -4.6122200000     -0.7127700000      0.6161710000
H                 -4.1588000000      1.6506820000      1.0046480000
H                 -2.6315790000      3.4209870000      1.1335530000
H                 -0.9299010000      3.2430680000      0.7258230000
H                  1.9901110000     -3.0093200000     -1.0456190000
H                  4.3515310000     -2.1974000000     -1.1783450000
H                  4.8593470000      0.1773610000     -0.6302660000
$end

$rem
BASIS  =  6-311++G(d,p)
GUI  =  2
JOB_TYPE  =  SP
METHOD  =  B3LYP
SCF_CONVERGENCE  = 8
SOLVENT_METHOD = sm12
$end

$smx
solvent dimethylformamide
charges CM5
$end

--------------------------------------------------------------

             Standard Nuclear Orientation (Angstroms)
    I     Atom           X                Y                Z
 ----------------------------------------------------------------
    1      N      -2.8958530000    -2.5429540000    -0.0840230000
    2      C      -2.5707520000    -1.2409180000     0.1266480000
    3      C      -3.6012020000    -0.3338530000     0.5059790000
    4      C      -3.3473460000     0.9863870000     0.7251790000
    5      C      -2.0380050000     1.5315910000     0.5892900000
    6      N      -1.8673730000     2.8636990000     0.7921810000
    7      C      -0.9843960000     0.6547310000     0.2393950000
    8      C       0.3711350000     1.1858330000     0.1268480000
    9      O       0.6353760000     2.3877760000     0.2568590000
   10      C       1.4778460000     0.2379720000    -0.1710250000
   11      C       1.2090380000    -1.1082480000    -0.4684100000
   12      C       2.2432020000    -1.9803420000    -0.8258790000
   13      C       3.5508590000    -1.5247170000    -0.8947330000
   14      C       3.8427510000    -0.1944620000    -0.5912700000
   15      C       2.8140220000     0.6570090000    -0.2248220000
   16      N       3.2346990000     2.0349280000     0.1473980000
   17      O       3.3319790000     2.2755020000     1.3383670000
   18      O       3.5438050000     2.7825270000    -0.7655740000
   19      C      -0.1786870000    -1.6462260000    -0.3885720000
   20      O      -0.3655920000    -2.8465460000    -0.6395870000
   21      C      -1.2541500000    -0.7400660000    -0.0012010000
   22      H      -3.8552340000    -2.8381950000    -0.0281840000
   23      H      -2.1646140000    -3.1740370000    -0.3908260000
   24      H      -4.6122200000    -0.7127700000     0.6161710000
   25      H      -4.1588000000     1.6506820000     1.0046480000
   26      H      -2.6315790000     3.4209870000     1.1335530000
   27      H      -0.9299010000     3.2430680000     0.7258230000
   28      H       1.9901110000    -3.0093200000    -1.0456190000
   29      H       4.3515310000    -2.1974000000    -1.1783450000
   30      H       4.8593470000     0.1773610000    -0.6302660000
 ----------------------------------------------------------------

   16   -1004.2622583185      7.82e-09  Convergence criterion met
 Total energy in the final basis set =    -1004.2952566394

                    Orbital Energies (a.u.)
 --------------------------------------------------------------

 Alpha MOs
 -- Occupied --
-19.1747 -19.1742 -19.1160 -19.1130 -14.5662 -14.3351 -14.3341 -10.2728
-10.2681 -10.2552 -10.2453 -10.2445 -10.2213 -10.2122 -10.2114 -10.2038
-10.2004 -10.1996 -10.1993 -10.1976 -10.1960  -1.2522  -1.0805  -1.0533
 -1.0470  -0.9473  -0.9370  -0.9068  -0.8542  -0.8235  -0.8110  -0.7768
 -0.7451  -0.7185  -0.6879  -0.6672  -0.6594  -0.6108  -0.5937  -0.5866
 -0.5689  -0.5570  -0.5468  -0.5340  -0.5328  -0.5235  -0.5051  -0.4977
 -0.4894  -0.4777  -0.4710  -0.4562  -0.4484  -0.4436  -0.4270  -0.4165
 -0.4150  -0.4122  -0.4007  -0.3929  -0.3804  -0.3787  -0.3653  -0.3336
 -0.3281  -0.3238  -0.2955  -0.2822  -0.2799  -0.2781  -0.2775  -0.2687
 -0.2015

          Ground-State Mulliken Net Atomic Charges

     Atom                 Charge (a.u.)
  ----------------------------------------
      1 N                    -0.311417
      2 C                    -0.208683
      3 C                     1.535531
      4 C                     1.659721
      5 C                    -0.263971
      6 N                    -0.353708
      7 C                    -0.153464
      8 C                    -1.779277
      9 O                    -0.312159
     10 C                    -0.235336
     11 C                    -0.377945
     12 C                    -0.335422
     13 C                     0.859704
     14 C                     0.444546
     15 C                    -0.991287
     16 N                    -0.302363
     17 O                    -0.008546
     18 O                     0.007211
     19 C                    -1.523619
     20 O                    -0.302569
     21 C                    -0.081460
     22 H                     0.437899
     23 H                     0.290058
     24 H                     0.360731
     25 H                     0.345828
     26 H                     0.441330
     27 H                     0.274238
     28 H                     0.211513
     29 H                     0.407491
     30 H                     0.265424
  ----------------------------------------
  Sum of atomic charges =     0.000000

                    Cartesian Multipole Moments
 -----------------------------------------------------------------
    Charge (ESU x 10^10)
                 0.0000
    Dipole Moment (Debye)
         X      -7.5065      Y      -3.6616      Z       0.3239
       Tot       8.3582
    Quadrupole Moments (Debye-Ang)
        XX     -86.6207     XY     -20.6187     YY    -124.6599
        XZ     -11.0927     YZ       3.9175     ZZ    -125.2630

 Total job time:  871.24s(wall), 6754.65s(cpu)
        *  Thank you very much for using Q-Chem.  Have a nice day.  *
