 Q-Chem 5.4, Q-Chem, Inc., Pleasanton, CA (2021)
 Q-Chem 5.4.0 for Intel X86 EM64T Linux

User input:
--------------------------------------------------------------
$molecule
0 1
C                 -0.2232580000      3.8392630000     -0.1334010000
C                 -1.4506300000      3.2017420000     -0.2859260000
C                 -1.4965410000      1.8377530000     -0.5800620000
C                  0.9588340000      3.1087100000     -0.2762220000
C                  0.9159230000      1.7363390000     -0.5718420000
C                 -0.3184360000      1.1068310000     -0.7222110000
C                  2.2671490000      3.7692460000     -0.1174410000
C                  3.4983750000      2.9449520000     -0.2860510000
C                  3.4825090000      1.6174470000     -0.5613790000
C                  2.1802090000      0.9384530000     -0.7270400000
O                  2.4081260000      4.9584630000      0.1451680000
O                  2.1227100000     -0.2562120000     -0.9832910000
H                 -0.1619330000      4.8961910000      0.0953360000
H                 -2.3701930000      3.7648520000     -0.1763370000
H                 -2.4538220000      1.3429030000     -0.6986550000
H                 -0.3360830000      0.0482790000     -0.9499250000
O                  4.6404860000      3.6347630000     -0.1326300000
C                  4.7404100000      0.8143400000     -0.7374980000
C                  5.1998460000      0.7378440000     -2.2095510000
C                  6.4756190000     -0.0924740000     -2.3838170000
C                  6.9498640000     -0.1790660000     -3.8389170000
C                  8.2253830000     -1.0097340000     -4.0191860000
H                  4.3765590000      4.5520250000      0.0719380000
H                  4.5583940000     -0.1989380000     -0.3708750000
H                  5.5361290000      1.2579230000     -0.1335960000
H                  5.3677810000      1.7530790000     -2.5865500000
H                  4.3948830000      0.3037010000     -2.8119220000
H                  6.3023440000     -1.1050610000     -1.9979900000
H                  7.2752460000      0.3376440000     -1.7670090000
H                  7.1208550000      0.8343100000     -4.2247140000
H                  6.1489730000     -0.6078930000     -4.4548450000
H                  8.0550610000     -2.0232880000     -3.6331850000
H                  9.0269990000     -0.5815860000     -3.4031180000
C                  8.7014470000     -1.0985970000     -5.4736190000
C                  9.9759540000     -1.9304470000     -5.6443560000
H                  8.8720670000     -0.0860900000     -5.8594980000
H                  7.9009520000     -1.5268670000     -6.0891550000
H                 10.8049630000     -1.5068880000     -5.0684330000
H                 10.2880190000     -1.9741920000     -6.6916100000
H                  9.8264460000     -2.9585200000     -5.2993650000
$end

$rem
BASIS  =  6-311++G(d,p)
GUI  =  2
JOB_TYPE  =  SP
METHOD  =  B3LYP
SCF_CONVERGENCE  = 8
SOLVENT_METHOD = sm12
$end

$smx
solvent dimethylformamide
charges CM5
$end

--------------------------------------------------------------

             Standard Nuclear Orientation (Angstroms)
    I     Atom           X                Y                Z
 ----------------------------------------------------------------
    1      C      -0.2232580000     3.8392630000    -0.1334010000
    2      C      -1.4506300000     3.2017420000    -0.2859260000
    3      C      -1.4965410000     1.8377530000    -0.5800620000
    4      C       0.9588340000     3.1087100000    -0.2762220000
    5      C       0.9159230000     1.7363390000    -0.5718420000
    6      C      -0.3184360000     1.1068310000    -0.7222110000
    7      C       2.2671490000     3.7692460000    -0.1174410000
    8      C       3.4983750000     2.9449520000    -0.2860510000
    9      C       3.4825090000     1.6174470000    -0.5613790000
   10      C       2.1802090000     0.9384530000    -0.7270400000
   11      O       2.4081260000     4.9584630000     0.1451680000
   12      O       2.1227100000    -0.2562120000    -0.9832910000
   13      H      -0.1619330000     4.8961910000     0.0953360000
   14      H      -2.3701930000     3.7648520000    -0.1763370000
   15      H      -2.4538220000     1.3429030000    -0.6986550000
   16      H      -0.3360830000     0.0482790000    -0.9499250000
   17      O       4.6404860000     3.6347630000    -0.1326300000
   18      C       4.7404100000     0.8143400000    -0.7374980000
   19      C       5.1998460000     0.7378440000    -2.2095510000
   20      C       6.4756190000    -0.0924740000    -2.3838170000
   21      C       6.9498640000    -0.1790660000    -3.8389170000
   22      C       8.2253830000    -1.0097340000    -4.0191860000
   23      H       4.3765590000     4.5520250000     0.0719380000
   24      H       4.5583940000    -0.1989380000    -0.3708750000
   25      H       5.5361290000     1.2579230000    -0.1335960000
   26      H       5.3677810000     1.7530790000    -2.5865500000
   27      H       4.3948830000     0.3037010000    -2.8119220000
   28      H       6.3023440000    -1.1050610000    -1.9979900000
   29      H       7.2752460000     0.3376440000    -1.7670090000
   30      H       7.1208550000     0.8343100000    -4.2247140000
   31      H       6.1489730000    -0.6078930000    -4.4548450000
   32      H       8.0550610000    -2.0232880000    -3.6331850000
   33      H       9.0269990000    -0.5815860000    -3.4031180000
   34      C       8.7014470000    -1.0985970000    -5.4736190000
   35      C       9.9759540000    -1.9304470000    -5.6443560000
   36      H       8.8720670000    -0.0860900000    -5.8594980000
   37      H       7.9009520000    -1.5268670000    -6.0891550000
   38      H      10.8049630000    -1.5068880000    -5.0684330000
   39      H      10.2880190000    -1.9741920000    -6.6916100000
   40      H       9.8264460000    -2.9585200000    -5.2993650000
 ----------------------------------------------------------------

   15    -885.7950295950      9.28e-09  Convergence criterion met
 Total energy in the final basis set =     -885.8174503313

                    Orbital Energies (a.u.)
 --------------------------------------------------------------

 Alpha MOs
 -- Occupied --
-19.1791 -19.1488 -19.1263 -10.2926 -10.2785 -10.2675 -10.2110 -10.2096
-10.2045 -10.2010 -10.1991 -10.1973 -10.1971 -10.1772 -10.1695 -10.1655
-10.1646 -10.1639 -10.1636 -10.1578  -1.1091  -1.0669  -1.0596  -0.8923
 -0.8450  -0.8129  -0.7942  -0.7798  -0.7716  -0.7375  -0.7023  -0.6786
 -0.6555  -0.6377  -0.6097  -0.6038  -0.5825  -0.5792  -0.5736  -0.5422
 -0.5181  -0.4970  -0.4850  -0.4781  -0.4726  -0.4648  -0.4601  -0.4522
 -0.4444  -0.4382  -0.4321  -0.4245  -0.4174  -0.4149  -0.4087  -0.4012
 -0.3855  -0.3799  -0.3770  -0.3744  -0.3713  -0.3663  -0.3464  -0.3439
 -0.3297  -0.3293  -0.3250  -0.3179  -0.3020  -0.2892  -0.2794  -0.2767
 -0.2575

          Ground-State Mulliken Net Atomic Charges

     Atom                 Charge (a.u.)
  ----------------------------------------
      1 C                     0.417976
      2 C                     0.412259
      3 C                     0.399571
      4 C                     0.509929
      5 C                    -0.643393
      6 C                    -0.009380
      7 C                    -1.082296
      8 C                    -0.526738
      9 C                     1.484996
     10 C                    -1.507036
     11 O                    -0.292244
     12 O                    -0.284357
     13 H                     0.217662
     14 H                     0.330279
     15 H                     0.317261
     16 H                     0.185260
     17 O                    -0.197924
     18 C                    -0.240111
     19 C                    -0.584104
     20 C                     0.085211
     21 C                    -0.058304
     22 C                    -0.292670
     23 H                     0.293897
     24 H                     0.182002
     25 H                     0.226952
     26 H                     0.138064
     27 H                     0.114638
     28 H                     0.103636
     29 H                     0.106165
     30 H                     0.111232
     31 H                     0.108090
     32 H                     0.105475
     33 H                     0.106541
     34 C                    -0.279017
     35 C                    -0.653591
     36 H                     0.127413
     37 H                     0.126530
     38 H                     0.141304
     39 H                     0.158038
     40 H                     0.140784
  ----------------------------------------
  Sum of atomic charges =     0.000000

                    Cartesian Multipole Moments
 -----------------------------------------------------------------
    Charge (ESU x 10^10)
                 0.0000
    Dipole Moment (Debye)
         X      -2.7817      Y       1.1950      Z       0.0413
       Tot       3.0278
    Quadrupole Moments (Debye-Ang)
        XX    -117.2081     XY      -4.6489     YY    -124.1866
        XZ       0.6921     YZ      -1.4674     ZZ    -122.9179

 Total job time:  1262.41s(wall), 9920.62s(cpu)
        *  Thank you very much for using Q-Chem.  Have a nice day.  *
