 Gaussian 16, Revision A.03,
 Gaussian 16:  ES64L-G16RevA.03 25-Dec-2016

 --------------------------------------
 #P UB3LYP/6-311++G(d,p) nosym opt freq
 --------------------------------------

 --------
 Oxidized
 --------
 Symbolic Z-matrix:
 Charge =  0 Multiplicity = 1

 SCF Done:  E(UB3LYP) =  -885.795645271     A.U. after   17 cycles
 Optimization completed.
    -- Stationary point found.
 Normal termination of Gaussian 16 at Mon Jan  8 01:32:13 2024.

 ----------------------------------------------------------------------
 #P Geom=AllCheck Guess=TCheck SCRF=Check GenChk UB3LYP/6-311++G(d,p) F
 req
 ----------------------------------------------------------------------

 Structure from the checkpoint file:  "285.chk"
 --------
 Oxidized
 --------
 Charge =  0 Multiplicity = 1

                          Input orientation:
 ---------------------------------------------------------------------
 Center     Atomic      Atomic             Coordinates (Angstroms)
 Number     Number       Type             X           Y           Z
 ---------------------------------------------------------------------
      1          6           0       -0.223258    3.839263   -0.133401
      2          6           0       -1.450630    3.201742   -0.285926
      3          6           0       -1.496541    1.837753   -0.580062
      4          6           0        0.958834    3.108710   -0.276222
      5          6           0        0.915923    1.736339   -0.571842
      6          6           0       -0.318436    1.106831   -0.722211
      7          6           0        2.267149    3.769246   -0.117441
      8          6           0        3.498375    2.944952   -0.286051
      9          6           0        3.482509    1.617447   -0.561379
     10          6           0        2.180209    0.938453   -0.727040
     11          8           0        2.408126    4.958463    0.145168
     12          8           0        2.122710   -0.256212   -0.983291
     13          1           0       -0.161933    4.896191    0.095336
     14          1           0       -2.370193    3.764852   -0.176337
     15          1           0       -2.453822    1.342903   -0.698655
     16          1           0       -0.336083    0.048279   -0.949925
     17          8           0        4.640486    3.634763   -0.132630
     18          6           0        4.740410    0.814340   -0.737498
     19          6           0        5.199846    0.737844   -2.209551
     20          6           0        6.475619   -0.092474   -2.383817
     21          6           0        6.949864   -0.179066   -3.838917
     22          6           0        8.225383   -1.009734   -4.019186
     23          1           0        4.376559    4.552025    0.071938
     24          1           0        4.558394   -0.198938   -0.370875
     25          1           0        5.536129    1.257923   -0.133596
     26          1           0        5.367781    1.753079   -2.586550
     27          1           0        4.394883    0.303701   -2.811922
     28          1           0        6.302344   -1.105061   -1.997990
     29          1           0        7.275246    0.337644   -1.767009
     30          1           0        7.120855    0.834310   -4.224714
     31          1           0        6.148973   -0.607893   -4.454845
     32          1           0        8.055061   -2.023288   -3.633185
     33          1           0        9.026999   -0.581586   -3.403118
     34          6           0        8.701447   -1.098597   -5.473619
     35          6           0        9.975954   -1.930447   -5.644356
     36          1           0        8.872067   -0.086090   -5.859498
     37          1           0        7.900952   -1.526867   -6.089155
     38          1           0       10.804963   -1.506888   -5.068433
     39          1           0       10.288019   -1.974192   -6.691610
     40          1           0        9.826446   -2.958520   -5.299365
 ---------------------------------------------------------------------

 SCF Done:  E(UB3LYP) =  -885.795645271     A.U. after    1 cycles

 Alpha  occ. eigenvalues --  -19.17887 -19.14998 -19.12598 -10.29388 -10.27806
 Alpha  occ. eigenvalues --  -10.26746 -10.21568 -10.21387 -10.20792 -10.20775
 Alpha  occ. eigenvalues --  -10.20649 -10.20488 -10.20306 -10.17624 -10.16791
 Alpha  occ. eigenvalues --  -10.16318 -10.16288 -10.16182 -10.16101 -10.15600
 Alpha  occ. eigenvalues --   -1.10937  -1.06756  -1.05878  -0.89786  -0.84627
 Alpha  occ. eigenvalues --   -0.81193  -0.79569  -0.78570  -0.77233  -0.73711
 Alpha  occ. eigenvalues --   -0.70308  -0.67995  -0.65881  -0.63932  -0.61188
 Alpha  occ. eigenvalues --   -0.60550  -0.58093  -0.57798  -0.57585  -0.54404
 Alpha  occ. eigenvalues --   -0.52186  -0.50134  -0.48604  -0.48152  -0.47335
 Alpha  occ. eigenvalues --   -0.46722  -0.46016  -0.45722  -0.44385  -0.43840
 Alpha  occ. eigenvalues --   -0.43177  -0.42402  -0.41659  -0.41503  -0.41030
 Alpha  occ. eigenvalues --   -0.40253  -0.38966  -0.38065  -0.37991  -0.37528
 Alpha  occ. eigenvalues --   -0.37428  -0.36647  -0.34441  -0.34202  -0.32746
 Alpha  occ. eigenvalues --   -0.32718  -0.32236  -0.31634  -0.30249  -0.29390
 Alpha  occ. eigenvalues --   -0.28519  -0.27556  -0.25823
 Alpha virt. eigenvalues --   -0.12643  -0.06059  -0.03080  -0.01289  -0.00562
 Alpha virt. eigenvalues --   -0.00162   0.00822   0.00862   0.01313   0.01431
 Alpha virt. eigenvalues --    0.02234   0.02307   0.02601   0.03238   0.03836

  Beta  occ. eigenvalues --  -19.17887 -19.14998 -19.12598 -10.29388 -10.27806
  Beta  occ. eigenvalues --  -10.26746 -10.21568 -10.21387 -10.20792 -10.20775
  Beta  occ. eigenvalues --  -10.20649 -10.20488 -10.20306 -10.17624 -10.16791
  Beta  occ. eigenvalues --  -10.16318 -10.16288 -10.16182 -10.16101 -10.15600
  Beta  occ. eigenvalues --   -1.10937  -1.06756  -1.05878  -0.89786  -0.84627
  Beta  occ. eigenvalues --   -0.81193  -0.79569  -0.78570  -0.77233  -0.73711
  Beta  occ. eigenvalues --   -0.70308  -0.67995  -0.65881  -0.63932  -0.61188
  Beta  occ. eigenvalues --   -0.60550  -0.58093  -0.57798  -0.57585  -0.54404
  Beta  occ. eigenvalues --   -0.52186  -0.50134  -0.48604  -0.48152  -0.47335
  Beta  occ. eigenvalues --   -0.46722  -0.46016  -0.45722  -0.44385  -0.43840
  Beta  occ. eigenvalues --   -0.43177  -0.42402  -0.41659  -0.41503  -0.41030
  Beta  occ. eigenvalues --   -0.40253  -0.38966  -0.38065  -0.37991  -0.37528
  Beta  occ. eigenvalues --   -0.37428  -0.36647  -0.34441  -0.34202  -0.32746
  Beta  occ. eigenvalues --   -0.32718  -0.32236  -0.31634  -0.30249  -0.29390
  Beta  occ. eigenvalues --   -0.28519  -0.27556  -0.25823
  Beta virt. eigenvalues --   -0.12643  -0.06059  -0.03080  -0.01289  -0.00562
  Beta virt. eigenvalues --   -0.00162   0.00822   0.00862   0.01313   0.01431
  Beta virt. eigenvalues --    0.02234   0.02307   0.02601   0.03238   0.03836

 Mulliken charges and spin densities:
               1          2
     1  C    0.176469  -0.000000
     2  C   -0.328505  -0.000000
     3  C   -0.339506  -0.000000
     4  C    0.497653   0.000000
     5  C   -0.061060  -0.000000
     6  C    0.145598   0.000000
     7  C   -0.883498  -0.000000
     8  C   -0.486774   0.000000
     9  C    1.934369   0.000000
    10  C   -0.886303  -0.000000
    11  O   -0.277326   0.000000
    12  O   -0.209026  -0.000000
    13  H    0.185775  -0.000000
    14  H    0.180083  -0.000000
    15  H    0.177677   0.000000
    16  H    0.190990  -0.000000
    17  O   -0.196668  -0.000000
    18  C   -0.356495   0.000000
    19  C   -0.612114  -0.000000
    20  C   -0.081981   0.000000
    21  C   -0.093979  -0.000000
    22  C   -0.272872  -0.000000
    23  H    0.287875  -0.000000
    24  H    0.225728   0.000000
    25  H    0.230969   0.000000
    26  H    0.169146   0.000000
    27  H    0.177965  -0.000000
    28  H    0.116164  -0.000000
    29  H    0.110069  -0.000000
    30  H    0.119428   0.000000
    31  H    0.121348   0.000000
    32  H    0.122285   0.000000
    33  H    0.121067   0.000000
    34  C   -0.213864   0.000000
    35  C   -0.657196  -0.000000
    36  H    0.127368  -0.000000
    37  H    0.128128  -0.000000
    38  H    0.135008   0.000000
    39  H    0.140539  -0.000000
    40  H    0.135465   0.000000
 Sum of Mulliken charges =  -0.00000   0.00000

 Dipole moment (field-independent basis, Debye):
    X=             -1.9990    Y=              0.8858    Z=             -0.0363  Tot=              2.1868
 Quadrupole moment (field-independent basis, Debye-Ang):
   XX=           -117.2917   YY=           -125.0520   ZZ=           -122.6869
   XY=             -3.1976   XZ=              0.2257   YZ=             -1.4115

  Exact polarizability: 271.756 -22.139 231.924 -22.522  32.329 154.529
 Approx polarizability: 360.163   9.770 434.405   2.962  49.862 222.853

                      1                      2                      3
                      A                      A                      A
 Frequencies --     16.9304                27.0165                33.9685
 Red. masses --      5.1971                 5.3006                 1.7005
 Frc consts  --      0.0009                 0.0023                 0.0012
 IR Inten    --      0.1521                 0.7389                 0.0267

                      4                      5                      6
                      A                      A                      A
 Frequencies --     58.0728                64.1929                87.7705
 Red. masses --      2.8981                 5.8315                 5.3697
 Frc consts  --      0.0058                 0.0142                 0.0244
 IR Inten    --      0.2667                 3.0785                 0.5271

                      7                      8                      9
                      A                      A                      A
 Frequencies --     99.0743               117.4171               128.6277
 Red. masses --      1.8582                 4.5044                 6.4597
 Frc consts  --      0.0107                 0.0366                 0.0630
 IR Inten    --      0.0738                 0.1661                 0.0721

                     10                     11                     12
                      A                      A                      A
 Frequencies --    132.3642               153.0492               175.9466
 Red. masses --      2.1573                 1.9156                 6.5247
 Frc consts  --      0.0223                 0.0264                 0.1190
 IR Inten    --      0.0753                 0.0102                 0.4743

                     13                     14                     15
                      A                      A                      A
 Frequencies --    202.8207               243.5123               251.8071
 Red. masses --      3.7888                 1.1205                 4.3051
 Frc consts  --      0.0918                 0.0391                 0.1608
 IR Inten    --      0.0532                 0.0006                 0.1885

                     16                     17                     18
                      A                      A                      A
 Frequencies --    267.9518               303.1319               342.3357
 Red. masses --      4.2258                 2.9317                 5.1825
 Frc consts  --      0.1788                 0.1587                 0.3578
 IR Inten    --      0.1176                 2.3218                 4.9074

                     19                     20                     21
                      A                      A                      A
 Frequencies --    359.3248               385.7138               399.0122
 Red. masses --      4.2777                 7.4231                 5.1361
 Frc consts  --      0.3254                 0.6507                 0.4818
 IR Inten    --      2.3477                 6.8566                23.1103

                     22                     23                     24
                      A                      A                      A
 Frequencies --    419.9239               427.3052               444.7675
 Red. masses --      9.7289                 3.5410                 4.7484
 Frc consts  --      1.0108                 0.3809                 0.5534
 IR Inten    --      6.6067                 1.7377                 2.5639

                     25                     26                     27
                      A                      A                      A
 Frequencies --    474.5629               478.7017               526.6101
 Red. masses --      3.3856                 6.1797                 7.0179
 Frc consts  --      0.4492                 0.8343                 1.1467
 IR Inten    --      0.9452                 4.7537                 3.0078

                     28                     29                     30
                      A                      A                      A
 Frequencies --    588.8650               647.0723               654.3156
 Red. masses --      5.8964                 1.1522                 5.7526
 Frc consts  --      1.2047                 0.2842                 1.4511
 IR Inten    --      7.1336                68.8007                 7.6820

                     31                     32                     33
                      A                      A                      A
 Frequencies --    677.8004               707.5276               713.1122
 Red. masses --      6.0203                 3.3577                 4.5866
 Frc consts  --      1.6296                 0.9903                 1.3742
 IR Inten    --      2.6165                 2.8154                 3.7072

                     34                     35                     36
                      A                      A                      A
 Frequencies --    732.0555               735.8980               739.0787
 Red. masses --      1.0694                 2.4460                 1.1846
 Frc consts  --      0.3377                 0.7805                 0.3812
 IR Inten    --      5.0917                76.8177                 0.7747

                     37                     38                     39
                      A                      A                      A
 Frequencies --    762.2891               766.5400               805.5724
 Red. masses --      6.3125                 1.2877                 1.8820
 Frc consts  --      2.1612                 0.4458                 0.7196
 IR Inten    --      2.5918                 1.1036                12.1344

                     40                     41                     42
                      A                      A                      A
 Frequencies --    820.6735               872.3802               896.7720
 Red. masses --      1.5160                 2.0696                 1.9612
 Frc consts  --      0.6016                 0.9280                 0.9293
 IR Inten    --      2.9260                 9.2726                 1.8524

                     43                     44                     45
                      A                      A                      A
 Frequencies --    912.6603               934.0913               950.0084
 Red. masses --      1.3236                 1.4748                 5.5428
 Frc consts  --      0.6496                 0.7582                 2.9474
 IR Inten    --      0.0132                 3.4441                28.6579

                     46                     47                     48
                      A                      A                      A
 Frequencies --    988.1805               997.6497              1010.9808
 Red. masses --      4.7213                 1.3809                 1.6646
 Frc consts  --      2.7163                 0.8098                 1.0024
 IR Inten    --     19.4932                 1.3827                 4.9030

                     49                     50                     51
                      A                      A                      A
 Frequencies --   1016.2111              1026.3077              1038.0334
 Red. masses --      1.3264                 2.9785                 3.1031
 Frc consts  --      0.8071                 1.8485                 1.9700
 IR Inten    --      0.1278                13.0102                 2.9759

                     52                     53                     54
                      A                      A                      A
 Frequencies --   1043.4169              1057.1513              1058.3557
 Red. masses --      2.3772                 1.9308                 2.5854
 Frc consts  --      1.5249                 1.2713                 1.7062
 IR Inten    --     23.2843                 4.4949                 0.6256

                     55                     56                     57
                      A                      A                      A
 Frequencies --   1066.6992              1110.4615              1132.6916
 Red. masses --      2.2819                 2.1920                 2.3788
 Frc consts  --      1.5298                 1.5926                 1.7982
 IR Inten    --      0.4960                 1.8078                 9.2548

                     58                     59                     60
                      A                      A                      A
 Frequencies --   1136.2153              1182.3268              1195.5804
 Red. masses --      1.7774                 1.1794                 2.2699
 Frc consts  --      1.3519                 0.9714                 1.9117
 IR Inten    --     27.1538                21.6112                30.1176

                     61                     62                     63
                      A                      A                      A
 Frequencies --   1217.1575              1232.0411              1245.1885
 Red. masses --      1.7350                 2.3827                 1.2675
 Frc consts  --      1.5144                 2.1309                 1.1579
 IR Inten    --      7.3493                65.2703                 0.6949

                     64                     65                     66
                      A                      A                      A
 Frequencies --   1268.8936              1285.7642              1300.8824
 Red. masses --      1.4215                 1.7603                 1.4146
 Frc consts  --      1.3485                 1.7146                 1.4104
 IR Inten    --     75.9528                30.0605                14.2794

                     67                     68                     69
                      A                      A                      A
 Frequencies --   1305.7450              1309.9314              1324.1109
 Red. masses --      1.6307                 1.9319                 1.4322
 Frc consts  --      1.6381                 1.9531                 1.4795
 IR Inten    --    193.4327                19.9693                56.2493

                     70                     71                     72
                      A                      A                      A
 Frequencies --   1330.3646              1337.6827              1344.1432
 Red. masses --      1.1952                 1.1239                 1.5012
 Frc consts  --      1.2464                 1.1849                 1.5980
 IR Inten    --     26.4961                 3.9587                25.8792

                     73                     74                     75
                      A                      A                      A
 Frequencies --   1346.4585              1366.8786              1375.4483
 Red. masses --      1.3898                 6.3112                 1.4129
 Frc consts  --      1.4845                 6.9474                 1.5749
 IR Inten    --      0.9480                67.4962                 4.5721

                     76                     77                     78
                      A                      A                      A
 Frequencies --   1394.6033              1399.2382              1401.3936
 Red. masses --      1.5231                 1.6073                 2.0865
 Frc consts  --      1.7453                 1.8541                 2.4143
 IR Inten    --     14.0342                 7.1008               323.9332

                     79                     80                     81
                      A                      A                      A
 Frequencies --   1412.9091              1479.4489              1485.0150
 Red. masses --      1.2497                 1.1922                 1.1001
 Frc consts  --      1.4699                 1.5375                 1.4294
 IR Inten    --      2.4510                 5.2251                 0.3603

                     82                     83                     84
                      A                      A                      A
 Frequencies --   1485.4325              1487.3215              1490.6078
 Red. masses --      1.5571                 1.2858                 1.0716
 Frc consts  --      2.0243                 1.6758                 1.4029
 IR Inten    --      4.7177                 7.2261                 0.6866

                     85                     86                     87
                      A                      A                      A
 Frequencies --   1498.2049              1499.5385              1506.5780
 Red. masses --      1.0793                 1.0397                 2.1067
 Frc consts  --      1.4274                 1.3775                 2.8173
 IR Inten    --      2.1519                 7.8901                 2.1968

                     88                     89                     90
                      A                      A                      A
 Frequencies --   1507.0208              1513.9423              1613.5027
 Red. masses --      1.2187                 1.0965                 6.6630
 Frc consts  --      1.6308                 1.4808                10.2201
 IR Inten    --      2.2867                11.9649                 2.0478

                     91                     92                     93
                      A                      A                      A
 Frequencies --   1627.9073              1690.5571              1702.1495
 Red. masses --      5.9410                 7.9823                11.2225
 Frc consts  --      9.2762                13.4411                19.1574
 IR Inten    --     78.9823                47.3292                59.3611

                     94                     95                     96
                      A                      A                      A
 Frequencies --   1704.6307              2991.1598              2993.0950
 Red. masses --     11.2459                 1.0575                 1.0577
 Frc consts  --     19.2533                 5.5746                 5.5826
 IR Inten    --    404.0093                 0.8383                 0.3095

                     97                     98                     99
                      A                      A                      A
 Frequencies --   2999.9793              3007.1085              3008.4224
 Red. masses --      1.0592                 1.0664                 1.0915
 Frc consts  --      5.6162                 5.6817                 5.8206
 IR Inten    --     12.0160                63.6965                12.6830

                    100                    101                    102
                      A                      A                      A
 Frequencies --   3016.0742              3016.6464              3019.2756
 Red. masses --      1.0903                 1.0375                 1.0683
 Frc consts  --      5.8437                 5.5629                 5.7378
 IR Inten    --      6.1956                51.6663                34.6801

                    103                    104                    105
                      A                      A                      A
 Frequencies --   3031.2099              3045.3898              3047.5081
 Red. masses --      1.1032                 1.0988                 1.0644
 Frc consts  --      5.9721                 6.0042                 5.8243
 IR Inten    --      0.4480                37.4945                35.9629

                    106                    107                    108
                      A                      A                      A
 Frequencies --   3059.4882              3077.0914              3081.3636
 Red. masses --      1.1041                 1.1025                 1.1009
 Frc consts  --      6.0892                 6.1503                 6.1587
 IR Inten    --     52.9394                71.7771                46.1788

                    109                    110                    111
                      A                      A                      A
 Frequencies --   3094.2820              3171.6839              3185.7514
 Red. masses --      1.1056                 1.0871                 1.0915
 Frc consts  --      6.2370                 6.4429                 6.5267
 IR Inten    --     14.5293                 3.1477                 8.3070

                    112                    113                    114
                      A                      A                      A
 Frequencies --   3199.5310              3202.9102              3617.8340
 Red. masses --      1.0933                 1.0948                 1.0642
 Frc consts  --      6.5941                 6.6171                 8.2070
 IR Inten    --      1.6052                 8.5205               153.1223

 - Thermochemistry -
 -------------------
 Temperature   298.150 Kelvin.  Pressure   1.00000 Atm.
 Atom     1 has atomic number  6 and mass  12.00000

 Molecular mass:   272.14124 amu.
 Principal axes and moments of inertia in atomic units:
                           1         2         3
     Eigenvalues --  2365.44267********************
           X            0.81329   0.54106   0.21406
           Y           -0.39572   0.78402  -0.47825
           Z           -0.42659   0.30425   0.85174
 This molecule is an asymmetric top.
 Rotational symmetry number  1.
 Warning -- assumption of classical behavior for rotation
           may cause significant error
 Rotational temperatures (Kelvin)      0.03662     0.00552     0.00504
 Rotational constants (GHZ):           0.76296     0.11505     0.10497
 Zero-point vibrational energy     878988.4 (Joules/Mol)
                                  210.08327 (Kcal/Mol)
 Warning -- explicit consideration of  28 degrees of freedom as
           vibrations may cause significant error
 Vibrational temperatures:     24.36    38.87    48.87    83.55    92.36
          (Kelvin)            126.28   142.55   168.94   185.07   190.44
                              220.20   253.15   291.81   350.36   362.29
                              385.52   436.14   492.54   516.99   554.96
                              574.09   604.18   614.80   639.92   682.79
                              688.74   757.67   847.25   930.99   941.41
                              975.20  1017.97  1026.01  1053.26  1058.79
                             1063.37  1096.76  1102.88  1159.04  1180.77
                             1255.16  1290.25  1313.11  1343.95  1366.85
                             1421.77  1435.40  1454.58  1462.10  1476.63
                             1493.50  1501.24  1521.00  1522.74  1534.74
                             1597.71  1629.69  1634.76  1701.10  1720.17
                             1751.22  1772.63  1791.55  1825.65  1849.93
                             1871.68  1878.68  1884.70  1905.10  1914.10
                             1924.63  1933.92  1937.25  1966.63  1978.96
                             2006.52  2013.19  2016.29  2032.86  2128.60
                             2136.61  2137.21  2139.92  2144.65  2155.58
                             2157.50  2167.63  2168.27  2178.23  2321.47
                             2342.20  2432.33  2449.01  2452.58  4303.61
                             4306.40  4316.30  4326.56  4328.45  4339.46
                             4340.28  4344.06  4361.23  4381.64  4384.68
                             4401.92  4427.25  4433.39  4451.98  4563.35
                             4583.59  4603.41  4608.27  5205.26

 Zero-point correction=                           0.334789 (Hartree/Particle)
 Thermal correction to Energy=                    0.354342
 Thermal correction to Enthalpy=                  0.355286
 Thermal correction to Gibbs Free Energy=         0.284084
 Sum of electronic and zero-point Energies=           -885.460856
 Sum of electronic and thermal Energies=              -885.441304
 Sum of electronic and thermal Enthalpies=            -885.440359
 Sum of electronic and thermal Free Energies=         -885.511562

                     E (Thermal)             CV                S
                      KCal/Mol        Cal/Mol-Kelvin    Cal/Mol-Kelvin
 Total                  222.353             73.252            149.858
 Electronic               0.000              0.000              0.000
 Translational            0.889              2.981             42.702
 Rotational               0.889              2.981             34.811
 Vibrational            220.575             67.290             72.345
 Vibration     1          0.593              1.986              6.965
 Vibration     2          0.593              1.984              6.037
 Vibration     3          0.594              1.983              5.583
 Vibration     4          0.596              1.974              4.522
 Vibration     5          0.597              1.971              4.324
 Vibration     6          0.601              1.958              3.709
 Vibration     7          0.604              1.950              3.472
 Vibration     8          0.608              1.935              3.142
 Vibration     9          0.611              1.925              2.966
 Vibration    10          0.612              1.921              2.911
 Vibration    11          0.619              1.899              2.634
 Vibration    12          0.628              1.872              2.371
 Vibration    13          0.639              1.836              2.107
 Vibration    14          0.659              1.773              1.777
 Vibration    15          0.664              1.760              1.718
 Vibration    16          0.673              1.732              1.609
 Vibration    17          0.695              1.668              1.400
 Vibration    18          0.721              1.591              1.201
 Vibration    19          0.734              1.556              1.125
 Vibration    20          0.754              1.501              1.017
 Vibration    21          0.765              1.472              0.966
 Vibration    22          0.783              1.427              0.892
 Vibration    23          0.789              1.411              0.868
 Vibration    24          0.804              1.372              0.812
 Vibration    25          0.831              1.306              0.725
 Vibration    26          0.835              1.297              0.714
 Vibration    27          0.882              1.191              0.595
 Vibration    28          0.946              1.056              0.469

 Optimization completed.
    -- Stationary point found.
 Normal termination of Gaussian 16 at Mon Jan  8 04:35:16 2024.
