 Gaussian 16, Revision A.03,
 Gaussian 16:  ES64L-G16RevA.03 25-Dec-2016

 ----------------------------------------------------------------------
 #P UB3LYP/6-311++G(d,p) nosym opt freq SCRF=(PCM,Solvent=n,n-DiMethylF
 ormamide)
 ----------------------------------------------------------------------

 --------
 Oxidized
 --------
 Symbolic Z-matrix:
 Charge =  0 Multiplicity = 1

 SCF Done:  E(UB3LYP) =  -649.655403972     A.U. after   14 cycles
 SCF Done:  E(UB3LYP) =  -649.655789802     A.U. after   11 cycles
 SCF Done:  E(UB3LYP) =  -649.655873085     A.U. after   10 cycles
 SCF Done:  E(UB3LYP) =  -649.655876229     A.U. after    9 cycles
 SCF Done:  E(UB3LYP) =  -649.655875690     A.U. after    9 cycles
 SCF Done:  E(UB3LYP) =  -649.655876756     A.U. after    9 cycles
 SCF Done:  E(UB3LYP) =  -649.655877276     A.U. after    9 cycles
 Optimization completed.
    -- Stationary point found.
 Normal termination of Gaussian 16 at Sat Feb 10 10:51:30 2024.

 ----------------------------------------------------------------------
 #P Geom=AllCheck Guess=TCheck SCRF=Check GenChk UB3LYP/6-311++G(d,p) F
 req
 ----------------------------------------------------------------------

 Structure from the checkpoint file:  "100.chk"
 --------
 Oxidized
 --------
 Charge =  0 Multiplicity = 1

                          Input orientation:
 ---------------------------------------------------------------------
 Center     Atomic      Atomic             Coordinates (Angstroms)
 Number     Number       Type             X           Y           Z
 ---------------------------------------------------------------------
      1          6           0        2.459104    3.339118    2.879590
      2          6           0        3.567876    3.281280    1.993561
      3          6           0        3.453342    2.689350    0.752780
      4          6           0        2.133135    2.073070    0.282245
      5          6           0        1.024391    2.130815    1.168316
      6          6           0        1.138928    2.722738    2.409100
      7          8           0        2.483646    3.853205    4.008030
      8          8           0        2.108642    1.558821   -0.846122
      9          7           0        0.161300    2.824729    3.306091
     10          6           0       -1.201202    2.330222    3.138450
     11          6           0       -2.040492    2.618468    4.376607
     12          7           0        4.430992    2.587285   -0.144177
     13          6           0        5.793524    3.081696    0.023507
     14          6           0        6.632871    2.793270   -1.214570
     15          1           0        4.498622    3.718359    2.331394
     16          1           0        0.093664    1.693675    0.830511
     17          1           0        0.424418    3.292891    4.168124
     18          1           0       -1.166265    1.252881    2.942251
     19          1           0       -1.645278    2.804204    2.256068
     20          1           0       -1.621147    2.130248    5.260079
     21          1           0       -3.053931    2.240516    4.230565
     22          1           0       -2.104311    3.692503    4.569109
     23          1           0        4.167863    2.119160   -1.006227
     24          1           0        6.237502    2.607754    0.905959
     25          1           0        5.758666    4.159058    0.219609
     26          1           0        6.696619    1.719213   -1.406968
     27          1           0        7.646330    3.171159   -1.068498
     28          1           0        6.213621    3.281441   -2.098114
 ---------------------------------------------------------------------

 SCF Done:  E(UB3LYP) =  -649.655877276     A.U. after    1 cycles

 Alpha  occ. eigenvalues --  -19.11505 -19.11504 -14.36182 -14.36181 -10.26933
 Alpha  occ. eigenvalues --  -10.26932 -10.24884 -10.24883 -10.21991 -10.21991
 Alpha  occ. eigenvalues --  -10.17261 -10.17260 -10.17237 -10.17237  -1.04896
 Alpha  occ. eigenvalues --   -1.04596  -0.96968  -0.96963  -0.83591  -0.79148
 Alpha  occ. eigenvalues --   -0.76898  -0.74584  -0.68719  -0.66387  -0.64317
 Alpha  occ. eigenvalues --   -0.61706  -0.59535  -0.55033  -0.52537  -0.52357
 Alpha  occ. eigenvalues --   -0.49054  -0.48641  -0.48325  -0.46235  -0.44852
 Alpha  occ. eigenvalues --   -0.44085  -0.44002  -0.43920  -0.40847  -0.40141
 Alpha  occ. eigenvalues --   -0.39530  -0.39406  -0.38765  -0.38303  -0.38063
 Alpha  occ. eigenvalues --   -0.37249  -0.33999  -0.32822  -0.28143  -0.27291
 Alpha  occ. eigenvalues --   -0.25080  -0.22375
 Alpha virt. eigenvalues --   -0.10622  -0.00858  -0.00238   0.00292   0.00753
 Alpha virt. eigenvalues --    0.01393   0.01631   0.01897   0.02694   0.02759
 Alpha virt. eigenvalues --    0.03184   0.04270   0.04272   0.05480   0.05585

  Beta  occ. eigenvalues --  -19.11505 -19.11504 -14.36182 -14.36181 -10.26933
  Beta  occ. eigenvalues --  -10.26932 -10.24884 -10.24883 -10.21991 -10.21991
  Beta  occ. eigenvalues --  -10.17261 -10.17260 -10.17237 -10.17237  -1.04896
  Beta  occ. eigenvalues --   -1.04596  -0.96968  -0.96963  -0.83591  -0.79148
  Beta  occ. eigenvalues --   -0.76898  -0.74584  -0.68719  -0.66387  -0.64317
  Beta  occ. eigenvalues --   -0.61706  -0.59535  -0.55033  -0.52537  -0.52357
  Beta  occ. eigenvalues --   -0.49054  -0.48641  -0.48325  -0.46235  -0.44852
  Beta  occ. eigenvalues --   -0.44085  -0.44002  -0.43920  -0.40847  -0.40141
  Beta  occ. eigenvalues --   -0.39530  -0.39406  -0.38765  -0.38303  -0.38063
  Beta  occ. eigenvalues --   -0.37249  -0.33999  -0.32822  -0.28143  -0.27291
  Beta  occ. eigenvalues --   -0.25080  -0.22375
  Beta virt. eigenvalues --   -0.10622  -0.00858  -0.00238   0.00292   0.00753
  Beta virt. eigenvalues --    0.01393   0.01631   0.01897   0.02694   0.02759
  Beta virt. eigenvalues --    0.03184   0.04270   0.04272   0.05480   0.05585

 Mulliken charges and spin densities:
               1          2
     1  C   -0.055206  -0.000000
     2  C   -0.057612  -0.000000
     3  C   -0.091871   0.000000
     4  C   -0.055210  -0.000000
     5  C   -0.057621  -0.000000
     6  C   -0.091858   0.000000
     7  O   -0.399580   0.000000
     8  O   -0.399580   0.000000
     9  N   -0.081409  -0.000000
    10  C   -0.025099  -0.000000
    11  C   -0.742372  -0.000000
    12  N   -0.081409  -0.000000
    13  C   -0.025096  -0.000000
    14  C   -0.742374   0.000000
    15  H    0.222522  -0.000000
    16  H    0.222522  -0.000000
    17  H    0.372427   0.000000
    18  H    0.185702   0.000000
    19  H    0.187116   0.000000
    20  H    0.159788   0.000000
    21  H    0.165810  -0.000000
    22  H    0.159783   0.000000
    23  H    0.372427   0.000000
    24  H    0.187101   0.000000
    25  H    0.185716   0.000000
    26  H    0.159785  -0.000000
    27  H    0.165810  -0.000000
    28  H    0.159787   0.000000
 Sum of Mulliken charges =  -0.00000   0.00000

 Dipole moment (field-independent basis, Debye):
    X=             -0.0000    Y=              0.0000    Z=              0.0000  Tot=              0.0000
 Quadrupole moment (field-independent basis, Debye-Ang):
   XX=            -51.8216   YY=            -89.8147   ZZ=            -93.8752
   XY=              1.1087   XZ=            -20.7030   YZ=            -10.0544

  Exact polarizability: 229.105   0.401 142.582 -72.503  46.197 274.300
 Approx polarizability: 226.845  -7.668 166.686 -77.824  69.335 345.593

                      1                      2                      3
                      A                      A                      A
 Frequencies --     27.6968                45.0837                67.0747
 Red. masses --      3.3510                 2.3383                 2.3768
 Frc consts  --      0.0015                 0.0028                 0.0063
 IR Inten    --      2.9267                 0.0000                15.0031

                      4                      5                      6
                      A                      A                      A
 Frequencies --     96.1357               120.1997               127.1882
 Red. masses --      3.5227                 4.1463                 2.2903
 Frc consts  --      0.0192                 0.0353                 0.0218
 IR Inten    --      2.4688                 0.3733                 0.0000

                      7                      8                      9
                      A                      A                      A
 Frequencies --    141.4391               177.7246               177.7539
 Red. masses --      4.2772                 3.2850                 5.4706
 Frc consts  --      0.0504                 0.0611                 0.1018
 IR Inten    --      0.0000                 0.0551                 0.0002

                     10                     11                     12
                      A                      A                      A
 Frequencies --    247.6236               262.0938               264.3451
 Red. masses --      4.2994                 1.2390                 1.2876
 Frc consts  --      0.1553                 0.0501                 0.0530
 IR Inten    --      0.0000                 0.0000                 0.9061

                     13                     14                     15
                      A                      A                      A
 Frequencies --    328.7524               363.5108               371.8083
 Red. masses --      3.9135                 3.8674                 4.6253
 Frc consts  --      0.2492                 0.3011                 0.3767
 IR Inten    --     16.3903                 0.0000                61.9140

                     16                     17                     18
                      A                      A                      A
 Frequencies --    453.6965               466.6194               504.8932
 Red. masses --     10.0486                 2.8506                 6.5800
 Frc consts  --      1.2187                 0.3657                 0.9883
 IR Inten    --      0.0000                 4.1889                17.1819

                     19                     20                     21
                      A                      A                      A
 Frequencies --    527.7175               551.5239               606.0214
 Red. masses --      7.1933                 6.4956                 1.0793
 Frc consts  --      1.1803                 1.1641                 0.2335
 IR Inten    --      0.0000                 0.0000               259.6392

                     22                     23                     24
                      A                      A                      A
 Frequencies --    611.2003               652.1738               732.6513
 Red. masses --      1.1124                 4.8948                 5.9727
 Frc consts  --      0.2448                 1.2266                 1.8889
 IR Inten    --      0.0001                 0.0000                 1.4664

                     25                     26                     27
                      A                      A                      A
 Frequencies --    749.6857               752.2410               766.6117
 Red. masses --      5.5862                 1.7224                 4.4142
 Frc consts  --      1.8498                 0.5742                 1.5284
 IR Inten    --      0.0000                 0.0000                10.5649

                     28                     29                     30
                      A                      A                      A
 Frequencies --    799.7607               812.5413               820.7452
 Red. masses --      2.3845                 1.4246                 1.1712
 Frc consts  --      0.8986                 0.5542                 0.4648
 IR Inten    --      0.0000                71.9657                 0.0000

                     31                     32                     33
                      A                      A                      A
 Frequencies --    826.9196               884.4619               924.5541
 Red. masses --      1.3397                 2.4225                 1.8231
 Frc consts  --      0.5397                 1.1165                 0.9182
 IR Inten    --     52.2557                45.4048                 0.0000

                     34                     35                     36
                      A                      A                      A
 Frequencies --    933.6949              1059.8944              1067.8158
 Red. masses --      2.1741                 2.9879                 2.7542
 Frc consts  --      1.1167                 1.9776                 1.8503
 IR Inten    --      5.0863                 0.0000                17.5166

                     37                     38                     39
                      A                      A                      A
 Frequencies --   1144.6226              1150.9074              1159.0485
 Red. masses --      2.6130                 2.2891                 1.5210
 Frc consts  --      2.0170                 1.7865                 1.2039
 IR Inten    --     20.6295                 0.0000                 0.0000

                     40                     41                     42
                      A                      A                      A
 Frequencies --   1159.1648              1235.5305              1238.9090
 Red. masses --      1.5209                 1.5414                 2.6274
 Frc consts  --      1.2041                 1.3864                 2.3760
 IR Inten    --      5.4687                 0.0000               239.2932

                     43                     44                     45
                      A                      A                      A
 Frequencies --   1283.1917              1306.0290              1306.2801
 Red. masses --      1.9621                 1.0999                 1.1002
 Frc consts  --      1.9035                 1.1054                 1.1061
 IR Inten    --      0.0000                 0.0000                 2.8964

                     46                     47                     48
                      A                      A                      A
 Frequencies --   1318.9366              1365.0432              1380.5235
 Red. masses --      1.6008                 3.9202                 2.4215
 Frc consts  --      1.6407                 4.3038                 2.7191
 IR Inten    --    426.2187               228.0458                 0.0000

                     49                     50                     51
                      A                      A                      A
 Frequencies --   1389.5878              1397.4865              1416.8416
 Red. masses --      1.3830                 1.8376                 1.2915
 Frc consts  --      1.5734                 2.1144                 1.5275
 IR Inten    --    157.6004                 0.0000                67.8004

                     52                     53                     54
                      A                      A                      A
 Frequencies --   1417.6748              1486.4924              1486.7061
 Red. masses --      1.3396                 1.0541                 1.0368
 Frc consts  --      1.5863                 1.3724                 1.3501
 IR Inten    --      0.0000               141.7863                 0.0013

                     55                     56                     57
                      A                      A                      A
 Frequencies --   1487.0487              1488.3239              1506.1928
 Red. masses --      1.0558                 1.0442                 1.1559
 Frc consts  --      1.3755                 1.3628                 1.5451
 IR Inten    --    155.2525                 0.0000               685.3025

                     58                     59                     60
                      A                      A                      A
 Frequencies --   1509.3369              1535.0799              1553.2206
 Red. masses --      1.0923                 2.0809                 2.1940
 Frc consts  --      1.4661                 2.8891                 3.1186
 IR Inten    --      0.0000              1547.9169                 0.0000

                     61                     62                     63
                      A                      A                      A
 Frequencies --   1578.4255              1614.5559              1624.8795
 Red. masses --      4.2019                 6.5718                 9.6990
 Frc consts  --      6.1681                10.0935                15.0876
 IR Inten    --   2445.7211                 0.0000                 0.0000

                     64                     65                     66
                      A                      A                      A
 Frequencies --   1671.1657              3014.4834              3014.4934
 Red. masses --     11.1725                 1.0576                 1.0576
 Frc consts  --     18.3840                 5.6623                 5.6622
 IR Inten    --    154.8930                 0.0002                59.6668

                     67                     68                     69
                      A                      A                      A
 Frequencies --   3034.4466              3034.4824              3040.8439
 Red. masses --      1.0359                 1.0359                 1.1058
 Frc consts  --      5.6200                 5.6201                 6.0242
 IR Inten    --     69.0226                 0.0465                 0.0002

                     70                     71                     72
                      A                      A                      A
 Frequencies --   3040.9043              3098.9419              3098.9534
 Red. masses --      1.1058                 1.1038                 1.1038
 Frc consts  --      6.0247                 6.2455                 6.2456
 IR Inten    --     47.7972                 0.6263                94.7903

                     73                     74                     75
                      A                      A                      A
 Frequencies --   3111.5713              3111.5742              3195.8677
 Red. masses --      1.1011                 1.1011                 1.0905
 Frc consts  --      6.2809                 6.2809                 6.5625
 IR Inten    --     59.6239                 0.8140                10.4025

                     76                     77                     78
                      A                      A                      A
 Frequencies --   3197.3615              3525.5322              3527.4413
 Red. masses --      1.0904                 1.0760                 1.0765
 Frc consts  --      6.5676                 7.8795                 7.8920
 IR Inten    --      0.0000                 0.0001               408.3308

 - Thermochemistry -
 -------------------
 Temperature   298.150 Kelvin.  Pressure   1.00000 Atm.
 Atom     1 has atomic number  6 and mass  12.00000

 Molecular mass:   194.10553 amu.
 Principal axes and moments of inertia in atomic units:
                           1         2         3
     Eigenvalues --  1099.096515623.809586677.84908
           X            0.82644   0.49370  -0.27065
           Y            0.00217   0.47792   0.87840
           Z           -0.56302   0.72653  -0.39391
 This molecule is an asymmetric top.
 Rotational symmetry number  1.
 Warning -- assumption of classical behavior for rotation
           may cause significant error
 Rotational temperatures (Kelvin)      0.07880     0.01540     0.01297
 Rotational constants (GHZ):           1.64202     0.32091     0.27026
 Zero-point vibrational energy     607595.0 (Joules/Mol)
                                  145.21870 (Kcal/Mol)
 Warning -- explicit consideration of  22 degrees of freedom as
           vibrations may cause significant error
 Vibrational temperatures:     39.85    64.87    96.51   138.32   172.94
          (Kelvin)            183.00   203.50   255.71   255.75   356.28
                              377.09   380.33   473.00   523.01   534.95
                              652.77   671.36   726.43   759.27   793.52
                              871.93   879.38   938.33  1054.12  1078.63
                             1082.31  1102.98  1150.68  1169.07  1180.87
                             1189.75  1272.54  1330.23  1343.38  1524.95
                             1536.35  1646.86  1655.90  1667.61  1667.78
                             1777.65  1782.51  1846.23  1879.08  1879.45
                             1897.66  1963.99  1986.27  1999.31  2010.67
                             2038.52  2039.72  2138.73  2139.04  2139.53
                             2141.37  2167.08  2171.60  2208.64  2234.74
                             2271.00  2322.99  2337.84  2404.43  4337.17
                             4337.18  4365.89  4365.94  4375.10  4375.18
                             4458.69  4458.70  4476.86  4476.86  4598.14
                             4600.29  5072.45  5075.20

 Zero-point correction=                           0.231421 (Hartree/Particle)
 Thermal correction to Energy=                    0.245953
 Thermal correction to Enthalpy=                  0.246898
 Thermal correction to Gibbs Free Energy=         0.188883
 Sum of electronic and zero-point Energies=           -649.424457
 Sum of electronic and thermal Energies=              -649.409924
 Sum of electronic and thermal Enthalpies=            -649.408980
 Sum of electronic and thermal Free Energies=         -649.466995

                     E (Thermal)             CV                S
                      KCal/Mol        Cal/Mol-Kelvin    Cal/Mol-Kelvin
 Total                  154.338             53.343            122.103
 Electronic               0.000              0.000              0.000
 Translational            0.889              2.981             41.695
 Rotational               0.889              2.981             32.090
 Vibrational            152.561             47.382             48.318
 Vibration     1          0.593              1.984              5.988
 Vibration     2          0.595              1.979              5.022
 Vibration     3          0.598              1.970              4.237
 Vibration     4          0.603              1.952              3.531
 Vibration     5          0.609              1.932              3.097
 Vibration     6          0.611              1.926              2.988
 Vibration     7          0.615              1.912              2.784
 Vibration     8          0.628              1.870              2.352
 Vibration     9          0.628              1.870              2.352
 Vibration    10          0.661              1.767              1.747
 Vibration    11          0.669              1.742              1.648
 Vibration    12          0.671              1.738              1.633
 Vibration    13          0.712              1.618              1.266
 Vibration    14          0.737              1.547              1.107
 Vibration    15          0.744              1.530              1.072
 Vibration    16          0.812              1.353              0.785
 Vibration    17          0.824              1.324              0.747
 Vibration    18          0.860              1.239              0.646
 Vibration    19          0.883              1.189              0.592
 Vibration    20          0.907              1.136              0.541
 Vibration    21          0.965              1.019              0.439
 Vibration    22          0.970              1.008              0.431

                           ! Non-Optimized Parameters !
 Normal termination of Gaussian 16 at Sat Feb 10 11:13:37 2024.
