 Q-Chem 5.4, Q-Chem, Inc., Pleasanton, CA (2021)
 Q-Chem 5.4.0 for Intel X86 EM64T Linux

User input:
--------------------------------------------------------------
$molecule
0 1
C                 -2.6040930000     -1.7731690000     -0.1673690000
O                 -2.3378090000     -0.4652990000     -0.7237870000
C                 -1.2973140000      0.2811890000     -0.3359010000
C                 -1.4156990000      1.6279640000     -0.2611050000
Br                -3.0684520000      2.4759880000     -0.5990310000
C                 -0.2714150000      2.5154160000      0.0899240000
O                 -0.4009460000      3.7175060000      0.1722420000
C                  1.0400930000      1.8518570000      0.3346650000
C                  1.2116430000      0.5132860000      0.2238150000
O                  2.3925550000     -0.0406350000      0.5220250000
C                  2.9222180000     -1.1748010000     -0.2017350000
C                  0.0391320000     -0.3620840000     -0.1085100000
O                  0.1694090000     -1.5695360000     -0.1920410000
Br                 2.4795150000      2.9774290000      0.8100440000
H                 -2.3680310000     -1.7979900000      0.8974890000
H                 -3.6736460000     -1.9174670000     -0.3112800000
H                 -2.0378310000     -2.5396010000     -0.6910160000
H                  4.0000620000     -1.1066980000     -0.0634140000
H                  2.5396530000     -2.1074600000      0.2058590000
H                  2.6809560000     -1.1058940000     -1.2634530000
$end
$rem
MAX_SCF_CYCLES=200
BASIS  =  6-311++G(d,p)
GUI  =  2
JOB_TYPE  =  SP
METHOD  =  B3LYP
SOLVENT_METHOD = PCM
$end
$pcm
theory = CPCM
$end
$solvent
dielectric 37.219
opticaldielectric 1.43
$end

--------------------------------------------------------------

             Standard Nuclear Orientation (Angstroms)
    I     Atom           X                Y                Z
 ----------------------------------------------------------------
    1      C      -2.6040930000    -1.7731690000    -0.1673690000
    2      O      -2.3378090000    -0.4652990000    -0.7237870000
    3      C      -1.2973140000     0.2811890000    -0.3359010000
    4      C      -1.4156990000     1.6279640000    -0.2611050000
    5      Br     -3.0684520000     2.4759880000    -0.5990310000
    6      C      -0.2714150000     2.5154160000     0.0899240000
    7      O      -0.4009460000     3.7175060000     0.1722420000
    8      C       1.0400930000     1.8518570000     0.3346650000
    9      C       1.2116430000     0.5132860000     0.2238150000
   10      O       2.3925550000    -0.0406350000     0.5220250000
   11      C       2.9222180000    -1.1748010000    -0.2017350000
   12      C       0.0391320000    -0.3620840000    -0.1085100000
   13      O       0.1694090000    -1.5695360000    -0.1920410000
   14      Br      2.4795150000     2.9774290000     0.8100440000
   15      H      -2.3680310000    -1.7979900000     0.8974890000
   16      H      -3.6736460000    -1.9174670000    -0.3112800000
   17      H      -2.0378310000    -2.5396010000    -0.6910160000
   18      H       4.0000620000    -1.1066980000    -0.0634140000
   19      H       2.5396530000    -2.1074600000     0.2058590000
   20      H       2.6809560000    -1.1058940000    -1.2634530000
 ----------------------------------------------------------------

    9   -5757.7555608702      3.92e-06  Convergence criterion met
 Total energy in the final basis set =    -5757.7555608702

                    Orbital Energies (a.u.)
 --------------------------------------------------------------

 Alpha MOs
 -- Occupied --
********-482.8504 -62.5032 -62.5031 -56.3238 -56.3238 -56.3199 -56.3198
-56.3195 -56.3194 -19.1850 -19.1850 -19.1625 -19.1473 -10.3140 -10.3068
-10.2878 -10.2878 -10.2586 -10.2585 -10.2282 -10.2282  -8.7120  -8.7119
 -6.5439  -6.5438  -6.5307  -6.5307  -6.5295  -6.5294  -2.6548  -2.6546
 -2.6511  -2.6511  -2.6503  -2.6502  -2.6398  -2.6397  -2.6397  -2.6396
 -1.1169  -1.1009  -1.0867  -1.0798  -0.8892  -0.8554  -0.8055  -0.7754
 -0.7430  -0.7022  -0.7002  -0.6249  -0.6167  -0.5724  -0.5488  -0.5267
 -0.5053  -0.5032  -0.4841  -0.4754  -0.4625  -0.4539  -0.4471  -0.4327
 -0.4302  -0.4231  -0.3910  -0.3851  -0.3646  -0.3634  -0.3341  -0.3330
 -0.3102  -0.3092  -0.2981  -0.2963  -0.2768  -0.2538

          Ground-State Mulliken Net Atomic Charges

     Atom                 Charge (a.u.)
  ----------------------------------------
      1 C                    -0.317845
      2 O                    -0.133701
      3 C                    -0.402258
      4 C                     0.846371
      5 Br                   -0.008649
      6 C                    -0.706433
      7 O                    -0.217156
      8 C                     0.822642
      9 C                    -0.378476
     10 O                    -0.134876
     11 C                    -0.317603
     12 C                     0.040964
     13 O                    -0.231036
     14 Br                   -0.007807
     15 H                     0.191659
     16 H                     0.187670
     17 H                     0.193696
     18 H                     0.187564
     19 H                     0.193643
     20 H                     0.191631
  ----------------------------------------
  Sum of atomic charges =     0.000000

                    Cartesian Multipole Moments
 -----------------------------------------------------------------
    Charge (ESU x 10^10)
                 0.0000
    Dipole Moment (Debye)
         X       0.7314      Y      -6.7628      Z      -0.4624
       Tot       6.8180
    Quadrupole Moments (Debye-Ang)
        XX     -97.3425     XY       3.3466     YY    -124.3417
        XZ      -5.4446     YZ      -1.3411     ZZ    -105.4145

 Total job time:  28.95s(wall), 223.34s(cpu)
        *  Thank you very much for using Q-Chem.  Have a nice day.  *
