 Gaussian 16, Revision A.03,
 Gaussian 16:  ES64L-G16RevA.03 25-Dec-2016

 ----------------------------------------------------------------
 #P UB3LYP/6-311++G(d,p) SCRF=(PCM,Solvent=n,n-DiMethylFormamide)
 ----------------------------------------------------------------

 ------------------
 Radical PCM in DMF
 ------------------
 Symbolic Z-matrix:
 Charge = -1 Multiplicity = 2

                         Standard orientation:
 ---------------------------------------------------------------------
 Center     Atomic      Atomic             Coordinates (Angstroms)
 Number     Number       Type             X           Y           Z
 ---------------------------------------------------------------------
      1          7           0       -3.278610    1.907687    0.150757
      2          6           0       -2.820872    0.605135    0.041021
      3          6           0       -3.731205   -0.452765   -0.014167
      4          6           0       -3.288252   -1.781799   -0.059054
      5          6           0       -1.938324   -2.072872   -0.044883
      6          6           0       -0.985527   -1.033755   -0.002952
      7          6           0        0.431128   -1.406412   -0.002695
      8          8           0        0.759431   -2.633357   -0.041076
      9          6           0        1.410110   -0.330177    0.027242
     10          6           0        2.820892   -0.605149    0.040973
     11          7           0        3.278549   -1.907713    0.150642
     12          6           0        3.731196    0.452703   -0.014149
     13          6           0        3.288269    1.781790   -0.058976
     14          6           0        1.938372    2.072903   -0.044857
     15          6           0        0.985543    1.033759   -0.002988
     16          6           0       -0.431101    1.406467   -0.002616
     17          8           0       -0.759431    2.633382   -0.041272
     18          6           0       -1.410156    0.330213    0.027258
     19          1           0       -2.548158    2.604193   -0.011683
     20          1           0       -4.201574    2.086976   -0.212478
     21          1           0       -4.795028   -0.229480   -0.002076
     22          1           0       -4.018576   -2.585315   -0.097578
     23          1           0       -1.572195   -3.090812   -0.069322
     24          1           0        4.201431   -2.087057   -0.212775
     25          1           0        2.548084   -2.604232   -0.011391
     26          1           0        4.795031    0.229432   -0.002084
     27          1           0        4.018724    2.585195   -0.097318
     28          1           0        1.572245    3.090838   -0.069246
 ---------------------------------------------------------------------

 SCF Done:  E(UB3LYP) =  -799.857047516     A.U. after   17 cycles

 The electronic state is 2-A.
 Alpha  occ. eigenvalues --  -19.07472 -19.07471 -14.30278 -14.30278 -10.22411
 Alpha  occ. eigenvalues --  -10.22410 -10.21421 -10.21421 -10.17011 -10.17010
 Alpha  occ. eigenvalues --  -10.16932 -10.16931 -10.16898 -10.16898 -10.16039
 Alpha  occ. eigenvalues --  -10.16038 -10.15517 -10.15516  -1.00262  -1.00000
 Alpha  occ. eigenvalues --   -0.91113  -0.91021  -0.84476  -0.82853  -0.77963
 Alpha  occ. eigenvalues --   -0.73641  -0.73164  -0.72218  -0.66201  -0.63294
 Alpha  occ. eigenvalues --   -0.62327  -0.57948  -0.55553  -0.55257  -0.52395
 Alpha  occ. eigenvalues --   -0.50408  -0.49434  -0.47755  -0.46872  -0.45407
 Alpha  occ. eigenvalues --   -0.44837  -0.43220  -0.43141  -0.42327  -0.41209
 Alpha  occ. eigenvalues --   -0.40074  -0.39134  -0.38730  -0.37401  -0.36855
 Alpha  occ. eigenvalues --   -0.35665  -0.35548  -0.34725  -0.33928  -0.31080
 Alpha  occ. eigenvalues --   -0.30347  -0.26576  -0.24678  -0.24571  -0.23621
 Alpha  occ. eigenvalues --   -0.21443  -0.20619  -0.13543
 Alpha virt. eigenvalues --   -0.03948  -0.01891  -0.00253   0.00397   0.00947
 Alpha virt. eigenvalues --    0.01248   0.01930   0.02079   0.03964   0.04003
 Alpha virt. eigenvalues --    0.04297   0.04479   0.05132   0.06149   0.06486

  Beta  occ. eigenvalues --  -19.06987 -19.06986 -14.30256 -14.30256 -10.22213
  Beta  occ. eigenvalues --  -10.22212 -10.21419 -10.21419 -10.17002 -10.17001
  Beta  occ. eigenvalues --  -10.16854 -10.16853 -10.16845 -10.16844 -10.15942
  Beta  occ. eigenvalues --  -10.15941 -10.15481 -10.15481  -0.99423  -0.99138
  Beta  occ. eigenvalues --   -0.91036  -0.90926  -0.84215  -0.82713  -0.77592
  Beta  occ. eigenvalues --   -0.73455  -0.72851  -0.72054  -0.65526  -0.63091
  Beta  occ. eigenvalues --   -0.62110  -0.57864  -0.55342  -0.55068  -0.52250
  Beta  occ. eigenvalues --   -0.50337  -0.49347  -0.47527  -0.46621  -0.45320
  Beta  occ. eigenvalues --   -0.44750  -0.43095  -0.43026  -0.41289  -0.40910
  Beta  occ. eigenvalues --   -0.39783  -0.38927  -0.38142  -0.36737  -0.35700
  Beta  occ. eigenvalues --   -0.35567  -0.34974  -0.34266  -0.33629  -0.30445
  Beta  occ. eigenvalues --   -0.29714  -0.24766  -0.24227  -0.24096  -0.23192
  Beta  occ. eigenvalues --   -0.20464  -0.20086
  Beta virt. eigenvalues --   -0.08107  -0.02801  -0.00891  -0.00235   0.00402
  Beta virt. eigenvalues --    0.00957   0.01512   0.01932   0.02098   0.03999
  Beta virt. eigenvalues --    0.04014   0.04309   0.04539   0.05569   0.06310

 Mulliken charges and spin densities:
               1          2
     1  N   -0.418120   0.009804
     2  C    0.091400   0.019763
     3  C   -0.209085   0.082699
     4  C   -0.429886   0.037161
     5  C   -0.216134   0.057522
     6  C    0.531520   0.048464
     7  C   -0.732320   0.092673
     8  O   -0.464029   0.178465
     9  C    0.271397  -0.011736
    10  C    0.091545   0.019768
    11  N   -0.418169   0.009812
    12  C   -0.209301   0.082686
    13  C   -0.429897   0.037190
    14  C   -0.216145   0.057498
    15  C    0.531570   0.048518
    16  C   -0.732236   0.092658
    17  O   -0.463999   0.178454
    18  C    0.271190  -0.011749
    19  H    0.313726  -0.002569
    20  H    0.261891  -0.000601
    21  H    0.159343  -0.005958
    22  H    0.181135  -0.002970
    23  H    0.159245  -0.002726
    24  H    0.261881  -0.000602
    25  H    0.313760  -0.002570
    26  H    0.159338  -0.005959
    27  H    0.181136  -0.002971
    28  H    0.159245  -0.002724
 Sum of Mulliken charges =  -1.00000   1.00000

 Dipole moment (field-independent basis, Debye):
    X=             -0.0003    Y=             -0.0003    Z=             -1.7047  Tot=              1.7047
 Quadrupole moment (field-independent basis, Debye-Ang):
   XX=            -98.8580   YY=           -133.1832   ZZ=           -114.9399
   XY=              0.8299   XZ=              0.0003   YZ=              0.0011

 Normal termination of Gaussian 16 at Sun Jan 14 01:19:45 2024.
