 Gaussian 16, Revision A.03,
 Gaussian 16:  ES64L-G16RevA.03 25-Dec-2016

 --------------------------------------
 #P UB3LYP/6-311++G(d,p) nosym opt freq
 --------------------------------------

 -------
 Radical
 -------
 Symbolic Z-matrix:
 Charge = -1 Multiplicity = 2

 SCF Done:  E(UB3LYP) =  -767.672066432     A.U. after   19 cycles
 Optimization completed.
    -- Stationary point found.
 Normal termination of Gaussian 16 at Wed Dec 27 19:58:42 2023.

 ----------------------------------------------------------------------
 #P Geom=AllCheck Guess=TCheck SCRF=Check GenChk UB3LYP/6-311++G(d,p) F
 req
 ----------------------------------------------------------------------

 Structure from the checkpoint file:  "129-rad.chk"
 -------
 Radical
 -------
 Charge = -1 Multiplicity = 2

                          Input orientation:
 ---------------------------------------------------------------------
 Center     Atomic      Atomic             Coordinates (Angstroms)
 Number     Number       Type             X           Y           Z
 ---------------------------------------------------------------------
      1          6           0       -3.759375    1.770655   -0.350207
      2          6           0       -2.527209    0.921737   -0.140141
      3          6           0       -1.271788    1.431159   -0.414390
      4          6           0       -0.090065    0.680581   -0.235405
      5          6           0        1.203279    1.289379   -0.547890
      6          8           0        1.300453    2.468362   -0.974536
      7          6           0        2.377796    0.441926   -0.333536
      8          6           0        3.662188    0.959927   -0.612913
      9          6           0        4.798714    0.198967   -0.426401
     10          6           0        4.688125   -1.125835    0.052983
     11          6           0        3.443968   -1.654204    0.333041
     12          6           0        2.266139   -0.895655    0.150469
     13          6           0        0.970304   -1.501834    0.461997
     14          8           0        0.870737   -2.680631    0.888580
     15          6           0       -0.201339   -0.652209    0.246658
     16          6           0       -1.488233   -1.161514    0.523002
     17          6           0       -2.638965   -0.416901    0.343668
     18          6           0       -3.991790   -1.013289    0.655652
     19          1           0       -3.485688    2.760824   -0.721228
     20          1           0       -4.449129    1.320836   -1.075235
     21          1           0       -4.327382    1.906798    0.578543
     22          1           0       -1.156737    2.445157   -0.783229
     23          1           0        3.716900    1.978749   -0.979359
     24          1           0        5.776980    0.616172   -0.647240
     25          1           0        5.581487   -1.725881    0.200233
     26          1           0        3.329080   -2.667163    0.701791
     27          1           0       -1.543000   -2.181409    0.889464
     28          1           0       -4.522704   -0.444490    1.429186
     29          1           0       -4.646187   -1.029550   -0.224811
     30          1           0       -3.886560   -2.040665    1.011254
 ---------------------------------------------------------------------

 SCF Done:  E(UB3LYP) =  -767.672066432     A.U. after    1 cycles

 Alpha  occ. eigenvalues --  -18.94272 -18.94271 -10.09247 -10.09246 -10.07119
 Alpha  occ. eigenvalues --  -10.07119 -10.06573 -10.06530 -10.05568 -10.05521
 Alpha  occ. eigenvalues --  -10.04856 -10.04855 -10.04688 -10.04688 -10.04679
 Alpha  occ. eigenvalues --  -10.04636 -10.04553 -10.04509  -0.86915  -0.86644
 Alpha  occ. eigenvalues --   -0.74452  -0.73210  -0.67925  -0.65401  -0.63575
 Alpha  occ. eigenvalues --   -0.62760  -0.59506  -0.57575  -0.53329  -0.50542
 Alpha  occ. eigenvalues --   -0.48146  -0.46856  -0.43251  -0.40296  -0.39640
 Alpha  occ. eigenvalues --   -0.36279  -0.34299  -0.33630  -0.33401  -0.32666
 Alpha  occ. eigenvalues --   -0.30860  -0.30560  -0.30172  -0.30167  -0.29048
 Alpha  occ. eigenvalues --   -0.28547  -0.27769  -0.27750  -0.26510  -0.25395
 Alpha  occ. eigenvalues --   -0.24624  -0.23864  -0.22425  -0.22282  -0.20781
 Alpha  occ. eigenvalues --   -0.20740  -0.13808  -0.13466  -0.12924  -0.12075
 Alpha  occ. eigenvalues --   -0.11263  -0.10403  -0.01182
 Alpha virt. eigenvalues --    0.06911   0.07066   0.08406   0.08918   0.09923
 Alpha virt. eigenvalues --    0.10305   0.10362   0.10961   0.11950   0.12008
 Alpha virt. eigenvalues --    0.12524   0.12765   0.13122   0.14007   0.15643

  Beta  occ. eigenvalues --  -18.93676 -18.93676 -10.09109 -10.09108 -10.07123
  Beta  occ. eigenvalues --  -10.07123 -10.06524 -10.06481 -10.05515 -10.05467
  Beta  occ. eigenvalues --  -10.04867 -10.04866 -10.04695 -10.04694 -10.04583
  Beta  occ. eigenvalues --  -10.04539 -10.04467 -10.04422  -0.85899  -0.85597
  Beta  occ. eigenvalues --   -0.74277  -0.73038  -0.67613  -0.65298  -0.63348
  Beta  occ. eigenvalues --   -0.62573  -0.59323  -0.57424  -0.52660  -0.50430
  Beta  occ. eigenvalues --   -0.47881  -0.46807  -0.43027  -0.40062  -0.39508
  Beta  occ. eigenvalues --   -0.36207  -0.34019  -0.33542  -0.33246  -0.32603
  Beta  occ. eigenvalues --   -0.30818  -0.30507  -0.30139  -0.30015  -0.28537
  Beta  occ. eigenvalues --   -0.27818  -0.27573  -0.27188  -0.26333  -0.25218
  Beta  occ. eigenvalues --   -0.23513  -0.22390  -0.22283  -0.22140  -0.20583
  Beta  occ. eigenvalues --   -0.19587  -0.13127  -0.12003  -0.11792  -0.11214
  Beta  occ. eigenvalues --   -0.10710  -0.09848
  Beta virt. eigenvalues --    0.04761   0.06910   0.07853   0.08397   0.08914
  Beta virt. eigenvalues --    0.10348   0.10353   0.10958   0.10960   0.12006
  Beta virt. eigenvalues --    0.12115   0.12525   0.12757   0.13182   0.13997

 Mulliken charges and spin densities:
               1          2
     1  C   -0.504949  -0.003033
     2  C    0.447800   0.042980
     3  C   -0.124550   0.007931
     4  C    0.040001   0.044512
     5  C   -0.751956   0.067179
     6  O   -0.367045   0.222568
     7  C    0.319149   0.055293
     8  C    0.019251   0.020748
     9  C   -0.385223   0.043556
    10  C   -0.385253   0.043581
    11  C    0.019334   0.020725
    12  C    0.319143   0.055306
    13  C   -0.751946   0.067173
    14  O   -0.367036   0.222555
    15  C    0.040040   0.044517
    16  C   -0.124639   0.007937
    17  C    0.447769   0.042974
    18  C   -0.504850  -0.003034
    19  H    0.159346   0.000162
    20  H    0.127595   0.002066
    21  H    0.127536   0.002061
    22  H    0.116466  -0.001438
    23  H    0.153440  -0.000963
    24  H    0.123102  -0.003621
    25  H    0.123100  -0.003622
    26  H    0.153436  -0.000962
    27  H    0.116471  -0.001438
    28  H    0.127623   0.002067
    29  H    0.127503   0.002059
    30  H    0.159344   0.000162
 Sum of Mulliken charges =  -1.00000   1.00000

 Dipole moment (field-independent basis, Debye):
    X=             -5.4809    Y=              0.5356    Z=              0.2167  Tot=              5.5113
 Quadrupole moment (field-independent basis, Debye-Ang):
   XX=           -127.1341   YY=           -137.1077   ZZ=           -115.9729
   XY=             -0.6328   XZ=              1.2898   YZ=              8.6990

  Exact polarizability: 374.845 -16.669 222.010 -13.738 -38.772 124.309
 Approx polarizability: 525.609 -14.389 414.224 -20.788 -83.588 207.424

                      1                      2                      3
                      A                      A                      A
 Frequencies --     47.2476                76.2274               132.0837
 Red. masses --      5.6844                 3.5854                 4.4434
 Frc consts  --      0.0075                 0.0123                 0.0457
 IR Inten    --      5.8760                 0.0000                 1.6496

                      4                      5                      6
                      A                      A                      A
 Frequencies --    132.5286               143.6400               173.6465
 Red. masses --      3.4375                 1.1396                 4.3092
 Frc consts  --      0.0356                 0.0139                 0.0766
 IR Inten    --      0.0141                 0.0002                 3.3518

                      7                      8                      9
                      A                      A                      A
 Frequencies --    177.5391               200.9299               235.5960
 Red. masses --      1.4163                 2.5945                 3.5114
 Frc consts  --      0.0263                 0.0617                 0.1148
 IR Inten    --      1.2933                 0.7345                 0.0000

                     10                     11                     12
                      A                      A                      A
 Frequencies --    278.0196               287.7963               325.8813
 Red. masses --      5.9064                 2.7590                 4.2913
 Frc consts  --      0.2690                 0.1346                 0.2685
 IR Inten    --      1.4388                 2.0054                 4.9413

                     13                     14                     15
                      A                      A                      A
 Frequencies --    336.9050               364.9321               378.4310
 Red. masses --      5.1845                 5.4491                10.8969
 Frc consts  --      0.3467                 0.4276                 0.9194
 IR Inten    --      0.3037                 1.9359                 4.8712

                     16                     17                     18
                      A                      A                      A
 Frequencies --    431.2028               437.1428               469.6949
 Red. masses --      3.2344                 5.9189                 4.2930
 Frc consts  --      0.3543                 0.6664                 0.5580
 IR Inten    --      5.0563                 0.0001                 1.1334

                     19                     20                     21
                      A                      A                      A
 Frequencies --    470.6163               488.8913               552.6779
 Red. masses --      3.1612                12.6487                 4.6914
 Frc consts  --      0.4125                 1.7812                 0.8443
 IR Inten    --      0.1727                 0.0004                 0.0000

                     22                     23                     24
                      A                      A                      A
 Frequencies --    562.4487               621.9441               660.8151
 Red. masses --      4.4234                 6.7193                 4.3058
 Frc consts  --      0.8245                 1.5314                 1.1078
 IR Inten    --      7.5072                 3.4104                 0.0001

                     25                     26                     27
                      A                      A                      A
 Frequencies --    667.5105               704.1140               706.6391
 Red. masses --      5.9421                 6.1769                 2.2292
 Frc consts  --      1.5599                 1.8043                 0.6558
 IR Inten    --      7.5147                 0.0004                63.7261

                     28                     29                     30
                      A                      A                      A
 Frequencies --    732.6673               743.5777               751.8995
 Red. masses --      4.3101                 6.6942                 4.3557
 Frc consts  --      1.3632                 2.1807                 1.4509
 IR Inten    --      0.0001                 1.6971                 7.8143

                     31                     32                     33
                      A                      A                      A
 Frequencies --    779.1108               808.0077               867.3066
 Red. masses --      1.8952                 3.7629                 1.5496
 Frc consts  --      0.6778                 1.4475                 0.6868
 IR Inten    --     17.8286                 0.0000                 0.0000

                     34                     35                     36
                      A                      A                      A
 Frequencies --    878.8495               927.5644               928.9274
 Red. masses --      6.0411                 1.3759                 1.3691
 Frc consts  --      2.7491                 0.6975                 0.6961
 IR Inten    --      0.6407                14.8020                 0.0259

                     37                     38                     39
                      A                      A                      A
 Frequencies --    954.6479               981.4059               982.0094
 Red. masses --      3.3964                 1.3653                 1.2647
 Frc consts  --      1.8237                 0.7748                 0.7186
 IR Inten    --     20.8296                 3.0592                 0.0176

                     40                     41                     42
                      A                      A                      A
 Frequencies --   1013.6232              1025.6003              1037.6008
 Red. masses --      1.5918                 1.5325                 1.9063
 Frc consts  --      0.9636                 0.9497                 1.2092
 IR Inten    --      0.8562                 1.2849                30.7675

                     43                     44                     45
                      A                      A                      A
 Frequencies --   1046.6056              1061.8949              1088.0013
 Red. masses --      1.4290                 1.5658                 5.8449
 Frc consts  --      0.9222                 1.0403                 4.0765
 IR Inten    --      4.4197                 0.0001                 0.0909

                     46                     47                     48
                      A                      A                      A
 Frequencies --   1116.6090              1146.6129              1165.0269
 Red. masses --      1.9814                 1.3893                 1.7690
 Frc consts  --      1.4555                 1.0762                 1.4146
 IR Inten    --     20.1589                23.5516                 0.6723

                     49                     50                     51
                      A                      A                      A
 Frequencies --   1198.2339              1218.6202              1222.9937
 Red. masses --      4.5277                 2.7380                 1.8010
 Frc consts  --      3.8301                 2.3956                 1.5871
 IR Inten    --     10.6627                24.9416                 0.4078

                     52                     53                     54
                      A                      A                      A
 Frequencies --   1251.3973              1260.3348              1310.4426
 Red. masses --      4.9660                 1.4295                 2.6514
 Frc consts  --      4.5819                 1.3379                 2.6826
 IR Inten    --     14.4920                36.8185                53.2598

                     55                     56                     57
                      A                      A                      A
 Frequencies --   1358.5006              1364.0030              1394.5454
 Red. masses --     10.6436                 7.1248                 1.4650
 Frc consts  --     11.5734                 7.8100                 1.6787
 IR Inten    --     18.2614                11.1052               104.3073

                     58                     59                     60
                      A                      A                      A
 Frequencies --   1411.1334              1416.4565              1469.2955
 Red. masses --      1.2420                 2.3589                 2.2822
 Frc consts  --      1.4571                 2.7885                 2.9029
 IR Inten    --      5.7740               168.5943                54.0513

                     61                     62                     63
                      A                      A                      A
 Frequencies --   1471.1586              1476.2931              1487.9796
 Red. masses --      2.4803                 1.0468                 1.6882
 Frc consts  --      3.1628                 1.3442                 2.2022
 IR Inten    --     62.6292                 0.0006                 0.5168

                     64                     65                     66
                      A                      A                      A
 Frequencies --   1490.5040              1494.2118              1500.6291
 Red. masses --      1.0451                 1.5517                 2.0105
 Frc consts  --      1.3680                 2.0412                 2.6675
 IR Inten    --     12.3855                 0.1272                16.2723

                     67                     68                     69
                      A                      A                      A
 Frequencies --   1522.6951              1529.4984              1549.6689
 Red. masses --      4.7186                 4.3329                 5.3836
 Frc consts  --      6.4460                 5.9721                 7.6173
 IR Inten    --    577.3074                11.3228                79.0874

                     70                     71                     72
                      A                      A                      A
 Frequencies --   1613.5905              1622.3947              1643.6413
 Red. masses --      9.2959                 5.7792                 6.7394
 Frc consts  --     14.2603                 8.9626                10.7272
 IR Inten    --      1.7549                10.8540                 2.1224

                     73                     74                     75
                      A                      A                      A
 Frequencies --   2991.5038              2995.1791              3025.3598
 Red. masses --      1.0401                 1.0389                 1.0991
 Frc consts  --      5.4842                 5.4910                 5.9270
 IR Inten    --      9.6817               241.2734                 0.0235

                     76                     77                     78
                      A                      A                      A
 Frequencies --   3027.8154              3086.8320              3088.4556
 Red. masses --      1.0992                 1.0963                 1.0965
 Frc consts  --      5.9374                 6.1545                 6.1625
 IR Inten    --     73.5803                48.4990                 2.8049

                     79                     80                     81
                      A                      A                      A
 Frequencies --   3132.0133              3151.2847              3165.4629
 Red. masses --      1.0845                 1.0910                 1.0889
 Frc consts  --      6.2681                 6.3834                 6.4288
 IR Inten    --     18.7068                54.3824                 9.4264

                     82                     83                     84
                      A                      A                      A
 Frequencies --   3167.4596              3180.4453              3182.9645
 Red. masses --      1.0893                 1.0913                 1.0929
 Frc consts  --      6.4392                 6.5037                 6.5236
 IR Inten    --     17.5817                11.3090                33.5346

 - Thermochemistry -
 -------------------
 Temperature   298.150 Kelvin.  Pressure   1.00000 Atm.
 Atom     1 has atomic number  6 and mass  12.00000

 Molecular mass:   236.08373 amu.
 Principal axes and moments of inertia in atomic units:
                           1         2         3
     Eigenvalues --  1924.484146337.491598239.71068
           X            0.99450   0.07824   0.06967
           Y           -0.09716   0.93749   0.33418
           Z           -0.03917  -0.33911   0.93993
 This molecule is an asymmetric top.
 Rotational symmetry number  1.
 Warning -- assumption of classical behavior for rotation
           may cause significant error
 Rotational temperatures (Kelvin)      0.04501     0.01367     0.01051
 Rotational constants (GHZ):           0.93778     0.28477     0.21903
 Zero-point vibrational energy     607557.3 (Joules/Mol)
                                  145.20968 (Kcal/Mol)
 Warning -- explicit consideration of  22 degrees of freedom as
           vibrations may cause significant error
 Vibrational temperatures:     67.98   109.67   190.04   190.68   206.67
          (Kelvin)            249.84   255.44   289.09   338.97   400.01
                              414.07   468.87   484.73   525.06   544.48
                              620.40   628.95   675.79   677.11   703.41
                              795.18   809.24   894.84   950.77   960.40
                             1013.06  1016.70  1054.14  1069.84  1081.82
                             1120.97  1162.54  1247.86  1264.47  1334.56
                             1336.52  1373.53  1412.02  1412.89  1458.38
                             1475.61  1492.88  1505.83  1527.83  1565.39
                             1606.55  1649.72  1676.21  1723.99  1753.32
                             1759.62  1800.48  1813.34  1885.43  1954.58
                             1962.50  2006.44  2030.31  2037.96  2113.99
                             2116.67  2124.06  2140.87  2144.50  2149.84
                             2159.07  2190.82  2200.61  2229.63  2321.60
                             2334.26  2364.83  4304.11  4309.39  4352.82
                             4356.35  4441.26  4443.60  4506.27  4534.00
                             4554.40  4557.27  4575.95  4579.58

 Zero-point correction=                           0.231406 (Hartree/Particle)
 Thermal correction to Energy=                    0.245955
 Thermal correction to Enthalpy=                  0.246899
 Thermal correction to Gibbs Free Energy=         0.189743
 Sum of electronic and zero-point Energies=           -767.440660
 Sum of electronic and thermal Energies=              -767.426112
 Sum of electronic and thermal Enthalpies=            -767.425168
 Sum of electronic and thermal Free Energies=         -767.482323

                     E (Thermal)             CV                S
                      KCal/Mol        Cal/Mol-Kelvin    Cal/Mol-Kelvin
 Total                  154.339             58.135            120.294
 Electronic               0.000              0.000              1.377
 Translational            0.889              2.981             42.279
 Rotational               0.889              2.981             32.974
 Vibrational            152.561             52.174             43.664
 Vibration     1          0.595              1.979              4.929
 Vibration     2          0.599              1.965              3.986
 Vibration     3          0.612              1.921              2.915
 Vibration     4          0.613              1.921              2.909
 Vibration     5          0.616              1.910              2.755
 Vibration     6          0.627              1.875              2.396
 Vibration     7          0.628              1.870              2.354
 Vibration     8          0.638              1.839              2.125
 Vibration     9          0.655              1.786              1.836
 Vibration    10          0.679              1.714              1.546
 Vibration    11          0.685              1.696              1.487
 Vibration    12          0.710              1.624              1.280
 Vibration    13          0.718              1.602              1.227
 Vibration    14          0.738              1.544              1.101
 Vibration    15          0.749              1.516              1.045
 Vibration    16          0.792              1.402              0.855
 Vibration    17          0.797              1.389              0.836
 Vibration    18          0.827              1.317              0.738
 Vibration    19          0.828              1.315              0.736
 Vibration    20          0.845              1.275              0.686
 Vibration    21          0.908              1.134              0.539
 Vibration    22          0.918              1.113              0.519

 Optimization completed.
    -- Stationary point found.
 Normal termination of Gaussian 16 at Wed Dec 27 21:43:24 2023.
