 Q-Chem 5.4, Q-Chem, Inc., Pleasanton, CA (2021)
 Q-Chem 5.4.0 for Intel X86 EM64T Linux

User input:
--------------------------------------------------------------
$molecule
-1 2
C                 -3.7593750000      1.7706550000     -0.3502070000
C                 -2.5272090000      0.9217370000     -0.1401410000
C                 -1.2717880000      1.4311590000     -0.4143900000
C                 -0.0900650000      0.6805810000     -0.2354050000
C                  1.2032790000      1.2893790000     -0.5478900000
O                  1.3004530000      2.4683620000     -0.9745360000
C                  2.3777960000      0.4419260000     -0.3335360000
C                  3.6621880000      0.9599270000     -0.6129130000
C                  4.7987140000      0.1989670000     -0.4264010000
C                  4.6881250000     -1.1258350000      0.0529830000
C                  3.4439680000     -1.6542040000      0.3330410000
C                  2.2661390000     -0.8956550000      0.1504690000
C                  0.9703040000     -1.5018340000      0.4619970000
O                  0.8707370000     -2.6806310000      0.8885800000
C                 -0.2013390000     -0.6522090000      0.2466580000
C                 -1.4882330000     -1.1615140000      0.5230020000
C                 -2.6389650000     -0.4169010000      0.3436680000
C                 -3.9917900000     -1.0132890000      0.6556520000
H                 -3.4856880000      2.7608240000     -0.7212280000
H                 -4.4491290000      1.3208360000     -1.0752350000
H                 -4.3273820000      1.9067980000      0.5785430000
H                 -1.1567370000      2.4451570000     -0.7832290000
H                  3.7169000000      1.9787490000     -0.9793590000
H                  5.7769800000      0.6161720000     -0.6472400000
H                  5.5814870000     -1.7258810000      0.2002330000
H                  3.3290800000     -2.6671630000      0.7017910000
H                 -1.5430000000     -2.1814090000      0.8894640000
H                 -4.5227040000     -0.4444900000      1.4291860000
H                 -4.6461870000     -1.0295500000     -0.2248110000
H                 -3.8865600000     -2.0406650000      1.0112540000
$end
$rem
MAX_SCF_CYCLES=200
BASIS  =  6-311++G(d,p)
GUI  =  2
JOB_TYPE  =  SP
METHOD  =  B3LYP
SOLVENT_METHOD = COSMO
$end
$solvent
dielectric 37.219
opticaldielectric 1.43
$end

--------------------------------------------------------------

             Standard Nuclear Orientation (Angstroms)
    I     Atom           X                Y                Z
 ----------------------------------------------------------------
    1      C       4.3219920541    -1.4846009950     0.0006391404
    2      C       3.0223508982    -0.7139160642     0.0002521162
    3      C       1.8125927513    -1.3827137886     0.0001807104
    4      C       0.5714546132    -0.7108147849    -0.0000724590
    5      C      -0.6678598717    -1.4887094849    -0.0002322457
    6      O      -0.6666571217    -2.7462741921    -0.0004974865
    7      C      -1.9098589416    -0.7134335955    -0.0001158923
    8      C      -3.1477959723    -1.3942795854    -0.0001218984
    9      C      -4.3446997266    -0.7065590331     0.0000813952
   10      C      -4.3446637880     0.7066427412     0.0002535436
   11      C      -3.1477210725     1.3942916775     0.0002382700
   12      C      -1.9098215239     0.7133989197     0.0000548928
   13      C      -0.6678127620     1.4887087005     0.0000168025
   14      O      -0.6666200758     2.7462648932     0.0001182544
   15      C       0.5715005785     0.7108377114    -0.0000993215
   16      C       1.8126519697     1.3826985362    -0.0002124972
   17      C       3.0223763902     0.7138486597    -0.0001214432
   18      C       4.3220307427     1.4845928537    -0.0004297495
   19      H       4.1314861538    -2.5601017236     0.0018596546
   20      H       4.9358419693    -1.2547945347    -0.8792134531
   21      H       4.9364841709    -1.2528525489     0.8795222539
   22      H       1.7822507029    -2.4674027817     0.0003623879
   23      H      -3.1175685960    -2.4779587913    -0.0002829554
   24      H      -5.2856959832    -1.2491088351     0.0000850800
   25      H      -5.2856445568     1.2492186377     0.0003839920
   26      H      -3.1174436597     2.4779636853     0.0003314999
   27      H       1.7823756600     2.4673933980    -0.0003987998
   28      H       4.9355924047     1.2551942248     0.8797265905
   29      H       4.9367557134     1.2524681794    -0.8790344922
   30      H       4.1314855667     2.5601006718    -0.0021760875
 ----------------------------------------------------------------

    9    -767.6720820975      7.78e-06  Convergence criterion met
 Total energy in the final basis set =     -767.6720820975
    4    -767.7562126118      8.28e-06  Convergence criterion met
 Total energy in the final basis set =     -767.7562126118

                    Orbital Energies (a.u.)
 --------------------------------------------------------------

 Alpha MOs
 -- Occupied --
-19.0786 -19.0786 -10.2248 -10.2248 -10.1794 -10.1790 -10.1721 -10.1717
-10.1717 -10.1712 -10.1696 -10.1691 -10.1689 -10.1688 -10.1641 -10.1641
-10.1604 -10.1604  -1.0056  -1.0032  -0.8631  -0.8527  -0.7958  -0.7634
 -0.7524  -0.7499  -0.7041  -0.6838  -0.6548  -0.6200  -0.5985  -0.5855
 -0.5554  -0.5192  -0.5159  -0.4770  -0.4652  -0.4483  -0.4398  -0.4327
 -0.4223  -0.4217  -0.4179  -0.4177  -0.4157  -0.3973  -0.3948  -0.3828
 -0.3816  -0.3737  -0.3648  -0.3593  -0.3403  -0.3395  -0.3303  -0.3287
 -0.2653  -0.2577  -0.2511  -0.2498  -0.2395  -0.2388  -0.1421

 Beta MOs
 -- Occupied --
-19.0732 -19.0732 -10.2230 -10.2229 -10.1790 -10.1786 -10.1713 -10.1712
-10.1709 -10.1707 -10.1689 -10.1688 -10.1688 -10.1685 -10.1640 -10.1640
-10.1604 -10.1604  -0.9961  -0.9936  -0.8608  -0.8513  -0.7926  -0.7619
 -0.7504  -0.7477  -0.7016  -0.6823  -0.6486  -0.6188  -0.5959  -0.5850
 -0.5528  -0.5168  -0.5144  -0.4752  -0.4631  -0.4466  -0.4390  -0.4300
 -0.4219  -0.4206  -0.4159  -0.4103  -0.4058  -0.3953  -0.3941  -0.3815
 -0.3731  -0.3637  -0.3594  -0.3552  -0.3399  -0.3382  -0.3275  -0.3187
 -0.2525  -0.2472  -0.2449  -0.2426  -0.2346  -0.2331

          Ground-State Mulliken Net Atomic Charges

     Atom                 Charge (a.u.)    Spin (a.u.)
  --------------------------------------------------------
      1 C                    -0.518186      -0.002603
      2 C                     0.348989       0.037579
      3 C                    -0.145648       0.025891
      4 C                    -0.008681       0.022409
      5 C                    -0.508164       0.109177
      6 O                    -0.497228       0.196342
      7 C                     0.217663       0.040752
      8 C                     0.033735       0.031822
      9 C                    -0.451702       0.041360
     10 C                    -0.451561       0.041347
     11 C                     0.033407       0.031820
     12 C                     0.217693       0.040764
     13 C                    -0.508110       0.109190
     14 O                    -0.497230       0.196355
     15 C                    -0.007419       0.022458
     16 C                    -0.146098       0.025885
     17 C                     0.349455       0.037592
     18 C                    -0.517939      -0.002603
     19 H                     0.181190       0.000181
     20 H                     0.167273       0.001794
     21 H                     0.167148       0.001791
     22 H                     0.135485      -0.002015
     23 H                     0.174571      -0.001173
     24 H                     0.202804      -0.003348
     25 H                     0.202845      -0.003347
     26 H                     0.174577      -0.001173
     27 H                     0.135568      -0.002014
     28 H                     0.167291       0.001795
     29 H                     0.167104       0.001790
     30 H                     0.181166       0.000181
  --------------------------------------------------------
  Sum of atomic charges =    -1.000000

                    Cartesian Multipole Moments
 -----------------------------------------------------------------
    Charge (ESU x 10^10)
                -4.8032
    Dipole Moment (Debye)
         X       4.7103      Y      -0.0006      Z       0.0025
       Tot       4.7103
    Quadrupole Moments (Debye-Ang)
        XX     -97.3036     XY       0.0029     YY    -143.5133
        XZ      -0.0011     YZ      -0.0065     ZZ    -112.3720

 Total job time:  132.03s(wall), 670.07s(cpu)
        *  Thank you very much for using Q-Chem.  Have a nice day.  *
