 Q-Chem 5.4, Q-Chem, Inc., Pleasanton, CA (2021)
 Q-Chem 5.4.0 for Intel X86 EM64T Linux

User input:
--------------------------------------------------------------
$molecule
0 1
Cl                -2.4169860000      2.8513900000      1.6220970000
C                 -2.3790520000      1.2268120000      0.9749910000
C                 -3.6143960000      0.6225780000      0.7458130000
C                 -3.6834590000     -0.6588070000      0.2081360000
C                 -2.5179840000     -1.3319240000     -0.1318510000
C                 -1.2806980000     -0.7203760000      0.0704690000
C                 -0.0571910000     -1.4559520000     -0.3650570000
O                 -0.1165010000     -2.6181810000     -0.7276230000
C                  1.2277710000     -0.6980730000     -0.4113660000
C                  2.3123840000     -1.2889030000     -1.0597140000
C                  3.5092450000     -0.5948860000     -1.1731400000
C                  3.6224430000      0.6867000000     -0.6434900000
C                  2.5497090000      1.2703800000      0.0290030000
Cl                 2.7970020000      2.8972980000      0.6218030000
C                  1.3299150000      0.5844710000      0.1666570000
C                  0.1754190000      1.1156590000      0.9652300000
O                  0.3412210000      1.9100220000      1.8656270000
C                 -1.1834560000      0.5622480000      0.6491620000
H                 -4.5167560000      1.1662830000      0.9946910000
H                 -4.6506190000     -1.1205060000      0.0474470000
H                 -2.5395720000     -2.3248570000     -0.5620100000
H                  2.1900850000     -2.2826390000     -1.4707620000
H                  4.3558320000     -1.0404290000     -1.6822220000
H                  4.5434420000      1.2464930000     -0.7444920000
$end

$rem
BASIS  =  6-311++G(d,p)
GUI  =  2
JOB_TYPE  =  SP
METHOD  =  B3LYP
SCF_CONVERGENCE  = 8
SOLVENT_METHOD = sm12
$end

$smx
solvent dimethylformamide
charges CM5
$end

--------------------------------------------------------------

             Standard Nuclear Orientation (Angstroms)
    I     Atom           X                Y                Z
 ----------------------------------------------------------------
    1      Cl     -2.4169860000     2.8513900000     1.6220970000
    2      C      -2.3790520000     1.2268120000     0.9749910000
    3      C      -3.6143960000     0.6225780000     0.7458130000
    4      C      -3.6834590000    -0.6588070000     0.2081360000
    5      C      -2.5179840000    -1.3319240000    -0.1318510000
    6      C      -1.2806980000    -0.7203760000     0.0704690000
    7      C      -0.0571910000    -1.4559520000    -0.3650570000
    8      O      -0.1165010000    -2.6181810000    -0.7276230000
    9      C       1.2277710000    -0.6980730000    -0.4113660000
   10      C       2.3123840000    -1.2889030000    -1.0597140000
   11      C       3.5092450000    -0.5948860000    -1.1731400000
   12      C       3.6224430000     0.6867000000    -0.6434900000
   13      C       2.5497090000     1.2703800000     0.0290030000
   14      Cl      2.7970020000     2.8972980000     0.6218030000
   15      C       1.3299150000     0.5844710000     0.1666570000
   16      C       0.1754190000     1.1156590000     0.9652300000
   17      O       0.3412210000     1.9100220000     1.8656270000
   18      C      -1.1834560000     0.5622480000     0.6491620000
   19      H      -4.5167560000     1.1662830000     0.9946910000
   20      H      -4.6506190000    -1.1205060000     0.0474470000
   21      H      -2.5395720000    -2.3248570000    -0.5620100000
   22      H       2.1900850000    -2.2826390000    -1.4707620000
   23      H       4.3558320000    -1.0404290000    -1.6822220000
   24      H       4.5434420000     1.2464930000    -0.7444920000
 ----------------------------------------------------------------

   15   -1608.1731848623      6.23e-09  Convergence criterion met
 Total energy in the final basis set =    -1608.1955046472

                    Orbital Energies (a.u.)
 --------------------------------------------------------------

 Alpha MOs
 -- Occupied --
********-101.5633 -19.1361 -19.1353 -10.2935 -10.2883 -10.2658 -10.2657
-10.2264 -10.2263 -10.2188 -10.2187 -10.2091 -10.2090 -10.2059 -10.2058
-10.2030 -10.2029  -9.4783  -9.4782  -7.2430  -7.2430  -7.2333  -7.2332
 -7.2323  -7.2323  -1.0755  -1.0708  -0.9191  -0.9151  -0.8687  -0.8592
 -0.8215  -0.7831  -0.7686  -0.7625  -0.6971  -0.6758  -0.6569  -0.6146
 -0.5870  -0.5707  -0.5631  -0.5138  -0.5034  -0.5012  -0.4975  -0.4683
 -0.4634  -0.4625  -0.4582  -0.4560  -0.4474  -0.4263  -0.4184  -0.4074
 -0.3956  -0.3942  -0.3884  -0.3819  -0.3534  -0.3480  -0.3367  -0.3247
 -0.2975  -0.2925  -0.2842  -0.2703  -0.2702  -0.2697

          Ground-State Mulliken Net Atomic Charges

     Atom                 Charge (a.u.)
  ----------------------------------------
      1 Cl                    0.414882
      2 C                     0.027423
      3 C                     0.367962
      4 C                     0.242913
      5 C                     0.606853
      6 C                     0.176261
      7 C                    -1.700976
      8 O                    -0.239231
      9 C                     0.175614
     10 C                     0.604766
     11 C                     0.238003
     12 C                     0.363047
     13 C                     0.026217
     14 Cl                    0.415353
     15 C                    -0.101096
     16 C                    -3.126944
     17 O                    -0.142521
     18 C                    -0.092196
     19 H                     0.281322
     20 H                     0.369769
     21 H                     0.221163
     22 H                     0.221159
     23 H                     0.369299
     24 H                     0.280957
  ----------------------------------------
  Sum of atomic charges =     0.000000

                    Cartesian Multipole Moments
 -----------------------------------------------------------------
    Charge (ESU x 10^10)
                 0.0000
    Dipole Moment (Debye)
         X      -0.5164      Y      -2.0363      Z      -2.7509
       Tot       3.4613
    Quadrupole Moments (Debye-Ang)
        XX     -86.0394     XY      -0.6487     YY    -128.5970
        XZ      -6.9574     YZ      -5.4291     ZZ    -121.2067

 Total job time:  460.12s(wall), 3585.54s(cpu)
        *  Thank you very much for using Q-Chem.  Have a nice day.  *
