 Q-Chem 5.4, Q-Chem, Inc., Pleasanton, CA (2021)
 Q-Chem 5.4.0 for Intel X86 EM64T Linux

User input:
--------------------------------------------------------------
$molecule
0 1
C                 -0.9266980000      2.0953680000      0.0243730000
C                 -2.1246160000      1.2551420000     -0.0122780000
C                 -2.0833030000     -0.0823910000     -0.0782180000
C                 -0.8358350000     -0.8468660000     -0.1202410000
C                  0.4220010000     -0.0137730000     -0.0539270000
C                  0.3802160000      1.3387710000      0.0121980000
O                 -0.9788690000      3.3116420000      0.0569860000
O                 -0.8129910000     -2.0613800000     -0.2070320000
C                  1.6243350000      2.1802000000      0.0752860000
C                  1.7158180000     -0.7790360000     -0.0696360000
O                 -3.3390790000     -0.6063830000     -0.1682970000
O                 -3.4105370000      1.7071430000     -0.0543090000
C                 -4.2104310000      0.5151360000      0.0803320000
H                  2.2185280000      1.9349850000      0.9614390000
H                  1.3686590000      3.2378940000      0.1098790000
H                  2.2621570000      2.0031900000     -0.7964140000
H                  1.5257110000     -1.8496880000     -0.1229910000
H                  2.3046460000     -0.5718570000      0.8295520000
H                  2.3310140000     -0.4911490000     -0.9280950000
H                 -5.0096460000      0.5268520000     -0.6586490000
H                 -4.5941020000      0.4527930000      1.1049390000
$end
$rem
MAX_SCF_CYCLES=200
BASIS  =  6-311++G(d,p)
GUI  =  2
JOB_TYPE  =  SP
METHOD  =  B3LYP
SOLVENT_METHOD = COSMO
$end
$solvent
dielectric 37.219
opticaldielectric 1.43
$end

--------------------------------------------------------------

             Standard Nuclear Orientation (Angstroms)
    I     Atom           X                Y                Z
 ----------------------------------------------------------------
    1      C       0.2055710746    -1.4735819765     0.0132257479
    2      C      -1.0176950814    -0.6699051837     0.0058714322
    3      C      -1.0176926577     0.6698893252     0.0060898081
    4      C       0.2055629067     1.4736048521     0.0132693082
    5      C       1.4886104309     0.6774414573    -0.0092205856
    6      C       1.4885975608    -0.6773624630    -0.0088870649
    7      O       0.1908702254    -2.6910211599     0.0403105000
    8      O       0.1908022406     2.6910403803     0.0403181438
    9      C       2.7581783841    -1.4821125454    -0.0277757333
   10      C       2.7582670352     1.4820819469    -0.0282587377
   11      O      -2.2892847559     1.1587002523     0.0675114479
   12      O      -2.2892882566    -1.1587340977     0.0672018234
   13      C      -3.1248752390     0.0000025697    -0.1276392109
   14      H       3.3478753964    -1.2624577305    -0.9235837779
   15      H       2.5352109206    -2.5476099526    -0.0109152571
   16      H       3.3870049362    -1.2429737146     0.8355898444
   17      H       2.5351967771     2.5476910358    -0.0280094496
   18      H       3.3565327688     1.2492978971    -0.9148647996
   19      H       3.3787940028     1.2557576005     0.8446791012
   20      H      -3.9261113607    -0.0000863052     0.6092430514
   21      H      -3.5064455550     0.0001502738    -1.1549238173
 ----------------------------------------------------------------

    9    -648.7963042657      2.50e-06  Convergence criterion met
 Total energy in the final basis set =     -648.7963042657
    5    -648.8138837490      3.90e-06  Convergence criterion met
 Total energy in the final basis set =     -648.8138837490

                    Orbital Energies (a.u.)
 --------------------------------------------------------------

 Alpha MOs
 -- Occupied --
-19.1938 -19.1937 -19.1481 -19.1481 -10.3013 -10.2971 -10.2971 -10.2645
-10.2636 -10.2155 -10.2148 -10.1723 -10.1723  -1.1580  -1.0837  -1.0800
 -1.0602  -0.8725  -0.8174  -0.7528  -0.7224  -0.7074  -0.6737  -0.6196
 -0.6185  -0.5580  -0.5402  -0.5366  -0.4974  -0.4845  -0.4763  -0.4664
 -0.4395  -0.4387  -0.4262  -0.4197  -0.4163  -0.4106  -0.4018  -0.3877
 -0.3858  -0.3811  -0.3758  -0.3019  -0.2914  -0.2884  -0.2375

          Ground-State Mulliken Net Atomic Charges

     Atom                 Charge (a.u.)
  ----------------------------------------
      1 C                    -0.989799
      2 C                     0.426476
      3 C                     0.426604
      4 C                    -0.989485
      5 C                     0.727687
      6 C                     0.728025
      7 O                    -0.321985
      8 O                    -0.322016
      9 C                    -0.457309
     10 C                    -0.457317
     11 O                    -0.176629
     12 O                    -0.176475
     13 C                    -0.042098
     14 H                     0.186596
     15 H                     0.199049
     16 H                     0.184774
     17 H                     0.199041
     18 H                     0.185168
     19 H                     0.186135
     20 H                     0.229587
     21 H                     0.253970
  ----------------------------------------
  Sum of atomic charges =     0.000000

                    Cartesian Multipole Moments
 -----------------------------------------------------------------
    Charge (ESU x 10^10)
                 0.0000
    Dipole Moment (Debye)
         X       0.8025      Y      -0.0007      Z      -0.6501
       Tot       1.0328
    Quadrupole Moments (Debye-Ang)
        XX     -53.9705     XY       0.0011     YY    -101.2108
        XZ       1.2479     YZ       0.0022     ZZ     -72.2899

 Total job time:  26.95s(wall), 200.28s(cpu)
        *  Thank you very much for using Q-Chem.  Have a nice day.  *
