 Gaussian 16, Revision A.03,
 Gaussian 16:  ES64L-G16RevA.03 25-Dec-2016

 ----------------------------------------------------------------------
 #P UB3LYP/6-311++G(d,p) nosym opt freq SCRF=(PCM,Solvent=n,n-DiMethylF
 ormamide)
 ----------------------------------------------------------------------

 -------
 Reduced
 -------
 Symbolic Z-matrix:
 Charge = -2 Multiplicity = 1

 SCF Done:  E(UB3LYP) =  -921.523492141     A.U. after   18 cycles
 SCF Done:  E(UB3LYP) =  -921.523559038     A.U. after   11 cycles
 SCF Done:  E(UB3LYP) =  -921.523557902     A.U. after   10 cycles
 SCF Done:  E(UB3LYP) =  -921.523560985     A.U. after   10 cycles
 SCF Done:  E(UB3LYP) =  -921.523561616     A.U. after    8 cycles
 SCF Done:  E(UB3LYP) =  -921.523564141     A.U. after   10 cycles
 SCF Done:  E(UB3LYP) =  -921.523571557     A.U. after   12 cycles
 SCF Done:  E(UB3LYP) =  -921.523560566     A.U. after   14 cycles
 SCF Done:  E(UB3LYP) =  -921.523581328     A.U. after   12 cycles
 SCF Done:  E(UB3LYP) =  -921.523565154     A.U. after   12 cycles
 SCF Done:  E(UB3LYP) =  -921.523673250     A.U. after   11 cycles
 SCF Done:  E(UB3LYP) =  -921.523676735     A.U. after   12 cycles
 SCF Done:  E(UB3LYP) =  -921.523678890     A.U. after    9 cycles
 SCF Done:  E(UB3LYP) =  -921.523680617     A.U. after   10 cycles
 SCF Done:  E(UB3LYP) =  -921.523681693     A.U. after   11 cycles
 SCF Done:  E(UB3LYP) =  -921.523681735     A.U. after   10 cycles
 SCF Done:  E(UB3LYP) =  -921.523682263     A.U. after   10 cycles
 SCF Done:  E(UB3LYP) =  -921.523682359     A.U. after   10 cycles
 SCF Done:  E(UB3LYP) =  -921.523682368     A.U. after    9 cycles
 Optimization completed.
    -- Stationary point found.
 Normal termination of Gaussian 16 at Sun Feb 11 06:12:09 2024.

 ----------------------------------------------------------------------
 #P Geom=AllCheck Guess=TCheck SCRF=Check GenChk UB3LYP/6-311++G(d,p) F
 req
 ----------------------------------------------------------------------

 Structure from the checkpoint file:  "134-an.chk"
 -------
 Reduced
 -------
 Charge = -2 Multiplicity = 1

                          Input orientation:
 ---------------------------------------------------------------------
 Center     Atomic      Atomic             Coordinates (Angstroms)
 Number     Number       Type             X           Y           Z
 ---------------------------------------------------------------------
      1          6           0        7.105783   -1.835537   -0.573869
      2          6           0        7.619770   -0.827462   -1.460449
      3          6           0        6.747764    0.229336   -1.934748
      4          6           0        5.448066    0.233693   -1.521165
      5          6           0        4.869178   -0.735639   -0.646602
      6          6           0        5.703478   -1.818149   -0.143393
      7          6           0        5.147311   -2.809367    0.731500
      8          6           0        3.741664   -2.650120    1.069663
      9          6           0        2.934580   -1.572238    0.567313
     10          6           0        3.484768   -0.574389   -0.319924
     11          6           0        3.125660   -3.594103    1.934584
     12          6           0        1.798636   -3.502243    2.299313
     13          6           0        1.005703   -2.436144    1.804423
     14          6           0        1.571182   -1.503540    0.961417
     15          8           0        5.806097   -3.817103    1.229104
     16          8           0        2.752731    0.398396   -0.781211
     17          1           0        4.779477    1.016710   -1.863859
     18          1           0        3.745981   -4.402592    2.303463
     19          1           0        0.982188   -0.680955    0.571722
     20          6           0        7.265600    1.301270   -2.863327
     21          1           0       -0.039240   -2.357491    2.088848
     22          6           0        8.974215   -0.873172   -1.860342
     23          6           0        8.030095   -2.825811   -0.148215
     24          6           0        9.356502   -2.836681   -0.562131
     25          6           0        9.858327   -1.859387   -1.433588
     26          6           0       11.294273   -1.889557   -1.902650
     27          1           0        1.361062   -4.242102    2.962802
     28          1           0        8.090692    1.871726   -2.419327
     29          1           0        6.469020    2.006822   -3.109384
     30          1           0        7.645921    0.886402   -3.804892
     31          1           0        9.344463   -0.104417   -2.529623
     32          1           0        7.654103   -3.582590    0.523987
     33          1           0       10.016784   -3.621088   -0.199994
     34          1           0       11.985659   -2.043403   -1.068262
     35          1           0       11.569760   -0.956791   -2.400731
     36          1           0       11.466418   -2.705822   -2.613794
 ---------------------------------------------------------------------

 SCF Done:  E(UB3LYP) =  -921.523682368     A.U. after    2 cycles

 Alpha  occ. eigenvalues --  -19.01783 -19.01716 -10.17549 -10.17360 -10.16250
 Alpha  occ. eigenvalues --  -10.16080 -10.16035 -10.15684 -10.15253 -10.15215
 Alpha  occ. eigenvalues --  -10.15132 -10.15080 -10.14957 -10.14926 -10.14770
 Alpha  occ. eigenvalues --  -10.14663 -10.14020 -10.14013 -10.13935 -10.13914
 Alpha  occ. eigenvalues --  -10.13752 -10.13123  -0.93281  -0.92851  -0.84849
 Alpha  occ. eigenvalues --   -0.82694  -0.80432  -0.76742  -0.75015  -0.72361
 Alpha  occ. eigenvalues --   -0.72298  -0.71034  -0.68261  -0.66305  -0.63254
 Alpha  occ. eigenvalues --   -0.60118  -0.59095  -0.57502  -0.55998  -0.52776
 Alpha  occ. eigenvalues --   -0.51013  -0.48484  -0.47285  -0.46087  -0.44278
 Alpha  occ. eigenvalues --   -0.43277  -0.41775  -0.41344  -0.41275  -0.40705
 Alpha  occ. eigenvalues --   -0.40496  -0.40030  -0.38715  -0.37923  -0.37782
 Alpha  occ. eigenvalues --   -0.37067  -0.36454  -0.36134  -0.35641  -0.35009
 Alpha  occ. eigenvalues --   -0.34385  -0.32699  -0.32435  -0.31618  -0.31195
 Alpha  occ. eigenvalues --   -0.30912  -0.29615  -0.28081  -0.24792  -0.23075
 Alpha  occ. eigenvalues --   -0.22297  -0.21931  -0.19843  -0.19182  -0.18991
 Alpha  occ. eigenvalues --   -0.11096
 Alpha virt. eigenvalues --   -0.02746  -0.01509  -0.00264   0.00396   0.00816
 Alpha virt. eigenvalues --    0.01018   0.01799   0.02073   0.02438   0.03303
 Alpha virt. eigenvalues --    0.03461   0.03646   0.04159   0.04959   0.05243

  Beta  occ. eigenvalues --  -19.01783 -19.01716 -10.17549 -10.17360 -10.16250
  Beta  occ. eigenvalues --  -10.16080 -10.16035 -10.15684 -10.15253 -10.15215
  Beta  occ. eigenvalues --  -10.15132 -10.15080 -10.14957 -10.14926 -10.14770
  Beta  occ. eigenvalues --  -10.14663 -10.14020 -10.14013 -10.13935 -10.13914
  Beta  occ. eigenvalues --  -10.13752 -10.13123  -0.93281  -0.92851  -0.84849
  Beta  occ. eigenvalues --   -0.82694  -0.80432  -0.76742  -0.75015  -0.72361
  Beta  occ. eigenvalues --   -0.72298  -0.71034  -0.68261  -0.66305  -0.63254
  Beta  occ. eigenvalues --   -0.60118  -0.59095  -0.57502  -0.55998  -0.52776
  Beta  occ. eigenvalues --   -0.51013  -0.48484  -0.47285  -0.46087  -0.44278
  Beta  occ. eigenvalues --   -0.43277  -0.41775  -0.41344  -0.41275  -0.40705
  Beta  occ. eigenvalues --   -0.40496  -0.40030  -0.38715  -0.37923  -0.37782
  Beta  occ. eigenvalues --   -0.37067  -0.36454  -0.36134  -0.35641  -0.35009
  Beta  occ. eigenvalues --   -0.34385  -0.32699  -0.32435  -0.31618  -0.31195
  Beta  occ. eigenvalues --   -0.30912  -0.29615  -0.28081  -0.24792  -0.23075
  Beta  occ. eigenvalues --   -0.22297  -0.21931  -0.19843  -0.19182  -0.18991
  Beta  occ. eigenvalues --   -0.11096
  Beta virt. eigenvalues --   -0.02746  -0.01509  -0.00264   0.00396   0.00816
  Beta virt. eigenvalues --    0.01018   0.01799   0.02073   0.02438   0.03303
  Beta virt. eigenvalues --    0.03461   0.03646   0.04159   0.04959   0.05243

 Mulliken charges and spin densities:
               1          2
     1  C    0.747530  -0.000000
     2  C    0.139492   0.000000
     3  C    0.379646   0.000000
     4  C   -0.258131   0.000000
     5  C    0.206029  -0.000000
     6  C    0.416128  -0.000000
     7  C   -0.777674  -0.000000
     8  C    0.187547  -0.000000
     9  C    0.282327  -0.000000
    10  C   -0.546129   0.000000
    11  C   -0.020850  -0.000000
    12  C   -0.514520   0.000000
    13  C   -0.394960   0.000000
    14  C   -0.095828   0.000000
    15  O   -0.618530   0.000000
    16  O   -0.660100  -0.000000
    17  H    0.097311   0.000000
    18  H    0.146093  -0.000000
    19  H    0.143535  -0.000000
    20  C   -0.402512  -0.000000
    21  H    0.160680   0.000000
    22  C   -0.815568  -0.000000
    23  C   -0.654483   0.000000
    24  C   -0.618809   0.000000
    25  C    0.301944  -0.000000
    26  C   -0.310778   0.000000
    27  H    0.159701  -0.000000
    28  H    0.148741  -0.000000
    29  H    0.165929  -0.000000
    30  H    0.149091   0.000000
    31  H    0.062492   0.000000
    32  H    0.152028   0.000000
    33  H    0.172267  -0.000000
    34  H    0.145818  -0.000000
    35  H    0.160736  -0.000000
    36  H    0.163808  -0.000000
 Sum of Mulliken charges =  -2.00000   0.00000

 Dipole moment (field-independent basis, Debye):
    X=            -43.7283    Y=             16.3543    Z=             -1.3353  Tot=             46.7056
 Quadrupole moment (field-independent basis, Debye-Ang):
   XX=           -370.6090   YY=           -197.4436   ZZ=           -151.0513
   XY=             92.6852   XZ=            -10.1790   YZ=             15.0935

  Exact polarizability: 764.493   4.615 386.111-183.070-130.426 356.378
 Approx polarizability: 811.753  -7.181 445.741-181.207-150.517 396.315

                      1                      2                      3
                      A                      A                      A
 Frequencies --     22.9287                39.5601                46.6387
 Red. masses --      1.0629                 4.7723                 4.9456
 Frc consts  --      0.0003                 0.0044                 0.0063
 IR Inten    --      1.0102                10.7374                 3.1280

                      4                      5                      6
                      A                      A                      A
 Frequencies --     96.1592               137.6492               142.3329
 Red. masses --      4.3477                 4.5678                 4.0826
 Frc consts  --      0.0237                 0.0510                 0.0487
 IR Inten    --      6.8025                 0.6010                 0.0549

                      7                      8                      9
                      A                      A                      A
 Frequencies --    153.5793               172.6392               200.3468
 Red. masses --      4.5541                 4.1424                 2.5685
 Frc consts  --      0.0633                 0.0727                 0.0607
 IR Inten    --      7.3015                11.0186                 0.7673

                     10                     11                     12
                      A                      A                      A
 Frequencies --    232.0853               237.2859               283.3176
 Red. masses --      1.4092                 3.1570                 5.9548
 Frc consts  --      0.0447                 0.1047                 0.2816
 IR Inten    --      1.0189                 3.2106                 3.9292

                     13                     14                     15
                      A                      A                      A
 Frequencies --    290.5922               294.6446               340.6213
 Red. masses --      4.1971                 4.7849                 6.8963
 Frc consts  --      0.2088                 0.2447                 0.4714
 IR Inten    --      1.0355                10.5941                 9.6254

                     16                     17                     18
                      A                      A                      A
 Frequencies --    357.0420               372.7939               390.2397
 Red. masses --      4.5481                 3.8194                10.1995
 Frc consts  --      0.3416                 0.3127                 0.9152
 IR Inten    --      0.0291                 4.8793                 9.9183

                     19                     20                     21
                      A                      A                      A
 Frequencies --    407.2320               439.6507               460.0228
 Red. masses --      4.6897                 4.3785                 3.3460
 Frc consts  --      0.4582                 0.4986                 0.4172
 IR Inten    --      4.9088                 4.2209                 1.0181

                     22                     23                     24
                      A                      A                      A
 Frequencies --    486.4197               492.9061               514.4502
 Red. masses --      9.5368                 5.4933                 5.6965
 Frc consts  --      1.3295                 0.7863                 0.8883
 IR Inten    --      8.2022                 5.0938                 2.6744

                     25                     26                     27
                      A                      A                      A
 Frequencies --    535.4432               536.9309               561.7826
 Red. masses --      3.5687                 4.5717                 4.3211
 Frc consts  --      0.6028                 0.7765                 0.8035
 IR Inten    --     15.4352                12.9724                 4.1897

                     28                     29                     30
                      A                      A                      A
 Frequencies --    588.1362               625.0942               637.1375
 Red. masses --      5.9553                 3.8910                 6.2020
 Frc consts  --      1.2137                 0.8958                 1.4834
 IR Inten    --     12.6669                 2.9591                13.6607

                     31                     32                     33
                      A                      A                      A
 Frequencies --    679.4127               695.5622               709.1750
 Red. masses --      6.0514                 4.7465                 2.5307
 Frc consts  --      1.6458                 1.3530                 0.7499
 IR Inten    --      6.9147                 1.4401                86.8031

                     34                     35                     36
                      A                      A                      A
 Frequencies --    719.8780               735.1406               770.2095
 Red. masses --      5.4818                 6.5638                 3.9478
 Frc consts  --      1.6738                 2.0900                 1.3798
 IR Inten    --      9.1901                 2.6013                 2.3321

                     37                     38                     39
                      A                      A                      A
 Frequencies --    781.1092               806.2430               814.8499
 Red. masses --      1.9596                 3.7387                 6.1075
 Frc consts  --      0.7044                 1.4319                 2.3893
 IR Inten    --     53.9367                 5.0853                25.0940

                     40                     41                     42
                      A                      A                      A
 Frequencies --    839.6066               867.3286               875.6397
 Red. masses --      1.4792                 1.5762                 1.4166
 Frc consts  --      0.6144                 0.6986                 0.6399
 IR Inten    --     66.1197                 0.0278                 8.9552

                     43                     44                     45
                      A                      A                      A
 Frequencies --    882.7109               920.2719               947.5521
 Red. masses --      6.2924                 3.8849                 1.3386
 Frc consts  --      2.8887                 1.9385                 0.7081
 IR Inten    --      0.4977                75.3889                19.5369

                     46                     47                     48
                      A                      A                      A
 Frequencies --    983.2739               989.9496               991.1280
 Red. masses --      1.3310                 1.3088                 2.4220
 Frc consts  --      0.7582                 0.7557                 1.4018
 IR Inten    --      3.7529                11.5502                53.9102

                     49                     50                     51
                      A                      A                      A
 Frequencies --    991.9789              1011.5859              1018.9544
 Red. masses --      1.2926                 1.6866                 2.3631
 Frc consts  --      0.7494                 1.0169                 1.4456
 IR Inten    --      4.1762                70.3001                24.1871

                     52                     53                     54
                      A                      A                      A
 Frequencies --   1035.2297              1052.6449              1057.7636
 Red. masses --      2.1732                 1.4990                 1.4824
 Frc consts  --      1.3722                 0.9786                 0.9772
 IR Inten    --    163.4760                20.8170                 2.8653

                     55                     56                     57
                      A                      A                      A
 Frequencies --   1080.4339              1083.6408              1120.8685
 Red. masses --      2.3789                 4.0461                 1.8729
 Frc consts  --      1.6362                 2.7994                 1.3864
 IR Inten    --     18.5508               276.9576                 7.0194

                     58                     59                     60
                      A                      A                      A
 Frequencies --   1133.9826              1162.3136              1177.3109
 Red. masses --      1.4831                 1.5815                 2.5448
 Frc consts  --      1.1237                 1.2588                 2.0782
 IR Inten    --    449.9093                 0.0830                35.3937

                     61                     62                     63
                      A                      A                      A
 Frequencies --   1202.9615              1209.3922              1225.9915
 Red. masses --      1.9084                 2.3963                 1.9434
 Frc consts  --      1.6271                 2.0651                 1.7211
 IR Inten    --    433.2368               701.8324                85.7190

                     64                     65                     66
                      A                      A                      A
 Frequencies --   1245.6546              1263.0264              1299.2880
 Red. masses --      3.8188                 2.5177                 2.7609
 Frc consts  --      3.4912                 2.3664                 2.7460
 IR Inten    --    353.0196               519.2384                94.5633

                     67                     68                     69
                      A                      A                      A
 Frequencies --   1307.2848              1323.8252              1357.1416
 Red. masses --      4.1955                 5.3478                 6.1508
 Frc consts  --      4.2245                 5.5219                 6.6747
 IR Inten    --    549.1026                78.5101               524.7608

                     70                     71                     72
                      A                      A                      A
 Frequencies --   1367.0026              1389.6029              1403.9250
 Red. masses --      2.6476                 2.4143                 1.2588
 Frc consts  --      2.9150                 2.7468                 1.4618
 IR Inten    --   1020.1531               171.2550                28.1582

                     73                     74                     75
                      A                      A                      A
 Frequencies --   1406.9241              1425.1091              1436.9544
 Red. masses --      1.4766                 3.7397                 4.4472
 Frc consts  --      1.7221                 4.4749                 5.4103
 IR Inten    --    133.9246               263.8204                 6.4896

                     76                     77                     78
                      A                      A                      A
 Frequencies --   1454.4686              1471.6939              1472.3077
 Red. masses --      2.5360                 1.0455                 2.7608
 Frc consts  --      3.1609                 1.3342                 3.5261
 IR Inten    --     49.7902                10.2992                11.1012

                     79                     80                     81
                      A                      A                      A
 Frequencies --   1474.5776              1483.8734              1488.9867
 Red. masses --      1.0493                 1.3823                 1.4420
 Frc consts  --      1.3443                 1.7933                 1.8837
 IR Inten    --      9.3541                64.6837                84.2428

                     82                     83                     84
                      A                      A                      A
 Frequencies --   1495.8937              1513.5184              1551.7396
 Red. masses --      2.2430                 3.0376                 4.7760
 Frc consts  --      2.9572                 4.0998                 6.7756
 IR Inten    --     44.9626                16.1401               174.4228

                     85                     86                     87
                      A                      A                      A
 Frequencies --   1579.4178              1610.4139              1618.9218
 Red. masses --      7.5106                 5.3871                 6.2159
 Frc consts  --     11.0388                 8.2315                 9.5985
 IR Inten    --    107.8486                 2.3090                87.6404

                     88                     89                     90
                      A                      A                      A
 Frequencies --   1632.8507              2992.8619              3008.3610
 Red. masses --      5.5124                 1.0397                 1.0399
 Frc consts  --      8.6593                 5.4871                 5.5451
 IR Inten    --     24.6425               249.5919               139.7809

                     91                     92                     93
                      A                      A                      A
 Frequencies --   3027.1143              3054.4620              3087.2649
 Red. masses --      1.0995                 1.0967                 1.0967
 Frc consts  --      5.9364                 6.0286                 6.1587
 IR Inten    --     55.1439                41.4950                48.8281

                     94                     95                     96
                      A                      A                      A
 Frequencies --   3087.9147              3132.5903              3139.8544
 Red. masses --      1.1005                 1.0892                 1.0849
 Frc consts  --      6.1827                 6.2975                 6.3018
 IR Inten    --     42.1663                65.4588                21.8377

                     97                     98                     99
                      A                      A                      A
 Frequencies --   3155.6554              3157.5438              3166.3239
 Red. masses --      1.0900                 1.0883                 1.0881
 Frc consts  --      6.3951                 6.3928                 6.4276
 IR Inten    --     43.3339                38.1826                58.0915

                    100                    101                    102
                      A                      A                      A
 Frequencies --   3174.7046              3181.3552              3204.4502
 Red. masses --      1.0920                 1.0920                 1.0916
 Frc consts  --      6.4844                 6.5116                 6.6039
 IR Inten    --     54.9190                70.1572                27.9848

 - Thermochemistry -
 -------------------
 Temperature   298.150 Kelvin.  Pressure   1.00000 Atm.
 Atom     1 has atomic number  6 and mass  12.00000

 Molecular mass:   286.09938 amu.
 Principal axes and moments of inertia in atomic units:
                           1         2         3
     Eigenvalues --  2954.395969719.58702**********
           X            0.91555  -0.31347   0.25200
           Y            0.12578   0.81828   0.56089
           Z           -0.38203  -0.48183   0.78861
 This molecule is an asymmetric top.
 Rotational symmetry number  1.
 Warning -- assumption of classical behavior for rotation
           may cause significant error
 Rotational temperatures (Kelvin)      0.02932     0.00891     0.00685
 Rotational constants (GHZ):           0.61087     0.18568     0.14265
 Zero-point vibrational energy     725622.5 (Joules/Mol)
                                  173.42795 (Kcal/Mol)
 Warning -- explicit consideration of  28 degrees of freedom as
           vibrations may cause significant error
 Vibrational temperatures:     32.99    56.92    67.10   138.35   198.05
          (Kelvin)            204.79   220.97   248.39   288.25   333.92
                              341.40   407.63   418.10   423.93   490.08
                              513.70   536.37   561.47   585.92   632.56
                              661.87   699.85   709.18   740.18   770.38
                              772.52   808.28   846.20   899.37   916.70
                              977.52  1000.76  1020.34  1035.74  1057.70
                             1108.16  1123.84  1160.00  1172.39  1208.01
                             1247.89  1259.85  1270.02  1324.07  1363.32
                             1414.71  1424.32  1426.01  1427.24  1455.45
                             1466.05  1489.46  1514.52  1521.89  1554.50
                             1559.12  1612.68  1631.55  1672.31  1693.89
                             1730.79  1740.05  1763.93  1792.22  1817.21
                             1869.39  1880.89  1904.69  1952.62  1966.81
                             1999.33  2019.93  2024.25  2050.41  2067.46
                             2092.66  2117.44  2118.32  2121.59  2134.96
                             2142.32  2152.26  2177.62  2232.61  2272.43
                             2317.03  2329.27  2349.31  4306.06  4328.36
                             4355.34  4394.69  4441.89  4442.82  4507.10
                             4517.55  4540.28  4543.00  4555.63  4567.69
                             4577.26  4610.49

 Zero-point correction=                           0.276375 (Hartree/Particle)
 Thermal correction to Energy=                    0.293786
 Thermal correction to Enthalpy=                  0.294731
 Thermal correction to Gibbs Free Energy=         0.230642
 Sum of electronic and zero-point Energies=           -921.247307
 Sum of electronic and thermal Energies=              -921.229896
 Sum of electronic and thermal Enthalpies=            -921.228952
 Sum of electronic and thermal Free Energies=         -921.293041

                     E (Thermal)             CV                S
                      KCal/Mol        Cal/Mol-Kelvin    Cal/Mol-Kelvin
 Total                  184.354             70.178            134.887
 Electronic               0.000              0.000              0.000
 Translational            0.889              2.981             42.851
 Rotational               0.889              2.981             34.251
 Vibrational            182.576             64.216             57.784
 Vibration     1          0.593              1.985              6.363
 Vibration     2          0.594              1.981              5.281
 Vibration     3          0.595              1.979              4.955
 Vibration     4          0.603              1.952              3.531
 Vibration     5          0.614              1.916              2.836
 Vibration     6          0.616              1.911              2.772
 Vibration     7          0.619              1.899              2.627
 Vibration     8          0.626              1.876              2.407
 Vibration     9          0.638              1.839              2.130
 Vibration    10          0.653              1.792              1.863
 Vibration    11          0.656              1.784              1.823
 Vibration    12          0.682              1.705              1.514
 Vibration    13          0.687              1.691              1.471
 Vibration    14          0.689              1.684              1.447
 Vibration    15          0.720              1.594              1.209
 Vibration    16          0.732              1.561              1.135
 Vibration    17          0.744              1.528              1.068
 Vibration    18          0.758              1.491              0.999
 Vibration    19          0.772              1.455              0.936
 Vibration    20          0.800              1.384              0.828
 Vibration    21          0.818              1.339              0.766
 Vibration    22          0.842              1.280              0.693
 Vibration    23          0.849              1.266              0.676
 Vibration    24          0.870              1.218              0.623
 Vibration    25          0.890              1.172              0.575
 Vibration    26          0.892              1.168              0.572
 Vibration    27          0.917              1.114              0.520
 Vibration    28          0.945              1.057              0.471

                           ! Non-Optimized Parameters !
 Normal termination of Gaussian 16 at Sun Feb 11 07:31:11 2024.
