 Q-Chem 5.4, Q-Chem, Inc., Pleasanton, CA (2021)
 Q-Chem 5.4.0 for Intel X86 EM64T Linux

User input:
--------------------------------------------------------------
$molecule
0 1
C                 -3.7706340000      1.7680950000     -0.3469620000
C                 -2.5439740000      0.9175430000     -0.1366030000
C                 -1.2799030000      1.4333290000     -0.4132780000
C                 -0.1210200000      0.6751780000     -0.2306320000
C                  1.2031980000      1.2799400000     -0.5438190000
O                  1.3009480000      2.4245920000     -0.9579570000
C                  2.4124650000      0.4291660000     -0.3312070000
C                  3.6745730000      0.9607140000     -0.6132440000
C                  4.8159480000      0.1903950000     -0.4241540000
C                  4.7066060000     -1.1201550000      0.0491090000
C                  3.4561780000     -1.6570070000      0.3321030000
C                  2.3024370000     -0.8896120000      0.1450410000
C                  0.9719500000     -1.4925840000      0.4574650000
O                  0.8788860000     -2.6378660000      0.8709310000
C                 -0.2308520000     -0.6410400000      0.2441980000
C                 -1.4965210000     -1.1622680000      0.5227380000
C                 -2.6547580000     -0.4097780000      0.3418120000
C                 -4.0024310000     -1.0089090000      0.6537280000
H                 -3.5022280000      2.7584040000     -0.7166830000
H                 -4.4545570000      1.3113500000     -1.0697570000
H                 -4.3331360000      1.8955980000      0.5836840000
H                 -1.1706610000      2.4471340000     -0.7806950000
H                  3.7355010000      1.9782520000     -0.9790050000
H                  5.7921220000      0.6074830000     -0.6443720000
H                  5.5979720000     -1.7195530000      0.1959480000
H                  3.3476890000     -2.6699470000      0.6996010000
H                 -1.5568930000     -2.1808070000      0.8883310000
H                 -4.5267330000     -0.4342690000      1.4242310000
H                 -4.6497920000     -1.0180990000     -0.2292340000
H                 -3.9023800000     -2.0352830000      1.0086800000
$end

$rem
BASIS  =  6-311++G(d,p)
GUI  =  2
JOB_TYPE  =  SP
METHOD  =  B3LYP
SCF_CONVERGENCE  = 8
SOLVENT_METHOD = sm12
$end

$smx
solvent dimethylformamide
charges CM5
$end

--------------------------------------------------------------

             Standard Nuclear Orientation (Angstroms)
    I     Atom           X                Y                Z
 ----------------------------------------------------------------
    1      C      -3.7706340000     1.7680950000    -0.3469620000
    2      C      -2.5439740000     0.9175430000    -0.1366030000
    3      C      -1.2799030000     1.4333290000    -0.4132780000
    4      C      -0.1210200000     0.6751780000    -0.2306320000
    5      C       1.2031980000     1.2799400000    -0.5438190000
    6      O       1.3009480000     2.4245920000    -0.9579570000
    7      C       2.4124650000     0.4291660000    -0.3312070000
    8      C       3.6745730000     0.9607140000    -0.6132440000
    9      C       4.8159480000     0.1903950000    -0.4241540000
   10      C       4.7066060000    -1.1201550000     0.0491090000
   11      C       3.4561780000    -1.6570070000     0.3321030000
   12      C       2.3024370000    -0.8896120000     0.1450410000
   13      C       0.9719500000    -1.4925840000     0.4574650000
   14      O       0.8788860000    -2.6378660000     0.8709310000
   15      C      -0.2308520000    -0.6410400000     0.2441980000
   16      C      -1.4965210000    -1.1622680000     0.5227380000
   17      C      -2.6547580000    -0.4097780000     0.3418120000
   18      C      -4.0024310000    -1.0089090000     0.6537280000
   19      H      -3.5022280000     2.7584040000    -0.7166830000
   20      H      -4.4545570000     1.3113500000    -1.0697570000
   21      H      -4.3331360000     1.8955980000     0.5836840000
   22      H      -1.1706610000     2.4471340000    -0.7806950000
   23      H       3.7355010000     1.9782520000    -0.9790050000
   24      H       5.7921220000     0.6074830000    -0.6443720000
   25      H       5.5979720000    -1.7195530000     0.1959480000
   26      H       3.3476890000    -2.6699470000     0.6996010000
   27      H      -1.5568930000    -2.1808070000     0.8883310000
   28      H      -4.5267330000    -0.4342690000     1.4242310000
   29      H      -4.6497920000    -1.0180990000    -0.2292340000
   30      H      -3.9023800000    -2.0352830000     1.0086800000
 ----------------------------------------------------------------

   14    -767.6086355696      8.66e-09  Convergence criterion met
 Total energy in the final basis set =     -767.6308055516

                    Orbital Energies (a.u.)
 --------------------------------------------------------------

 Alpha MOs
 -- Occupied --
-19.1264 -19.1264 -10.2787 -10.2787 -10.2075 -10.2070 -10.2031 -10.2031
-10.2026 -10.2026 -10.1973 -10.1968 -10.1961 -10.1961 -10.1909 -10.1909
-10.1700 -10.1700  -1.0614  -1.0598  -0.8927  -0.8823  -0.8218  -0.7856
 -0.7813  -0.7768  -0.7236  -0.7057  -0.6755  -0.6456  -0.6225  -0.6135
 -0.5846  -0.5478  -0.5434  -0.5042  -0.4926  -0.4741  -0.4674  -0.4556
 -0.4517  -0.4500  -0.4470  -0.4461  -0.4382  -0.4258  -0.4161  -0.4030
 -0.3937  -0.3927  -0.3846  -0.3842  -0.3687  -0.3630  -0.3558  -0.3551
 -0.2843  -0.2840  -0.2778  -0.2712  -0.2702  -0.2625

          Ground-State Mulliken Net Atomic Charges

     Atom                 Charge (a.u.)
  ----------------------------------------
      1 C                     0.486968
      2 C                     0.965097
      3 C                    -0.061866
      4 C                    -0.991688
      5 C                    -1.646703
      6 O                    -0.258515
      7 C                    -0.417966
      8 C                     0.142056
      9 C                     0.457221
     10 C                     0.456972
     11 C                     0.143020
     12 C                    -0.417352
     13 C                    -1.645539
     14 O                    -0.258429
     15 C                    -0.991871
     16 C                    -0.062838
     17 C                     0.968522
     18 C                     0.488545
     19 H                     0.259099
     20 H                     0.218224
     21 H                     0.218328
     22 H                     0.107184
     23 H                     0.188000
     24 H                     0.331450
     25 H                     0.331462
     26 H                     0.188107
     27 H                     0.107021
     28 H                     0.218442
     29 H                     0.218064
     30 H                     0.258986
  ----------------------------------------
  Sum of atomic charges =     0.000000

                    Cartesian Multipole Moments
 -----------------------------------------------------------------
    Charge (ESU x 10^10)
                 0.0000
    Dipole Moment (Debye)
         X      -1.6853      Y       0.1646      Z       0.0687
       Tot       1.6947
    Quadrupole Moments (Debye-Ang)
        XX     -68.5467     XY      -4.4573     YY    -114.9450
        XZ      -1.2759     YZ       3.1139     ZZ    -108.1564

 Total job time:  680.89s(wall), 5337.62s(cpu)
        *  Thank you very much for using Q-Chem.  Have a nice day.  *
