 Q-Chem 5.4, Q-Chem, Inc., Pleasanton, CA (2021)
 Q-Chem 5.4.0 for Intel X86 EM64T Linux

User input:
--------------------------------------------------------------
$molecule
-2 1
C                 -1.6185600000      2.7937480000      0.0562750000
C                 -2.8767670000      2.2346720000      0.0912690000
C                 -3.0034250000      0.8222990000      0.0936790000
C                 -0.4458480000      2.0000940000      0.0197960000
C                 -0.5652300000      0.5479320000      0.0229940000
C                 -1.8899710000     -0.0081380000      0.0618340000
C                  0.8335870000      2.6891710000     -0.0122400000
C                  1.9711700000      1.8355850000     -0.0438700000
C                  1.8702280000      0.4214760000     -0.0342610000
C                  0.6303390000     -0.2871180000     -0.0200190000
O                  0.9123200000      3.9891300000     -0.0055070000
O                  0.5821720000     -1.5894380000     -0.0502240000
C                  3.3244010000      2.5081490000     -0.0809240000
C                  3.1224140000     -0.4251860000     -0.0612430000
C                 -2.1434360000     -1.5044470000      0.0777110000
H                 -1.4645670000      3.8685020000      0.0547040000
H                 -3.7668300000      2.8630470000      0.1173100000
H                 -3.9947890000      0.3701280000      0.1247710000
H                  3.1652910000      3.5791310000     -0.2321510000
H                  3.9689110000      2.1164570000     -0.8817170000
H                  3.8905560000      2.3809720000      0.8600510000
H                  3.8742840000     -0.0864430000      0.6658280000
H                  3.6222100000     -0.4183490000     -1.0483240000
H                  2.8401100000     -1.4589070000      0.1540820000
H                 -1.6610100000     -1.9845960000      0.9319220000
H                 -1.7099060000     -1.9956100000     -0.7956350000
H                 -3.2279360000     -1.6926620000      0.1121680000
$end
$rem
MAX_SCF_CYCLES=200
BASIS  =  6-311++G(d,p)
GUI  =  2
JOB_TYPE  =  SP
METHOD  =  B3LYP
SOLVENT_METHOD = COSMO
$end
$solvent
dielectric 37.219
opticaldielectric 1.43
$end

--------------------------------------------------------------

             Standard Nuclear Orientation (Angstroms)
    I     Atom           X                Y                Z
 ----------------------------------------------------------------
    1      C      -1.3049932562    -2.1109536465     0.0032178928
    2      C      -2.6561612303    -1.8440889423     0.0012829066
    3      C      -3.0920516926    -0.4947058416    -0.0019265339
    4      C      -0.3362940362    -1.0774693083     0.0048816767
    5      C      -0.7739113690     0.3123181496     0.0005625176
    6      C      -2.1893785905     0.5615132223    -0.0033704193
    7      C       1.0642412063    -1.4664511856     0.0036691917
    8      C       1.9853122127    -0.3823261650     0.0012735900
    9      C       1.5739189429     0.9743675301    -0.0098475329
   10      C       0.2080875545     1.3912836931     0.0080005777
   11      O       1.4283095231    -2.7168780696    -0.0012794339
   12      O      -0.1260881821     2.6509807970     0.0355608403
   13      C       3.4542699885    -0.7388504736     0.0029889493
   14      C       2.6081239680     2.0770236724    -0.0200331691
   15      C      -2.7678076834     1.9646086466    -0.0167951698
   16      H      -0.9171416854    -3.1250459921     0.0038063138
   17      H      -3.3855878141    -2.6538309161     0.0017444169
   18      H      -4.1593334764    -0.2730942207    -0.0070048809
   19      H       3.5399777006    -1.8170980510     0.1618108365
   20      H       4.0169983807    -0.2071637791     0.7844818842
   21      H       3.9533710213    -0.4982485488    -0.9536448871
   22      H       3.3969324158     1.9062260544    -0.7665564188
   23      H       3.1228004145     2.1897616015     0.9528851221
   24      H       2.0986452836     3.0208044579    -0.2306247379
   25      H      -2.4261151587     2.5317252812    -0.8854603996
   26      H      -2.4308537089     2.5473373204     0.8427465110
   27      H      -3.8676001901     1.9081888656    -0.0218618742
 ----------------------------------------------------------------

   11    -653.2034619683      8.48e-06  Convergence criterion met
 Total energy in the final basis set =     -653.2034619683
    6    -653.4844918024      2.55e-06  Convergence criterion met
 Total energy in the final basis set =     -653.4844918024

                    Orbital Energies (a.u.)
 --------------------------------------------------------------

 Alpha MOs
 -- Occupied --
-19.0158 -19.0098 -10.1671 -10.1641 -10.1574 -10.1448 -10.1403 -10.1392
-10.1382 -10.1375 -10.1339 -10.1330 -10.1316 -10.1245 -10.1226  -0.9290
 -0.9240  -0.8227  -0.7765  -0.7424  -0.7215  -0.6946  -0.6606  -0.6371
 -0.6180  -0.5571  -0.5515  -0.5038  -0.4735  -0.4553  -0.4342  -0.4189
 -0.4042  -0.3931  -0.3913  -0.3772  -0.3696  -0.3682  -0.3583  -0.3498
 -0.3484  -0.3475  -0.3464  -0.3212  -0.3088  -0.3041  -0.3022  -0.2971
 -0.2225  -0.2185  -0.1994  -0.1985  -0.1862  -0.1100

          Ground-State Mulliken Net Atomic Charges

     Atom                 Charge (a.u.)
  ----------------------------------------
      1 C                    -0.194291
      2 C                    -0.439298
      3 C                    -0.565649
      4 C                     0.440367
      5 C                     0.838582
      6 C                     0.567069
      7 C                    -1.029816
      8 C                     0.443068
      9 C                     0.734955
     10 C                    -1.659315
     11 O                    -0.747791
     12 O                    -0.688093
     13 C                    -0.550456
     14 C                    -0.464624
     15 C                    -0.481443
     16 H                     0.150602
     17 H                     0.184414
     18 H                     0.120026
     19 H                     0.173732
     20 H                     0.136135
     21 H                     0.144036
     22 H                     0.133436
     23 H                     0.146355
     24 H                     0.170243
     25 H                     0.149880
     26 H                     0.150988
     27 H                     0.136888
  ----------------------------------------
  Sum of atomic charges =    -2.000000

                    Cartesian Multipole Moments
 -----------------------------------------------------------------
    Charge (ESU x 10^10)
                -9.6064
    Dipole Moment (Debye)
         X      -3.8246      Y       1.9649      Z      -0.1269
       Tot       4.3017
    Quadrupole Moments (Debye-Ang)
        XX    -115.0299     XY      13.2053     YY    -155.8155
        XZ       0.0588     YZ      -0.3922     ZZ    -100.6417

 Total job time:  59.35s(wall), 449.66s(cpu)
        *  Thank you very much for using Q-Chem.  Have a nice day.  *
