 Gaussian 16, Revision A.03,
 Gaussian 16:  ES64L-G16RevA.03 25-Dec-2016

 --------------------------------------
 #P UB3LYP/6-311++G(d,p) nosym opt freq
 --------------------------------------

 -------
 Reduced
 -------
 Symbolic Z-matrix:
 Charge = -2 Multiplicity = 1

 SCF Done:  E(UB3LYP) =  -653.203128104     A.U. after   51 cycles
 SCF Done:  E(UB3LYP) =  -653.203356293     A.U. after   31 cycles
 SCF Done:  E(UB3LYP) =  -653.203374491     A.U. after   33 cycles
 SCF Done:  E(UB3LYP) =  -653.203386363     A.U. after   46 cycles
 SCF Done:  E(UB3LYP) =  -653.203389026     A.U. after   32 cycles
 SCF Done:  E(UB3LYP) =  -653.203390610     A.U. after   31 cycles
 SCF Done:  E(UB3LYP) =  -653.203391520     A.U. after   36 cycles
 SCF Done:  E(UB3LYP) =  -653.203392430     A.U. after   32 cycles
 SCF Done:  E(UB3LYP) =  -653.203392759     A.U. after   12 cycles
 SCF Done:  E(UB3LYP) =  -653.203425168     A.U. after   37 cycles
 SCF Done:  E(UB3LYP) =  -653.203425537     A.U. after   31 cycles
 SCF Done:  E(UB3LYP) =  -653.203426199     A.U. after   33 cycles
 SCF Done:  E(UB3LYP) =  -653.203426826     A.U. after   35 cycles
 SCF Done:  E(UB3LYP) =  -653.203426975     A.U. after   30 cycles
 SCF Done:  E(UB3LYP) =  -653.203427059     A.U. after   52 cycles
 Optimization completed.
    -- Stationary point found.
 Normal termination of Gaussian 16 at Sun Jan  7 22:29:16 2024.

 ----------------------------------------------------------------------
 #P Geom=AllCheck Guess=TCheck SCRF=Check GenChk UB3LYP/6-311++G(d,p) F
 req
 ----------------------------------------------------------------------

 Structure from the checkpoint file:  "255-an.chk"
 -------
 Reduced
 -------
 Charge = -2 Multiplicity = 1

                          Input orientation:
 ---------------------------------------------------------------------
 Center     Atomic      Atomic             Coordinates (Angstroms)
 Number     Number       Type             X           Y           Z
 ---------------------------------------------------------------------
      1          6           0       -1.618560    2.793748    0.056275
      2          6           0       -2.876767    2.234672    0.091269
      3          6           0       -3.003425    0.822299    0.093679
      4          6           0       -0.445848    2.000094    0.019796
      5          6           0       -0.565230    0.547932    0.022994
      6          6           0       -1.889971   -0.008138    0.061834
      7          6           0        0.833587    2.689171   -0.012240
      8          6           0        1.971170    1.835585   -0.043870
      9          6           0        1.870228    0.421476   -0.034261
     10          6           0        0.630339   -0.287118   -0.020019
     11          8           0        0.912320    3.989130   -0.005507
     12          8           0        0.582172   -1.589438   -0.050224
     13          6           0        3.324401    2.508149   -0.080924
     14          6           0        3.122414   -0.425186   -0.061243
     15          6           0       -2.143436   -1.504447    0.077711
     16          1           0       -1.464567    3.868502    0.054704
     17          1           0       -3.766830    2.863047    0.117310
     18          1           0       -3.994789    0.370128    0.124771
     19          1           0        3.165291    3.579131   -0.232151
     20          1           0        3.968911    2.116457   -0.881717
     21          1           0        3.890556    2.380972    0.860051
     22          1           0        3.874284   -0.086443    0.665828
     23          1           0        3.622210   -0.418349   -1.048324
     24          1           0        2.840110   -1.458907    0.154082
     25          1           0       -1.661010   -1.984596    0.931922
     26          1           0       -1.709906   -1.995610   -0.795635
     27          1           0       -3.227936   -1.692662    0.112168
 ---------------------------------------------------------------------

 SCF Done:  E(UB3LYP) =  -653.203427059     A.U. after    2 cycles

 Alpha  occ. eigenvalues --  -18.74886 -18.74795  -9.91687  -9.91161  -9.91129
 Alpha  occ. eigenvalues --   -9.90674  -9.90660  -9.90388  -9.90088  -9.89978
 Alpha  occ. eigenvalues --   -9.89434  -9.88825  -9.88047  -9.87308  -9.87249
 Alpha  occ. eigenvalues --   -0.66415  -0.65882  -0.57749  -0.52806  -0.50262
 Alpha  occ. eigenvalues --   -0.47685  -0.45434  -0.42297  -0.39577  -0.37045
 Alpha  occ. eigenvalues --   -0.31407  -0.30920  -0.25738  -0.22854  -0.21432
 Alpha  occ. eigenvalues --   -0.19090  -0.17959  -0.16654  -0.15906  -0.14783
 Alpha  occ. eigenvalues --   -0.13854  -0.13695  -0.12316  -0.12048  -0.11125
 Alpha  occ. eigenvalues --   -0.10531  -0.09856  -0.08643  -0.07882  -0.05679
 Alpha  occ. eigenvalues --   -0.05500  -0.04332  -0.04311   0.02696   0.03888
 Alpha  occ. eigenvalues --    0.05414   0.06864   0.07562   0.15160
 Alpha virt. eigenvalues --    0.16836   0.17769   0.18041   0.19556   0.20010
 Alpha virt. eigenvalues --    0.20566   0.21982   0.22110   0.22426   0.22963
 Alpha virt. eigenvalues --    0.23437   0.24501   0.25215   0.25637   0.25972

  Beta  occ. eigenvalues --  -18.74886 -18.74795  -9.91687  -9.91161  -9.91129
  Beta  occ. eigenvalues --   -9.90674  -9.90660  -9.90388  -9.90088  -9.89978
  Beta  occ. eigenvalues --   -9.89434  -9.88825  -9.88047  -9.87308  -9.87249
  Beta  occ. eigenvalues --   -0.66415  -0.65882  -0.57749  -0.52806  -0.50262
  Beta  occ. eigenvalues --   -0.47685  -0.45434  -0.42297  -0.39577  -0.37045
  Beta  occ. eigenvalues --   -0.31407  -0.30920  -0.25738  -0.22854  -0.21432
  Beta  occ. eigenvalues --   -0.19090  -0.17959  -0.16654  -0.15906  -0.14783
  Beta  occ. eigenvalues --   -0.13854  -0.13695  -0.12316  -0.12048  -0.11125
  Beta  occ. eigenvalues --   -0.10531  -0.09856  -0.08643  -0.07882  -0.05679
  Beta  occ. eigenvalues --   -0.05500  -0.04332  -0.04311   0.02696   0.03888
  Beta  occ. eigenvalues --    0.05414   0.06864   0.07562   0.15160
  Beta virt. eigenvalues --    0.16836   0.17769   0.18041   0.19556   0.20010
  Beta virt. eigenvalues --    0.20566   0.21982   0.22110   0.22426   0.22963
  Beta virt. eigenvalues --    0.23437   0.24501   0.25215   0.25637   0.25972

 Mulliken charges and spin densities:
               1          2
     1  C   -0.196754   0.000000
     2  C   -0.330677   0.000000
     3  C   -0.556861   0.000000
     4  C    0.721442   0.000000
     5  C    0.965551   0.000000
     6  C    0.739075  -0.000000
     7  C   -1.612469  -0.000000
     8  C    0.801082   0.000000
     9  C    1.165589   0.000000
    10  C   -2.162831  -0.000000
    11  O   -0.542573  -0.000000
    12  O   -0.509844   0.000000
    13  C   -0.586858  -0.000000
    14  C   -0.509136  -0.000000
    15  C   -0.548880   0.000000
    16  H    0.125527  -0.000000
    17  H    0.075074  -0.000000
    18  H    0.007884  -0.000000
    19  H    0.190311   0.000000
    20  H    0.092891  -0.000000
    21  H    0.029995   0.000000
    22  H    0.092527  -0.000000
    23  H    0.021019   0.000000
    24  H    0.191202  -0.000000
    25  H    0.141189  -0.000000
    26  H    0.142769   0.000000
    27  H    0.053756  -0.000000
 Sum of Mulliken charges =  -2.00000   0.00000

 Dipole moment (field-independent basis, Debye):
    X=             -3.2371    Y=            -11.6930    Z=              0.1030  Tot=             12.1332
 Quadrupole moment (field-independent basis, Debye-Ang):
   XX=           -138.5876   YY=           -172.3376   ZZ=           -102.7692
   XY=             -6.9334   XZ=              1.0458   YZ=             -1.0256

  Exact polarizability: 466.867  -8.257 257.078   6.652  26.035 170.895
 Approx polarizability: 589.725 -19.869 396.305 -12.473  16.904 215.704

                      1                      2                      3
                      A                      A                      A
 Frequencies --     56.4679                64.1101                75.8900
 Red. masses --      3.0587                 1.3170                 3.7127
 Frc consts  --      0.0057                 0.0032                 0.0126
 IR Inten    --     14.2794                 9.0969                 3.2628

                      4                      5                      6
                      A                      A                      A
 Frequencies --    118.0553               132.2993               166.1351
 Red. masses --      1.0862                 2.4988                 1.0897
 Frc consts  --      0.0089                 0.0258                 0.0177
 IR Inten    --      3.7095                 5.5909                 7.2710

                      7                      8                      9
                      A                      A                      A
 Frequencies --    179.1485               234.7578               246.4617
 Red. masses --      3.8591                 3.3392                 3.6688
 Frc consts  --      0.0730                 0.1084                 0.1313
 IR Inten    --      1.1249                 9.2770                 7.5158

                     10                     11                     12
                      A                      A                      A
 Frequencies --    293.9515               314.2528               346.8701
 Red. masses --      3.8208                 2.6254                 4.4577
 Frc consts  --      0.1945                 0.1528                 0.3160
 IR Inten    --      0.6987                 0.9600                 0.0440

                     13                     14                     15
                      A                      A                      A
 Frequencies --    351.4693               357.1277               382.2185
 Red. masses --      3.9382                 6.6557                 8.1532
 Frc consts  --      0.2866                 0.5001                 0.7018
 IR Inten    --     15.7860                54.6735                 1.3065

                     16                     17                     18
                      A                      A                      A
 Frequencies --    421.3299               450.8061               505.3476
 Red. masses --      5.7949                 4.2727                 5.3382
 Frc consts  --      0.6061                 0.5116                 0.8032
 IR Inten    --      4.5384                 3.8064                10.2158

                     19                     20                     21
                      A                      A                      A
 Frequencies --    508.9665               518.2210               560.7939
 Red. masses --      5.9453                 3.9511                 4.7758
 Frc consts  --      0.9074                 0.6252                 0.8849
 IR Inten    --      1.1925                 5.6574                12.5987

                     22                     23                     24
                      A                      A                      A
 Frequencies --    609.1162               686.0109               689.1660
 Red. masses --      5.3900                 4.4943                 5.4915
 Frc consts  --      1.1783                 1.2462                 1.5367
 IR Inten    --     25.1132                 9.5960                34.2845

                     25                     26                     27
                      A                      A                      A
 Frequencies --    694.8997               746.3791               791.0416
 Red. masses --      1.7748                 2.6421                 2.6788
 Frc consts  --      0.5049                 0.8672                 0.9876
 IR Inten    --     47.3101                26.5556                12.4160

                     28                     29                     30
                      A                      A                      A
 Frequencies --    801.5923               846.3522               848.4258
 Red. masses --      4.1053                 1.8270                 4.1428
 Frc consts  --      1.5542                 0.7711                 1.7570
 IR Inten    --      3.3509               243.0580                16.6404

                     31                     32                     33
                      A                      A                      A
 Frequencies --    934.4860               956.6631               981.8810
 Red. masses --      2.4105                 1.2232                 3.0026
 Frc consts  --      1.2402                 0.6596                 1.7055
 IR Inten    --     25.2174                63.9673                10.3162

                     34                     35                     36
                      A                      A                      A
 Frequencies --    997.3767              1022.0611              1027.3956
 Red. masses --      1.6142                 1.6602                 1.8526
 Frc consts  --      0.9461                 1.0218                 1.1521
 IR Inten    --     32.8896                 5.0112                 5.1342

                     37                     38                     39
                      A                      A                      A
 Frequencies --   1038.5270              1046.0171              1076.9294
 Red. masses --      1.4763                 1.5202                 1.9937
 Frc consts  --      0.9381                 0.9800                 1.3623
 IR Inten    --    191.5991                48.6295               143.4962

                     40                     41                     42
                      A                      A                      A
 Frequencies --   1092.0404              1129.4538              1156.3842
 Red. masses --      2.5797                 1.6651                 2.4235
 Frc consts  --      1.8126                 1.2515                 1.9094
 IR Inten    --     85.1174               141.4822                17.3831

                     43                     44                     45
                      A                      A                      A
 Frequencies --   1219.0167              1219.8120              1251.7140
 Red. masses --      4.9862                 2.9912                 2.3820
 Frc consts  --      4.3655                 2.6223                 2.1989
 IR Inten    --     44.4609               167.4282                 1.7907

                     46                     47                     48
                      A                      A                      A
 Frequencies --   1305.5334              1328.0641              1348.8968
 Red. masses --      5.0092                 1.6004                 1.7087
 Frc consts  --      5.0303                 1.6631                 1.8318
 IR Inten    --     35.8069               229.3356                93.4376

                     49                     50                     51
                      A                      A                      A
 Frequencies --   1380.6562              1393.7204              1399.5799
 Red. masses --      3.1253                 2.4266                 1.7920
 Frc consts  --      3.5100                 2.7771                 2.0681
 IR Inten    --     58.2475               194.2210               157.1498

                     52                     53                     54
                      A                      A                      A
 Frequencies --   1403.4992              1425.3427              1455.1869
 Red. masses --      2.1709                 2.3193                 1.0561
 Frc consts  --      2.5195                 2.7762                 1.3176
 IR Inten    --    381.7339                28.9789               192.7896

                     55                     56                     57
                      A                      A                      A
 Frequencies --   1460.4829              1466.8121              1473.3259
 Red. masses --      1.4045                 1.1866                 1.1595
 Frc consts  --      1.7651                 1.5042                 1.4829
 IR Inten    --     38.3987                73.7219                 5.8445

                     58                     59                     60
                      A                      A                      A
 Frequencies --   1479.6590              1494.7089              1498.1010
 Red. masses --      1.2418                 1.3501                 2.3380
 Frc consts  --      1.6018                 1.7771                 3.0915
 IR Inten    --     52.4026                16.9816                41.4807

                     61                     62                     63
                      A                      A                      A
 Frequencies --   1509.1574              1572.3691              1574.9528
 Red. masses --      2.2351                 4.9515                 6.4961
 Frc consts  --      2.9993                 7.2127                 9.4938
 IR Inten    --    132.9027                15.1346                95.1852

                     64                     65                     66
                      A                      A                      A
 Frequencies --   2860.3481              2890.1428              2946.4597
 Red. masses --      1.0867                 1.0645                 1.0516
 Frc consts  --      5.2383                 5.2390                 5.3790
 IR Inten    --   2655.3435               471.4131                13.0880

                     67                     68                     69
                      A                      A                      A
 Frequencies --   2949.9807              2964.1123              3067.1784
 Red. masses --      1.0569                 1.0728                 1.0768
 Frc consts  --      5.4189                 5.5535                 5.9686
 IR Inten    --    207.0352               128.7110                13.2032

                     70                     71                     72
                      A                      A                      A
 Frequencies --   3068.0427              3069.6712              3074.7439
 Red. masses --      1.0911                 1.0916                 1.0823
 Frc consts  --      6.0511                 6.0601                 6.0288
 IR Inten    --     14.7416                12.2445                49.9629

                     73                     74                     75
                      A                      A                      A
 Frequencies --   3086.6231              3100.9126              3155.6888
 Red. masses --      1.0975                 1.0911                 1.0906
 Frc consts  --      6.1606                 6.1816                 6.3987
 IR Inten    --    123.3556               133.3644                40.2318

 - Thermochemistry -
 -------------------
 Temperature   298.150 Kelvin.  Pressure   1.00000 Atm.
 Atom     1 has atomic number  6 and mass  12.00000

 Molecular mass:   200.08373 amu.
 Principal axes and moments of inertia in atomic units:
                           1         2         3
     Eigenvalues --  2045.692743066.325945078.72405
           X            0.97193  -0.23365   0.02765
           Y            0.23383   0.97227  -0.00341
           Z           -0.02608   0.00978   0.99961
 This molecule is an asymmetric top.
 Rotational symmetry number  1.
 Warning -- assumption of classical behavior for rotation
           may cause significant error
 Rotational temperatures (Kelvin)      0.04234     0.02825     0.01705
 Rotational constants (GHZ):           0.88222     0.58857     0.35535
 Zero-point vibrational energy     546402.6 (Joules/Mol)
                                  130.59335 (Kcal/Mol)
 Warning -- explicit consideration of  22 degrees of freedom as
           vibrations may cause significant error
 Vibrational temperatures:     81.24    92.24   109.19   169.86   190.35
          (Kelvin)            239.03   257.75   337.76   354.60   422.93
                              452.14   499.07   505.69   513.83   549.93
                              606.20   648.61   727.08   732.29   745.60
                              806.86   876.38   987.02   991.56   999.81
                             1073.87  1138.13  1153.31  1217.71  1220.70
                             1344.52  1376.42  1412.71  1435.00  1470.52
                             1478.19  1494.21  1504.99  1549.46  1571.20
                             1625.03  1663.78  1753.89  1755.04  1800.94
                             1878.37  1910.79  1940.76  1986.46  2005.25
                             2013.68  2019.32  2050.75  2093.69  2101.31
                             2110.42  2119.79  2128.90  2150.55  2155.43
                             2171.34  2262.29  2266.01  4115.40  4158.27
                             4239.30  4244.36  4264.70  4412.99  4414.23
                             4416.57  4423.87  4440.96  4461.52  4540.33

 Zero-point correction=                           0.208114 (Hartree/Particle)
 Thermal correction to Energy=                    0.222005
 Thermal correction to Enthalpy=                  0.222949
 Thermal correction to Gibbs Free Energy=         0.167756
 Sum of electronic and zero-point Energies=           -652.995313
 Sum of electronic and thermal Energies=              -652.981422
 Sum of electronic and thermal Enthalpies=            -652.980478
 Sum of electronic and thermal Free Energies=         -653.035671

                     E (Thermal)             CV                S
                      KCal/Mol        Cal/Mol-Kelvin    Cal/Mol-Kelvin
 Total                  139.310             53.296            116.163
 Electronic               0.000              0.000              0.000
 Translational            0.889              2.981             41.785
 Rotational               0.889              2.981             31.833
 Vibrational            137.533             47.334             42.545
 Vibration     1          0.596              1.975              4.577
 Vibration     2          0.597              1.971              4.326
 Vibration     3          0.599              1.965              3.994
 Vibration     4          0.608              1.934              3.132
 Vibration     5          0.612              1.921              2.912
 Vibration     6          0.624              1.884              2.479
 Vibration     7          0.629              1.868              2.337
 Vibration     8          0.655              1.788              1.842
 Vibration     9          0.661              1.769              1.756
 Vibration    10          0.689              1.685              1.451
 Vibration    11          0.702              1.646              1.340
 Vibration    12          0.725              1.582              1.180
 Vibration    13          0.728              1.572              1.160
 Vibration    14          0.732              1.561              1.135
 Vibration    15          0.752              1.508              1.030
 Vibration    16          0.784              1.424              0.887
 Vibration    17          0.810              1.359              0.793
 Vibration    18          0.861              1.238              0.645
 Vibration    19          0.864              1.230              0.636
 Vibration    20          0.873              1.210              0.614
 Vibration    21          0.916              1.116              0.522
 Vibration    22          0.968              1.013              0.434

                           ! Non-Optimized Parameters !
 Normal termination of Gaussian 16 at Sun Jan  7 23:20:38 2024.
