 Q-Chem 5.4, Q-Chem, Inc., Pleasanton, CA (2021)
 Q-Chem 5.4.0 for Intel X86 EM64T Linux

User input:
--------------------------------------------------------------
$molecule
-2 1
C                  4.9505360000     -2.7378780000     -0.0360390000
C                  5.6905520000     -1.7933420000     -0.7407320000
C                  5.0439190000     -0.6880710000     -1.3808040000
C                  3.5566960000     -2.6432760000      0.0540940000
C                  2.8781610000     -1.5356730000     -0.5934930000
C                  3.6791770000     -0.5927220000     -1.3010100000
C                  2.8385680000     -3.6646070000      0.8145520000
C                  1.3899850000     -3.4713980000      0.8529810000
C                  0.7370330000     -2.3538690000      0.1962700000
C                  1.4491990000     -1.3458990000     -0.5499070000
C                  0.6140020000     -4.3957460000      1.5623960000
C                 -0.6806750000     -2.2587130000      0.3073510000
C                 -1.4339640000     -3.1638070000      1.0083630000
O                  3.4195720000     -4.6217450000      1.3983170000
O                  0.8610870000     -0.3603570000     -1.1232980000
H                  5.4299440000     -3.5769890000      0.4548900000
H                 -2.5116450000     -3.0774910000      1.0753820000
H                  3.1461320000      0.2197810000     -1.7831510000
H                  1.1282570000     -5.2219740000      2.0397170000
H                 -1.1439910000     -1.4192870000     -0.2000470000
C                 -0.7689430000     -4.2625080000      1.6407480000
S                  7.4338280000     -1.8622190000     -0.6986130000
S                 -1.6798450000     -5.3468270000      2.6606110000
O                 -0.9410400000     -6.6011760000      2.9012000000
O                 -3.0923830000     -5.4466260000      2.2513310000
N                 -1.7785920000     -4.4844560000      4.1713870000
H                 -0.8367190000     -4.4266330000      4.5538670000
H                 -2.3482410000     -5.0541510000      4.7968900000
O                  7.9067840000     -3.2176120000     -0.3575490000
O                  8.0491190000     -1.1885080000     -1.8563450000
N                  7.8429180000     -0.8029920000      0.6227520000
H                  5.6344070000      0.0356520000     -1.9293360000
H                  8.8613280000     -0.7632680000      0.6616170000
H                  7.5025620000     -1.2350440000      1.4796080000
$end
$rem
MAX_SCF_CYCLES=200
BASIS  =  6-311++G(d,p)
GUI  =  2
JOB_TYPE  =  SP
METHOD  =  B3LYP
SOLVENT_METHOD = COSMO
$end
$solvent
dielectric 37.219
opticaldielectric 1.43
$end

--------------------------------------------------------------

             Standard Nuclear Orientation (Angstroms)
    I     Atom           X                Y                Z
 ----------------------------------------------------------------
    1      C       2.4549808864    -0.6509750598    -0.2154913484
    2      C       3.6569189351     0.0479044354    -0.1582502938
    3      C       3.6674645500     1.4743673278    -0.0376567958
    4      C       1.2265993709     0.0191584589    -0.1723246818
    5      C       1.2122045922     1.4659971300    -0.0582469693
    6      C       2.4683995360     2.1368163619    -0.0004598836
    7      C      -0.0000962995    -0.7739158653    -0.2303940730
    8      C      -1.2266928876     0.0193370337    -0.1720000512
    9      C      -1.2121714012     1.4661219261    -0.0575914876
   10      C       0.0000975450     2.2450005108     0.0033691554
   11      C      -2.4551156301    -0.6506813349    -0.2154906846
   12      C      -2.4682651464     2.1369991237     0.0010763504
   13      C      -3.6674078549     1.4746276638    -0.0360464764
   14      O      -0.0002481243    -2.0341153815    -0.3101281973
   15      O       0.0001860868     3.5236642452     0.1080832596
   16      H       2.4351846136    -1.7311428407    -0.3037877611
   17      H      -4.6118434391     2.0036279726     0.0031764314
   18      H       2.4289794747     3.2182253828     0.0754257491
   19      H      -2.4353556463    -1.7307761579    -0.3046588757
   20      H      -2.4287888726     3.2183664100     0.0774757719
   21      C      -3.6569926622     0.0482987569    -0.1576399768
   22      S       5.1595377060    -0.8340777175    -0.0593889027
   23      S      -5.1596635298    -0.8337421837    -0.0596872896
   24      O      -5.0090883235    -2.2054777982    -0.5819667358
   25      O      -6.3076108108    -0.0387032524    -0.5317717079
   26      N      -5.4475255294    -0.9415520020     1.6553612071
   27      H      -4.7206999084    -1.5342290278     2.0518680261
   28      H      -6.3466411301    -1.4086629162     1.7724291770
   29      O       5.0084928045    -2.2066445072    -0.5793389581
   30      O       6.3073657642    -0.0399136326    -0.5333161809
   31      N       5.4483193103    -0.9388267960     1.6555323037
   32      H       4.6119381719     2.0033538194     0.0008306469
   33      H       6.3484985783    -1.4037274508     1.7729719866
   34      H       4.7228644951    -1.5320813866     2.0536248107
 ----------------------------------------------------------------

   11   -1897.0280899811      6.08e-06  Convergence criterion met
 Total energy in the final basis set =    -1897.0280899811
    6   -1897.2845854313      3.45e-06  Convergence criterion met
 Total energy in the final basis set =    -1897.2845854313

                    Orbital Energies (a.u.)
 --------------------------------------------------------------

 Alpha MOs
 -- Occupied --
-89.0694 -89.0694 -19.1237 -19.1237 -19.1237 -19.1237 -19.0568 -19.0346
-14.3343 -14.3343 -10.2139 -10.2017 -10.2016 -10.1921 -10.1860 -10.1860
-10.1772 -10.1772 -10.1656 -10.1656 -10.1649 -10.1649 -10.1610 -10.1610
 -8.1312  -8.1312  -6.0940  -6.0940  -6.0938  -6.0938  -6.0920  -6.0920
 -1.1218  -1.1218  -1.0122  -1.0122  -0.9832  -0.9560  -0.8978  -0.8978
 -0.8604  -0.8561  -0.7923  -0.7646  -0.7565  -0.7485  -0.6978  -0.6689
 -0.6562  -0.6126  -0.6041  -0.5829  -0.5567  -0.5434  -0.5434  -0.5137
 -0.5129  -0.5086  -0.5055  -0.4919  -0.4742  -0.4720  -0.4676  -0.4536
 -0.4503  -0.4289  -0.4255  -0.4177  -0.4097  -0.4065  -0.4014  -0.3813
 -0.3703  -0.3695  -0.3657  -0.3635  -0.3532  -0.3487  -0.3444  -0.3418
 -0.3362  -0.3297  -0.3248  -0.3235  -0.3154  -0.3154  -0.2874  -0.2862
 -0.2625  -0.2547  -0.2502  -0.2458  -0.2320  -0.2157  -0.1316

          Ground-State Mulliken Net Atomic Charges

     Atom                 Charge (a.u.)
  ----------------------------------------
      1 C                    -0.102421
      2 C                    -0.199021
      3 C                    -0.446321
      4 C                     0.069729
      5 C                     0.609659
      6 C                    -0.274788
      7 C                    -0.816380
      8 C                     0.068914
      9 C                     0.607232
     10 C                    -0.091861
     11 C                    -0.101836
     12 C                    -0.275119
     13 C                    -0.448051
     14 O                    -0.558621
     15 O                    -0.669830
     16 H                     0.232054
     17 H                     0.257217
     18 H                     0.167029
     19 H                     0.232022
     20 H                     0.166979
     21 C                    -0.197453
     22 S                     0.273416
     23 S                     0.275226
     24 O                    -0.302484
     25 O                    -0.359104
     26 N                    -0.510460
     27 H                     0.311974
     28 H                     0.342043
     29 O                    -0.302238
     30 O                    -0.358987
     31 N                    -0.509773
     32 H                     0.257314
     33 H                     0.341998
     34 H                     0.311912
  ----------------------------------------
  Sum of atomic charges =    -2.000030

                    Cartesian Multipole Moments
 -----------------------------------------------------------------
    Charge (ESU x 10^10)
                -9.6066
    Dipole Moment (Debye)
         X       0.0043      Y      -5.0285      Z       7.7386
       Tot       9.2288
    Quadrupole Moments (Debye-Ang)
        XX    -287.6007     XY       0.0374     YY    -221.1119
        XZ       0.0298     YZ     -19.3218     ZZ    -160.5685

 Total job time:  134.31s(wall), 1043.16s(cpu)
        *  Thank you very much for using Q-Chem.  Have a nice day.  *
