 Gaussian 16, Revision A.03,
 Gaussian 16:  ES64L-G16RevA.03 25-Dec-2016

 --------------------------------------
 #P UB3LYP/6-311++G(d,p) nosym opt freq
 --------------------------------------

 -------
 Radical
 -------
 Symbolic Z-matrix:
 Charge = -1 Multiplicity = 2

 SCF Done:  E(UB3LYP) =  -918.097966852     A.U. after   22 cycles
 Optimization completed.
    -- Stationary point found.
 Normal termination of Gaussian 16 at Wed Dec 27 19:56:07 2023.

 ----------------------------------------------------------------------
 #P Geom=AllCheck Guess=TCheck SCRF=Check GenChk UB3LYP/6-311++G(d,p) F
 req
 ----------------------------------------------------------------------

 Structure from the checkpoint file:  "139-rad.chk"
 -------
 Radical
 -------
 Charge = -1 Multiplicity = 2

                          Input orientation:
 ---------------------------------------------------------------------
 Center     Atomic      Atomic             Coordinates (Angstroms)
 Number     Number       Type             X           Y           Z
 ---------------------------------------------------------------------
      1          6           0       -3.239510    2.997590   -0.125536
      2          8           0       -1.920903    2.509881   -0.086460
      3          6           0       -1.720060    1.155008   -0.059764
      4          6           0       -2.781925    0.273525   -0.069955
      5          6           0       -2.563069   -1.116985   -0.041926
      6          6           0       -1.281943   -1.628736   -0.002976
      7          8           0       -1.056976   -2.979820    0.024259
      8          6           0       -2.161956   -3.849870    0.010940
      9          6           0       -0.141180   -0.755623    0.009933
     10          6           0        1.218803   -1.312543    0.053096
     11          8           0        1.477464   -2.537673    0.082119
     12          6           0        2.327810   -0.346751    0.062214
     13          6           0        3.652973   -0.832700    0.102954
     14          6           0        4.729507    0.032247    0.112952
     15          6           0        4.510225    1.425774    0.082158
     16          6           0        3.220273    1.917263    0.042135
     17          6           0        2.108548    1.046749    0.031407
     18          6           0        0.756720    1.624224   -0.011505
     19          8           0        0.626747    2.869640   -0.038214
     20          6           0       -0.366406    0.675489   -0.020328
     21          1           0       -3.150309    4.084800   -0.141526
     22          1           0       -3.819553    2.698060    0.758812
     23          1           0       -3.777570    2.668316   -1.025683
     24          1           0       -3.801425    0.631760   -0.099578
     25          1           0       -3.423120   -1.771832   -0.051610
     26          1           0       -2.812011   -3.709052    0.886043
     27          1           0       -1.743270   -4.856985    0.036570
     28          1           0       -2.768878   -3.736518   -0.898450
     29          1           0        3.786422   -1.907772    0.125831
     30          1           0        5.742825   -0.358020    0.144377
     31          1           0        5.354596    2.109216    0.089951
     32          1           0        3.017148    2.981340    0.017760
 ---------------------------------------------------------------------

 SCF Done:  E(UB3LYP) =  -918.097966852     A.U. after    2 cycles

 Alpha  occ. eigenvalues --  -19.03211 -19.03211 -18.93415 -18.93415 -10.12166
 Alpha  occ. eigenvalues --  -10.12165 -10.11274 -10.11273 -10.09172 -10.09171
 Alpha  occ. eigenvalues --  -10.05485 -10.05448 -10.05368 -10.05320 -10.05318
 Alpha  occ. eigenvalues --  -10.05269 -10.04498 -10.04497 -10.04272 -10.04224
 Alpha  occ. eigenvalues --   -0.95237  -0.95162  -0.86497  -0.86237  -0.73462
 Alpha  occ. eigenvalues --   -0.72674  -0.66093  -0.64898  -0.62675  -0.62348
 Alpha  occ. eigenvalues --   -0.60280  -0.57287  -0.54204  -0.51074  -0.49787
 Alpha  occ. eigenvalues --   -0.46367  -0.44233  -0.42458  -0.41446  -0.39790
 Alpha  occ. eigenvalues --   -0.38133  -0.36470  -0.36219  -0.35864  -0.34324
 Alpha  occ. eigenvalues --   -0.33573  -0.32944  -0.31097  -0.30082  -0.29879
 Alpha  occ. eigenvalues --   -0.29253  -0.28426  -0.28398  -0.26291  -0.25789
 Alpha  occ. eigenvalues --   -0.25590  -0.25040  -0.22984  -0.22396  -0.22194
 Alpha  occ. eigenvalues --   -0.21791  -0.21504  -0.21042  -0.17985  -0.13810
 Alpha  occ. eigenvalues --   -0.12845  -0.12570  -0.09871  -0.09485  -0.09116
 Alpha  occ. eigenvalues --   -0.00710
 Alpha virt. eigenvalues --    0.06858   0.07646   0.08043   0.08572   0.09765
 Alpha virt. eigenvalues --    0.09804   0.10523   0.10602   0.11294   0.11641
 Alpha virt. eigenvalues --    0.12175   0.12996   0.13042   0.13628   0.13880

  Beta  occ. eigenvalues --  -19.03215 -19.03214 -18.92807 -18.92806 -10.12164
  Beta  occ. eigenvalues --  -10.12163 -10.11297 -10.11296 -10.09072 -10.09071
  Beta  occ. eigenvalues --  -10.05362 -10.05331 -10.05324 -10.05283 -10.05219
  Beta  occ. eigenvalues --  -10.05170 -10.04510 -10.04509 -10.04200 -10.04152
  Beta  occ. eigenvalues --   -0.95236  -0.95162  -0.85480  -0.85187  -0.73210
  Beta  occ. eigenvalues --   -0.72552  -0.65668  -0.64807  -0.62540  -0.62208
  Beta  occ. eigenvalues --   -0.60178  -0.57145  -0.53495  -0.50924  -0.49540
  Beta  occ. eigenvalues --   -0.46328  -0.44109  -0.42268  -0.41334  -0.39709
  Beta  occ. eigenvalues --   -0.38072  -0.36435  -0.36205  -0.35635  -0.34188
  Beta  occ. eigenvalues --   -0.33402  -0.32897  -0.30947  -0.30008  -0.29855
  Beta  occ. eigenvalues --   -0.28363  -0.28297  -0.28202  -0.25731  -0.25388
  Beta  occ. eigenvalues --   -0.25341  -0.24156  -0.22890  -0.22162  -0.21417
  Beta  occ. eigenvalues --   -0.20908  -0.20850  -0.20760  -0.17636  -0.12312
  Beta  occ. eigenvalues --   -0.11992  -0.11277  -0.09316  -0.08768  -0.08559
  Beta virt. eigenvalues --    0.05153   0.06855   0.07644   0.08564   0.08829
  Beta virt. eigenvalues --    0.09800   0.10516   0.10613   0.10855   0.11298
  Beta virt. eigenvalues --    0.11724   0.12179   0.13045   0.13222   0.13633

 Mulliken charges and spin densities:
               1          2
     1  C   -0.300775  -0.001888
     2  O   -0.075866  -0.001253
     3  C   -0.157543  -0.004068
     4  C   -0.492834   0.087408
     5  C   -0.492518   0.087416
     6  C   -0.157184  -0.004070
     7  O   -0.075880  -0.001252
     8  C   -0.300742  -0.001888
     9  C    0.487982   0.068919
    10  C   -0.279831   0.039266
    11  O   -0.356112   0.232040
    12  C    0.146393   0.033510
    13  C    0.140625   0.021461
    14  C   -0.431368   0.031641
    15  C   -0.431318   0.031652
    16  C    0.140671   0.021451
    17  C    0.146381   0.033526
    18  C   -0.279809   0.039272
    19  O   -0.356107   0.232025
    20  C    0.487876   0.068917
    21  H    0.172789  -0.000310
    22  H    0.116059   0.001135
    23  H    0.116283   0.001145
    24  H    0.141637  -0.005431
    25  H    0.141640  -0.005431
    26  H    0.116221   0.001139
    27  H    0.172801  -0.000310
    28  H    0.116123   0.001141
    29  H    0.151234  -0.001089
    30  H    0.120968  -0.002493
    31  H    0.120965  -0.002494
    32  H    0.151239  -0.001088
 Sum of Mulliken charges =  -1.00000   1.00000

 Dipole moment (field-independent basis, Debye):
    X=             -6.3650    Y=             -1.0039    Z=             -0.1349  Tot=              6.4451
 Quadrupole moment (field-independent basis, Debye-Ang):
   XX=           -130.0732   YY=           -147.5422   ZZ=           -123.6885
   XY=              2.8148   XZ=             -0.2051   YZ=              0.5251

  Exact polarizability: 365.897  15.064 273.238   5.642  -2.357 118.188
 Approx polarizability: 533.399   9.308 476.704   8.098  -4.950 187.487

                      1                      2                      3
                      A                      A                      A
 Frequencies --     15.8974                17.4218                66.3832
 Red. masses --      6.4654                 6.6117                 3.3840
 Frc consts  --      0.0010                 0.0012                 0.0088
 IR Inten    --      1.3923                 9.2508                 0.6024

                      4                      5                      6
                      A                      A                      A
 Frequencies --     80.1437                91.8297               120.6995
 Red. masses --      3.4610                 4.2649                 4.5665
 Frc consts  --      0.0131                 0.0212                 0.0392
 IR Inten    --      0.0004                 0.7060                 0.0000

                      7                      8                      9
                      A                      A                      A
 Frequencies --    166.8976               170.7233               197.5102
 Red. masses --      4.6967                 6.7036                 3.3833
 Frc consts  --      0.0771                 0.1151                 0.0778
 IR Inten    --      6.1166                 2.0661                 1.3904

                     10                     11                     12
                      A                      A                      A
 Frequencies --    256.6848               264.3803               280.4682
 Red. masses --      1.0889                 5.7833                 1.1223
 Frc consts  --      0.0423                 0.2382                 0.0520
 IR Inten    --      0.0000                 0.6067                 0.4679

                     13                     14                     15
                      A                      A                      A
 Frequencies --    288.5102               327.8128               338.5162
 Red. masses --      5.6870                 4.9656                 4.5100
 Frc consts  --      0.2789                 0.3144                 0.3045
 IR Inten    --      0.1126                 0.1373                 3.8044

                     16                     17                     18
                      A                      A                      A
 Frequencies --    363.5832               389.7389               391.8326
 Red. masses --      6.9138                 7.9007                 4.8083
 Frc consts  --      0.5385                 0.7071                 0.4350
 IR Inten    --      0.4278                 2.5253                 0.0072

                     19                     20                     21
                      A                      A                      A
 Frequencies --    398.9176               411.9868               435.4226
 Red. masses --     13.0293                 6.4408                 3.4083
 Frc consts  --      1.2216                 0.6441                 0.3807
 IR Inten    --      4.8644                 0.0014                 0.6637

                     22                     23                     24
                      A                      A                      A
 Frequencies --    481.3279               502.3370               511.9736
 Red. masses --     11.4971                 4.3347                 6.5873
 Frc consts  --      1.5694                 0.6445                 1.0173
 IR Inten    --      0.1531                 0.0001                 1.9728

                     25                     26                     27
                      A                      A                      A
 Frequencies --    573.4598               603.3372               628.0615
 Red. masses --      5.4751                 2.9214                 5.4906
 Frc consts  --      1.0608                 0.6266                 1.2761
 IR Inten    --      0.1029                25.0628                 8.7905

                     28                     29                     30
                      A                      A                      A
 Frequencies --    645.1815               667.5301               717.4649
 Red. masses --      4.7345                 6.3392                 1.8932
 Frc consts  --      1.1611                 1.6643                 0.5742
 IR Inten    --      0.0000                 4.5130                14.7946

                     31                     32                     33
                      A                      A                      A
 Frequencies --    723.9397               742.9887               743.2757
 Red. masses --      5.7731                 4.8991                 6.5178
 Frc consts  --      1.7826                 1.5934                 2.1215
 IR Inten    --      2.6069                 0.1834                32.7322

                     34                     35                     36
                      A                      A                      A
 Frequencies --    766.1600               791.2693               809.7606
 Red. masses --      1.6193                 2.5906                 1.8866
 Frc consts  --      0.5600                 0.9557                 0.7289
 IR Inten    --     92.1679                 0.2178                 0.0008

                     37                     38                     39
                      A                      A                      A
 Frequencies --    828.5246               853.3516               871.0408
 Red. masses --      2.6793                 6.9785                 1.5558
 Frc consts  --      1.0836                 2.9941                 0.6955
 IR Inten    --      0.0003                21.6709                 0.0001

                     40                     41                     42
                      A                      A                      A
 Frequencies --    874.3636               934.8912               983.0987
 Red. masses --      8.3645                 5.9204                 1.2529
 Frc consts  --      3.7677                 3.0487                 0.7134
 IR Inten    --     14.5198                 2.3012                 0.0002

                     43                     44                     45
                      A                      A                      A
 Frequencies --    983.7930              1009.8006              1040.2896
 Red. masses --      1.3608                 6.2955                 2.0309
 Frc consts  --      0.7760                 3.7823                 1.2949
 IR Inten    --      2.4380                45.2800                 9.7513

                     46                     47                     48
                      A                      A                      A
 Frequencies --   1102.5720              1110.1102              1118.0909
 Red. masses --      7.0136                 2.1623                 4.6883
 Frc consts  --      5.0235                 1.5700                 3.4532
 IR Inten    --    138.3365                32.0490               195.4289

                     49                     50                     51
                      A                      A                      A
 Frequencies --   1139.2782              1161.0480              1161.6208
 Red. masses --      1.5654                 1.2823                 1.2830
 Frc consts  --      1.1971                 1.0184                 1.0200
 IR Inten    --     17.2526                 0.1389                 1.4755

                     52                     53                     54
                      A                      A                      A
 Frequencies --   1178.6445              1194.0362              1203.0561
 Red. masses --      1.5080                 2.4860                 1.7656
 Frc consts  --      1.2343                 2.0883                 1.5056
 IR Inten    --      4.6205                17.5514                36.4106

                     55                     56                     57
                      A                      A                      A
 Frequencies --   1204.7073              1218.8496              1243.1803
 Red. masses --      1.4045                 1.9307                 1.9149
 Frc consts  --      1.2010                 1.6899                 1.7437
 IR Inten    --      1.0701                 0.0728                45.8229

                     58                     59                     60
                      A                      A                      A
 Frequencies --   1263.8150              1266.8967              1318.0501
 Red. masses --      4.9224                 3.1563                 9.4079
 Frc consts  --      4.6323                 2.9848                 9.6296
 IR Inten    --     56.7895               335.5996                 7.8627

                     61                     62                     63
                      A                      A                      A
 Frequencies --   1340.7479              1370.9011              1387.4018
 Red. masses --      2.9260                10.0150                 4.4995
 Frc consts  --      3.0990                11.0895                 5.1029
 IR Inten    --     18.9879                 1.5445                 9.5642

                     64                     65                     66
                      A                      A                      A
 Frequencies --   1407.2642              1464.5617              1468.2900
 Red. masses --      3.0363                 1.5350                 1.1982
 Frc consts  --      3.5428                 1.9398                 1.5220
 IR Inten    --    120.2749                79.7564                 6.2161

                     67                     68                     69
                      A                      A                      A
 Frequencies --   1477.2380              1483.5780              1484.6214
 Red. masses --      2.0196                 2.4253                 1.0485
 Frc consts  --      2.5967                 3.1452                 1.3616
 IR Inten    --      2.9314                44.3682                 1.2416

                     70                     71                     72
                      A                      A                      A
 Frequencies --   1484.8784              1503.4964              1503.8797
 Red. masses --      1.0484                 1.0658                 1.0662
 Frc consts  --      1.3619                 1.4195                 1.4208
 IR Inten    --      9.2381                92.2378                25.6449

                     73                     74                     75
                      A                      A                      A
 Frequencies --   1537.6971              1541.2276              1573.4264
 Red. masses --      8.0872                 5.2176                 5.8457
 Frc consts  --     11.2665                 7.3022                 8.5267
 IR Inten    --     42.2900               738.1295               219.2046

                     76                     77                     78
                      A                      A                      A
 Frequencies --   1599.8903              1625.4531              1628.6431
 Red. masses --      5.0852                 8.3203                 6.1826
 Frc consts  --      7.6690                12.9521                 9.6622
 IR Inten    --     43.2600                 1.3900                21.1831

                     79                     80                     81
                      A                      A                      A
 Frequencies --   2961.5010              2963.2332              3005.0960
 Red. masses --      1.0366                 1.0368                 1.1038
 Frc consts  --      5.3565                 5.3641                 5.8731
 IR Inten    --     87.5586               174.2847                 8.1857

                     82                     83                     84
                      A                      A                      A
 Frequencies --   3005.3588              3098.5991              3098.7848
 Red. masses --      1.1039                 1.0948                 1.0947
 Frc consts  --      5.8743                 6.1930                 6.1936
 IR Inten    --    137.0332                83.3596                 0.3814

                     85                     86                     87
                      A                      A                      A
 Frequencies --   3130.7540              3150.5653              3185.7499
 Red. masses --      1.0847                 1.0917                 1.0910
 Frc consts  --      6.2642                 6.3847                 6.5235
 IR Inten    --     19.3978                62.9778                 8.0512

                     88                     89                     90
                      A                      A                      A
 Frequencies --   3187.9814              3191.1475              3208.7233
 Red. masses --      1.0922                 1.0851                 1.0916
 Frc consts  --      6.5402                 6.5107                 6.6220
 IR Inten    --     32.4238                25.1146                16.6878

 - Thermochemistry -
 -------------------
 Temperature   298.150 Kelvin.  Pressure   1.00000 Atm.
 Atom     1 has atomic number  6 and mass  12.00000

 Molecular mass:   268.07356 amu.
 Principal axes and moments of inertia in atomic units:
                           1         2         3
     Eigenvalues --  3843.345895835.325799655.72328
           X            0.98756  -0.15541  -0.02376
           Y            0.15583   0.98764   0.01707
           Z            0.02082  -0.02056   0.99957
 This molecule is an asymmetric top.
 Rotational symmetry number  1.
 Warning -- assumption of classical behavior for rotation
           may cause significant error
 Rotational temperatures (Kelvin)      0.02254     0.01484     0.00897
 Rotational constants (GHZ):           0.46958     0.30928     0.18691
 Zero-point vibrational energy     629936.9 (Joules/Mol)
                                  150.55854 (Kcal/Mol)
 Warning -- explicit consideration of  26 degrees of freedom as
           vibrations may cause significant error
 Vibrational temperatures:     22.87    25.07    95.51   115.31   132.12
          (Kelvin)            173.66   240.13   245.63   284.17   369.31
                              380.38   403.53   415.10   471.65   487.05
                              523.12   560.75   563.76   573.95   592.76
                              626.48   692.52   722.75   736.62   825.08
                              868.07   903.64   928.27   960.43  1032.27
                             1041.59  1069.00  1069.41  1102.33  1138.46
                             1165.06  1192.06  1227.78  1253.23  1258.01
                             1345.10  1414.46  1415.46  1452.88  1496.74
                             1586.36  1597.20  1608.68  1639.17  1670.49
                             1671.31  1695.81  1717.95  1730.93  1733.31
                             1753.65  1788.66  1818.35  1822.78  1896.38
                             1929.04  1972.42  1996.16  2024.74  2107.18
                             2112.54  2125.42  2134.54  2136.04  2136.41
                             2163.20  2163.75  2212.40  2217.48  2263.81
                             2301.89  2338.66  2343.25  4260.94  4263.43
                             4323.66  4324.04  4458.19  4458.46  4504.46
                             4532.96  4583.58  4586.79  4591.35  4616.64

 Zero-point correction=                           0.239930 (Hartree/Particle)
 Thermal correction to Energy=                    0.256712
 Thermal correction to Enthalpy=                  0.257656
 Thermal correction to Gibbs Free Energy=         0.192959
 Sum of electronic and zero-point Energies=           -917.858037
 Sum of electronic and thermal Energies=              -917.841255
 Sum of electronic and thermal Enthalpies=            -917.840311
 Sum of electronic and thermal Free Energies=         -917.905008

                     E (Thermal)             CV                S
                      KCal/Mol        Cal/Mol-Kelvin    Cal/Mol-Kelvin
 Total                  161.089             64.900            136.165
 Electronic               0.000              0.000              1.377
 Translational            0.889              2.981             42.657
 Rotational               0.889              2.981             33.737
 Vibrational            159.312             58.938             58.394
 Vibration     1          0.593              1.986              7.090
 Vibration     2          0.593              1.986              6.908
 Vibration     3          0.598              1.970              4.258
 Vibration     4          0.600              1.963              3.887
 Vibration     5          0.602              1.955              3.621
 Vibration     6          0.609              1.932              3.089
 Vibration     7          0.624              1.883              2.470
 Vibration     8          0.626              1.879              2.428
 Vibration     9          0.637              1.843              2.156
 Vibration    10          0.666              1.751              1.684
 Vibration    11          0.671              1.738              1.633
 Vibration    12          0.680              1.710              1.531
 Vibration    13          0.685              1.695              1.483
 Vibration    14          0.711              1.620              1.271
 Vibration    15          0.719              1.599              1.219
 Vibration    16          0.737              1.547              1.107
 Vibration    17          0.758              1.492              1.001
 Vibration    18          0.759              1.488              0.993
 Vibration    19          0.765              1.472              0.967
 Vibration    20          0.776              1.444              0.920
 Vibration    21          0.796              1.393              0.841
 Vibration    22          0.838              1.291              0.706
 Vibration    23          0.858              1.245              0.652
 Vibration    24          0.867              1.223              0.629
 Vibration    25          0.930              1.089              0.498
 Vibration    26          0.962              1.025              0.444

                           ! Non-Optimized Parameters !
 Normal termination of Gaussian 16 at Wed Dec 27 21:21:49 2023.
