 Gaussian 16, Revision A.03,
 Gaussian 16:  ES64L-G16RevA.03 25-Dec-2016

 ----------------------------------------------------------------
 #P UB3LYP/6-311++G(d,p) SCRF=(PCM,Solvent=n,n-DiMethylFormamide)
 ----------------------------------------------------------------

 ------------------
 Radical PCM in DMF
 ------------------
 Symbolic Z-matrix:
 Charge = -1 Multiplicity = 2

                         Standard orientation:
 ---------------------------------------------------------------------
 Center     Atomic      Atomic             Coordinates (Angstroms)
 Number     Number       Type             X           Y           Z
 ---------------------------------------------------------------------
      1          6           0        2.989508    3.466579   -0.002458
      2          8           0        1.762488    2.779169   -0.001885
      3          6           0        1.774723    1.409286   -0.000734
      4          6           0        2.960960    0.703938   -0.000773
      5          6           0        2.960931   -0.703969    0.000081
      6          6           0        1.774675   -1.409296    0.000299
      7          8           0        1.762484   -2.779197    0.001420
      8          6           0        2.989583   -3.466488    0.003289
      9          6           0        0.511769   -0.724532   -0.000362
     10          6           0       -0.745412   -1.486812   -0.001713
     11          8           0       -0.810543   -2.737590   -0.003723
     12          6           0       -1.991321   -0.705502   -0.000917
     13          6           0       -3.225124   -1.392227   -0.001881
     14          6           0       -4.423267   -0.705486   -0.001019
     15          6           0       -4.423230    0.705523    0.000830
     16          6           0       -3.225078    1.392232    0.001820
     17          6           0       -1.991299    0.705478    0.000946
     18          6           0       -0.745380    1.486786    0.001890
     19          8           0       -0.810546    2.737551    0.004299
     20          6           0        0.511808    0.724510    0.000173
     21          1           0        2.732325    4.526812   -0.002863
     22          1           0        3.590602    3.242758   -0.895112
     23          1           0        3.590931    3.243463    0.890125
     24          1           0        3.912572    1.216796   -0.001484
     25          1           0        3.912536   -1.216857    0.000472
     26          1           0        3.591389   -3.244336   -0.889283
     27          1           0        2.732514   -4.526747    0.004761
     28          1           0        3.590228   -3.241559    0.895940
     29          1           0       -3.189857   -2.475216   -0.003277
     30          1           0       -5.363820   -1.249056   -0.001710
     31          1           0       -5.363767    1.249129    0.001469
     32          1           0       -3.189792    2.475222    0.003245
 ---------------------------------------------------------------------

 SCF Done:  E(UB3LYP) =  -918.183819637     A.U. after   17 cycles

 The electronic state is 2-A.
 Alpha  occ. eigenvalues --  -19.14493 -19.14492 -19.06625 -19.06625 -10.23000
 Alpha  occ. eigenvalues --  -10.22999 -10.22208 -10.22207 -10.21496 -10.21496
 Alpha  occ. eigenvalues --  -10.17871 -10.17834 -10.17082 -10.17035 -10.16774
 Alpha  occ. eigenvalues --  -10.16734 -10.16728 -10.16685 -10.16638 -10.16636
 Alpha  occ. eigenvalues --   -1.06505  -1.06421  -0.99781  -0.99550  -0.85688
 Alpha  occ. eigenvalues --   -0.84613  -0.78209  -0.76076  -0.74618  -0.74257
 Alpha  occ. eigenvalues --   -0.70919  -0.67835  -0.66521  -0.62916  -0.61739
 Alpha  occ. eigenvalues --   -0.57748  -0.55780  -0.53839  -0.53234  -0.50862
 Alpha  occ. eigenvalues --   -0.49425  -0.47872  -0.46802  -0.46338  -0.45828
 Alpha  occ. eigenvalues --   -0.45805  -0.43469  -0.42887  -0.42056  -0.41700
 Alpha  occ. eigenvalues --   -0.40994  -0.40842  -0.40057  -0.38589  -0.38004
 Alpha  occ. eigenvalues --   -0.37790  -0.37452  -0.34886  -0.34188  -0.33887
 Alpha  occ. eigenvalues --   -0.33523  -0.33386  -0.32818  -0.29276  -0.26456
 Alpha  occ. eigenvalues --   -0.25270  -0.24749  -0.23139  -0.22278  -0.21303
 Alpha  occ. eigenvalues --   -0.13465
 Alpha virt. eigenvalues --   -0.04330  -0.02156  -0.00453   0.00261   0.00589
 Alpha virt. eigenvalues --    0.01045   0.01905   0.01917   0.02801   0.03130
 Alpha virt. eigenvalues --    0.03623   0.04003   0.04486   0.05037   0.05231

  Beta  occ. eigenvalues --  -19.14486 -19.14486 -19.06073 -19.06072 -10.22998
  Beta  occ. eigenvalues --  -10.22997 -10.22061 -10.22060 -10.21496 -10.21495
  Beta  occ. eigenvalues --  -10.17786 -10.17749 -10.17045 -10.16997 -10.16711
  Beta  occ. eigenvalues --  -10.16675 -10.16639 -10.16636 -10.16625 -10.16589
  Beta  occ. eigenvalues --   -1.06479  -1.06397  -0.98837  -0.98581  -0.85447
  Beta  occ. eigenvalues --   -0.84474  -0.77804  -0.75940  -0.74455  -0.74085
  Beta  occ. eigenvalues --   -0.70870  -0.67676  -0.65818  -0.62748  -0.61499
  Beta  occ. eigenvalues --   -0.57676  -0.55646  -0.53614  -0.53118  -0.50802
  Beta  occ. eigenvalues --   -0.49345  -0.47599  -0.46703  -0.46290  -0.45686
  Beta  occ. eigenvalues --   -0.45647  -0.43426  -0.42748  -0.42028  -0.40865
  Beta  occ. eigenvalues --   -0.40621  -0.40347  -0.39977  -0.38381  -0.37807
  Beta  occ. eigenvalues --   -0.37122  -0.36014  -0.34774  -0.33479  -0.33260
  Beta  occ. eigenvalues --   -0.33242  -0.33109  -0.32745  -0.28925  -0.24688
  Beta  occ. eigenvalues --   -0.24358  -0.24194  -0.22645  -0.21785  -0.20507
  Beta virt. eigenvalues --   -0.07763  -0.03415  -0.01051  -0.00442   0.00264
  Beta virt. eigenvalues --    0.00594   0.01386   0.01919   0.01921   0.02815
  Beta virt. eigenvalues --    0.03164   0.03631   0.04010   0.04514   0.05049

 Mulliken charges and spin densities:
               1          2
     1  C   -0.305656  -0.000967
     2  O   -0.143758   0.001279
     3  C   -0.194742   0.012903
     4  C   -0.395037   0.080490
     5  C   -0.394787   0.080494
     6  C   -0.194771   0.012903
     7  O   -0.143752   0.001278
     8  C   -0.305645  -0.000968
     9  C    0.389674   0.038445
    10  C   -0.149833   0.077480
    11  O   -0.464039   0.208487
    12  C    0.065723   0.028952
    13  C    0.137420   0.028529
    14  C   -0.468095   0.031879
    15  C   -0.468039   0.031892
    16  C    0.137407   0.028520
    17  C    0.065817   0.028976
    18  C   -0.150000   0.077471
    19  O   -0.464016   0.208475
    20  C    0.389649   0.038447
    21  H    0.190975  -0.000258
    22  H    0.148502   0.000612
    23  H    0.148614   0.000619
    24  H    0.202075  -0.004821
    25  H    0.202090  -0.004821
    26  H    0.148608   0.000615
    27  H    0.190989  -0.000258
    28  H    0.148497   0.000617
    29  H    0.158806  -0.001191
    30  H    0.179260  -0.002443
    31  H    0.179259  -0.002444
    32  H    0.158805  -0.001190
 Sum of Mulliken charges =  -1.00000   1.00000

 Dipole moment (field-independent basis, Debye):
    X=              7.1146    Y=              0.0006    Z=              0.0004  Tot=              7.1146
 Quadrupole moment (field-independent basis, Debye-Ang):
   XX=           -104.5735   YY=           -147.8824   ZZ=           -123.2176
   XY=              0.0002   XZ=              0.0045   YZ=             -0.0652

 Normal termination of Gaussian 16 at Sun Jan 14 01:14:08 2024.
