 Gaussian 16, Revision A.03,
 Gaussian 16:  ES64L-G16RevA.03 25-Dec-2016

 ----------------------------------------------------------------------
 #P UB3LYP/6-311++G(d,p) nosym opt freq SCRF=(PCM,Solvent=n,n-DiMethylF
 ormamide)
 ----------------------------------------------------------------------

 -------
 Radical
 -------
 Symbolic Z-matrix:
 Charge = -2 Multiplicity = 2

 SCF Done:  E(UB3LYP) =  -3941.47520814     A.U. after   21 cycles
 SCF Done:  E(UB3LYP) =  -3941.47561820     A.U. after   16 cycles
 SCF Done:  E(UB3LYP) =  -3941.47589930     A.U. after   16 cycles
 SCF Done:  E(UB3LYP) =  -3941.47611880     A.U. after   15 cycles
 SCF Done:  E(UB3LYP) =  -3941.47613267     A.U. after   15 cycles
 SCF Done:  E(UB3LYP) =  -3941.47614126     A.U. after   13 cycles
 SCF Done:  E(UB3LYP) =  -3941.47614948     A.U. after   12 cycles
 SCF Done:  E(UB3LYP) =  -3941.47615404     A.U. after   14 cycles
 SCF Done:  E(UB3LYP) =  -3941.47616818     A.U. after   15 cycles
 SCF Done:  E(UB3LYP) =  -3941.47610306     A.U. after   16 cycles
 SCF Done:  E(UB3LYP) =  -3941.47516772     A.U. after   18 cycles
 SCF Done:  E(UB3LYP) =  -3941.47617540     A.U. after   10 cycles
 SCF Done:  E(UB3LYP) =  -3941.47617350     A.U. after   14 cycles
 SCF Done:  E(UB3LYP) =  -3941.47617573     A.U. after   14 cycles
 SCF Done:  E(UB3LYP) =  -3941.47617882     A.U. after   12 cycles
 SCF Done:  E(UB3LYP) =  -3941.47617965     A.U. after   12 cycles
 SCF Done:  E(UB3LYP) =  -3941.47618007     A.U. after   11 cycles
 SCF Done:  E(UB3LYP) =  -3941.47618020     A.U. after   11 cycles
 SCF Done:  E(UB3LYP) =  -3941.47618020     A.U. after   10 cycles
 Optimization completed.
    -- Stationary point found.
 Normal termination of Gaussian 16 at Sun Feb 11 00:02:10 2024.

 ----------------------------------------------------------------------
 #P Geom=AllCheck Guess=TCheck SCRF=Check GenChk UB3LYP/6-311++G(d,p) F
 req
 ----------------------------------------------------------------------

 Structure from the checkpoint file:  "163-rad.chk"
 -------
 Radical
 -------
 Charge = -2 Multiplicity = 2

                          Input orientation:
 ---------------------------------------------------------------------
 Center     Atomic      Atomic             Coordinates (Angstroms)
 Number     Number       Type             X           Y           Z
 ---------------------------------------------------------------------
      1          6           0       -1.750138    1.974605   -5.146458
      2          6           0       -1.731805    0.645751   -5.522895
      3          6           0       -1.470141   -0.352324   -4.561774
      4          6           0       -1.502287    2.355913   -3.809076
      5          6           0       -1.236895    1.356153   -2.845796
      6          6           0       -1.233561    0.001341   -3.247986
      7          6           0       -1.548236    3.769255   -3.441733
      8          6           0       -0.980833    1.691612   -1.445934
      9          6           0       -1.224618    4.131690   -2.067572
     10          6           0       -0.864618    3.111548   -1.102327
     11          6           0       -1.241753    5.525802   -1.678467
     12          6           0       -0.847763    5.866880   -0.368338
     13          6           0       -0.419773    4.883791    0.525357
     14          6           0       -0.428504    3.551461    0.175370
     15          8           0       -1.856038    4.621793   -4.334787
     16          8           0       -0.878438    0.773264   -0.590380
     17          1           0       -1.955711    2.754109   -5.869009
     18          1           0       -1.919836    0.369024   -6.554578
     19          1           0       -1.455355   -1.396370   -4.855498
     20          1           0       -1.034754   -0.752666   -2.496772
     21         35           0        0.328692    2.395102    1.541546
     22          7           0       -1.649898    6.488239   -2.551169
     23         16           0       -0.959538    7.559267    0.256100
     24          8           0       -0.493606    8.448551   -0.857681
     25          8           0       -2.395115    7.793597    0.592121
     26          8           0       -0.071811    7.617567    1.449533
     27          1           0       -0.071182    5.190540    1.501653
     28          1           0       -1.781065    6.169543   -3.508835
     29          1           0       -1.383310    7.442580   -2.341232
 ---------------------------------------------------------------------

 SCF Done:  E(UB3LYP) =  -3941.47618020     A.U. after    1 cycles

 Alpha  occ. eigenvalues -- -482.81696 -89.04288 -62.46972 -56.29006 -56.28637
 Alpha  occ. eigenvalues --  -56.28598 -19.08720 -19.08701 -19.08495 -19.08007
 Alpha  occ. eigenvalues --  -19.07358 -14.30355 -10.23182 -10.23041 -10.22663
 Alpha  occ. eigenvalues --  -10.21832 -10.18995 -10.18758 -10.18328 -10.18145
 Alpha  occ. eigenvalues --  -10.17395 -10.17351 -10.17344 -10.17283 -10.17058
 Alpha  occ. eigenvalues --  -10.17018  -8.67939  -8.10167  -6.51062  -6.49839
 Alpha  occ. eigenvalues --   -6.49729  -6.06454  -6.06428  -6.06330  -2.62156
 Alpha  occ. eigenvalues --   -2.61829  -2.61746  -2.60772  -2.60771  -1.10417
 Alpha  occ. eigenvalues --   -1.00705  -1.00122  -0.96910  -0.96480  -0.92024
 Alpha  occ. eigenvalues --   -0.86258  -0.85318  -0.79692  -0.78338  -0.75086
 Alpha  occ. eigenvalues --   -0.74766  -0.71555  -0.67595  -0.65011  -0.63142
 Alpha  occ. eigenvalues --   -0.60084  -0.57400  -0.55924  -0.55021  -0.52114
 Alpha  occ. eigenvalues --   -0.50685  -0.48552  -0.48015  -0.47168  -0.45369
 Alpha  occ. eigenvalues --   -0.44884  -0.44563  -0.44118  -0.42876  -0.42424
 Alpha  occ. eigenvalues --   -0.42145  -0.41133  -0.40651  -0.39198  -0.38803
 Alpha  occ. eigenvalues --   -0.38231  -0.36680  -0.35568  -0.34822  -0.33922
 Alpha  occ. eigenvalues --   -0.33623  -0.33026  -0.32839  -0.29883  -0.29512
 Alpha  occ. eigenvalues --   -0.29025  -0.28619  -0.28426  -0.26539  -0.25654
 Alpha  occ. eigenvalues --   -0.25271  -0.25065  -0.24610  -0.22935  -0.21108
 Alpha  occ. eigenvalues --   -0.14243
 Alpha virt. eigenvalues --   -0.05130  -0.02965  -0.01180  -0.00064  -0.00028
 Alpha virt. eigenvalues --    0.00845   0.01500   0.02349   0.02675   0.04035
 Alpha virt. eigenvalues --    0.04059   0.04311   0.04559   0.04805   0.05270

  Beta  occ. eigenvalues -- -482.81694 -89.04290 -62.46971 -56.29005 -56.28631
  Beta  occ. eigenvalues --  -56.28598 -19.08713 -19.08701 -19.08478 -19.07534
  Beta  occ. eigenvalues --  -19.06765 -14.30350 -10.23064 -10.23012 -10.22501
  Beta  occ. eigenvalues --  -10.21776 -10.18873 -10.18613 -10.18300 -10.18097
  Beta  occ. eigenvalues --  -10.17334 -10.17321 -10.17286 -10.17242 -10.17061
  Beta  occ. eigenvalues --  -10.17008  -8.67936  -8.10170  -6.51062  -6.49829
  Beta  occ. eigenvalues --   -6.49728  -6.06455  -6.06430  -6.06336  -2.62155
  Beta  occ. eigenvalues --   -2.61824  -2.61747  -2.60767  -2.60765  -1.10403
  Beta  occ. eigenvalues --   -0.99887  -0.99091  -0.96904  -0.96451  -0.91954
  Beta  occ. eigenvalues --   -0.86011  -0.85181  -0.79389  -0.78139  -0.74898
  Beta  occ. eigenvalues --   -0.74596  -0.71321  -0.67027  -0.64794  -0.62897
  Beta  occ. eigenvalues --   -0.59988  -0.57288  -0.55735  -0.54845  -0.52013
  Beta  occ. eigenvalues --   -0.50557  -0.48444  -0.47808  -0.46974  -0.45320
  Beta  occ. eigenvalues --   -0.44815  -0.44468  -0.44042  -0.42385  -0.42118
  Beta  occ. eigenvalues --   -0.41850  -0.40661  -0.40335  -0.38967  -0.38187
  Beta  occ. eigenvalues --   -0.36688  -0.36392  -0.35446  -0.33926  -0.33752
  Beta  occ. eigenvalues --   -0.33214  -0.32981  -0.32510  -0.29667  -0.29443
  Beta  occ. eigenvalues --   -0.28960  -0.28476  -0.27939  -0.25223  -0.25076
  Beta  occ. eigenvalues --   -0.24810  -0.24573  -0.24203  -0.22470  -0.20319
  Beta virt. eigenvalues --   -0.08602  -0.04172  -0.01934  -0.01050  -0.00019
  Beta virt. eigenvalues --    0.00181   0.00850   0.01514   0.02369   0.02683
  Beta virt. eigenvalues --    0.04057   0.04257   0.04520   0.04759   0.04996

 Mulliken charges and spin densities:
               1          2
     1  C    0.113788   0.022355
     2  C   -0.510771   0.033209
     3  C   -0.380062   0.023280
     4  C   -0.101722   0.007358
     5  C    0.112667   0.024466
     6  C    0.075330   0.036229
     7  C   -0.383788   0.097503
     8  C   -1.238295   0.087978
     9  C    0.346711   0.013011
    10  C    0.975364   0.085888
    11  C    0.268547  -0.003477
    12  C   -0.880747   0.086466
    13  C   -0.269194   0.037333
    14  C    0.260702   0.056415
    15  O   -0.440138   0.173503
    16  O   -0.368330   0.217715
    17  H    0.169859  -0.000759
    18  H    0.183246  -0.002841
    19  H    0.182126  -0.001846
    20  H    0.169592  -0.002467
    21  Br  -0.190893   0.004833
    22  N   -0.443381   0.003997
    23  S    0.633486  -0.002655
    24  O   -0.440435   0.003541
    25  O   -0.367857   0.004553
    26  O   -0.363539   0.000400
    27  H    0.257878  -0.002941
    28  H    0.346866  -0.002207
    29  H    0.282992  -0.000839
 Sum of Mulliken charges =  -2.00000   1.00000

 Dipole moment (field-independent basis, Debye):
    X=             10.4125    Y=            -51.6379    Z=              4.5797  Tot=             52.8760
 Quadrupole moment (field-independent basis, Debye-Ang):
   XX=           -178.1321   YY=           -516.9478   ZZ=           -190.3764
   XY=             58.4878   XZ=            -11.9908   YZ=             12.2288

  Exact polarizability: 216.523 -12.506 537.462  79.304  65.823 495.955
 Approx polarizability: 250.016 -21.520 564.547  84.216  20.461 538.686

                      1                      2                      3
                      A                      A                      A
 Frequencies --     28.9477                43.6318                47.0715
 Red. masses --     10.6851                10.4537                11.0156
 Frc consts  --      0.0053                 0.0117                 0.0144
 IR Inten    --      0.6176                 2.8874                 2.9908

                      4                      5                      6
                      A                      A                      A
 Frequencies --     86.7501               109.3577               125.1939
 Red. masses --     10.0087                 7.4402                 7.5315
 Frc consts  --      0.0444                 0.0524                 0.0696
 IR Inten    --      9.2121                 3.1966                 6.9482

                      7                      8                      9
                      A                      A                      A
 Frequencies --    131.6311               145.5697               173.4999
 Red. masses --      8.8015                 9.8639                 8.1404
 Frc consts  --      0.0899                 0.1232                 0.1444
 IR Inten    --      0.5776                 2.8219                 0.6446

                     10                     11                     12
                      A                      A                      A
 Frequencies --    219.5697               224.1198               249.5327
 Red. masses --     11.7136                10.7997                10.7341
 Frc consts  --      0.3327                 0.3196                 0.3938
 IR Inten    --      4.0372                 3.0421                 1.0192

                     13                     14                     15
                      A                      A                      A
 Frequencies --    261.0237               286.5560               317.3211
 Red. masses --     10.5521                 5.6858                 9.1084
 Frc consts  --      0.4236                 0.2751                 0.5404
 IR Inten    --      6.5605                 2.0834                 8.2066

                     16                     17                     18
                      A                      A                      A
 Frequencies --    356.5473               376.4509               398.1167
 Red. masses --      6.0923                 9.3892                 7.4996
 Frc consts  --      0.4563                 0.7840                 0.7003
 IR Inten    --      2.6405                10.6530                14.0536

                     19                     20                     21
                      A                      A                      A
 Frequencies --    420.5634               430.7427               440.7061
 Red. masses --      8.3305                 5.4019                 4.6565
 Frc consts  --      0.8681                 0.5905                 0.5329
 IR Inten    --     13.9413                 4.1918                16.5473

                     22                     23                     24
                      A                      A                      A
 Frequencies --    449.7015               479.9957               487.6517
 Red. masses --      7.2115                 6.9731                 5.9241
 Frc consts  --      0.8593                 0.9466                 0.8300
 IR Inten    --     26.1830                10.1175                 9.6846

                     25                     26                     27
                      A                      A                      A
 Frequencies --    504.9344               524.0513               533.2644
 Red. masses --      6.6946                 7.3542                 6.9384
 Frc consts  --      1.0057                 1.1900                 1.1625
 IR Inten    --     61.3325                27.5036                61.1037

                     28                     29                     30
                      A                      A                      A
 Frequencies --    559.1630               578.2253               593.2375
 Red. masses --      1.4043                 5.6198                12.6944
 Frc consts  --      0.2587                 1.1070                 2.6322
 IR Inten    --    382.5507                 3.3955               541.1210

                     31                     32                     33
                      A                      A                      A
 Frequencies --    627.8988               663.5885               671.8167
 Red. masses --      6.0019                 5.0994                 5.6782
 Frc consts  --      1.3942                 1.3230                 1.5100
 IR Inten    --      1.3292                 8.0340                87.5024

                     34                     35                     36
                      A                      A                      A
 Frequencies --    710.0514               716.1987               721.2645
 Red. masses --      7.1106                 3.0663                 6.4109
 Frc consts  --      2.1122                 0.9267                 1.9650
 IR Inten    --    160.0681                42.0101                 8.3767

                     37                     38                     39
                      A                      A                      A
 Frequencies --    733.7749               747.2938               793.1707
 Red. masses --      1.5118                 2.5526                 2.0176
 Frc consts  --      0.4796                 0.8399                 0.7478
 IR Inten    --     10.4340                85.2127                32.4722

                     40                     41                     42
                      A                      A                      A
 Frequencies --    801.7024               812.6448               889.1466
 Red. masses --      5.5022                 7.1686                 1.4622
 Frc consts  --      2.0836                 2.7892                 0.6811
 IR Inten    --      2.2253                45.3745                 0.2268

                     43                     44                     45
                      A                      A                      A
 Frequencies --    896.1283               900.0240               943.0688
 Red. masses --      1.6926                 3.5255                 8.9224
 Frc consts  --      0.8008                 1.6826                 4.6754
 IR Inten    --     52.6442                23.1126                55.8691

                     46                     47                     48
                      A                      A                      A
 Frequencies --    971.1298               991.9392              1003.9169
 Red. masses --      9.5473                 1.3631                 1.2860
 Frc consts  --      5.3050                 0.7902                 0.7636
 IR Inten    --    624.7575                 3.0831                 0.0614

                     49                     50                     51
                      A                      A                      A
 Frequencies --   1027.0433              1045.3921              1087.8622
 Red. masses --      4.2153                 2.0241                12.0540
 Frc consts  --      2.6198                 1.3033                 8.4048
 IR Inten    --     17.5462                37.6773               470.0934

                     52                     53                     54
                      A                      A                      A
 Frequencies --   1113.1949              1117.3582              1134.5621
 Red. masses --      2.9216                 3.9438                 3.5485
 Frc consts  --      2.1331                 2.9010                 2.6912
 IR Inten    --    103.5796               342.5589               301.8685

                     55                     56                     57
                      A                      A                      A
 Frequencies --   1150.9846              1175.4447              1204.2270
 Red. masses --      1.4028                 3.3157                 2.0259
 Frc consts  --      1.0949                 2.6991                 1.7309
 IR Inten    --     14.3539                32.2299                16.7744

                     58                     59                     60
                      A                      A                      A
 Frequencies --   1223.9967              1242.5484              1293.0574
 Red. masses --      3.0524                 1.8878                 3.0104
 Frc consts  --      2.6943                 1.7173                 2.9655
 IR Inten    --     39.9780               329.2939                59.3097

                     61                     62                     63
                      A                      A                      A
 Frequencies --   1309.4053              1359.3068              1370.2021
 Red. masses --      4.4466                 4.8026                 5.0807
 Frc consts  --      4.4918                 5.2283                 5.6201
 IR Inten    --     48.5050                92.5046                48.9647

                     64                     65                     66
                      A                      A                      A
 Frequencies --   1378.5237              1394.0634              1469.4227
 Red. masses --      4.3722                 3.0304                 4.2388
 Frc consts  --      4.8953                 3.4698                 5.3925
 IR Inten    --    277.2122                 7.3345               817.6933

                     67                     68                     69
                      A                      A                      A
 Frequencies --   1476.5716              1488.3325              1504.5807
 Red. masses --      3.7547                 3.2802                 4.9776
 Frc consts  --      4.8232                 4.2810                 6.6390
 IR Inten    --     56.3808               187.3556              1644.6646

                     70                     71                     72
                      A                      A                      A
 Frequencies --   1550.1127              1564.2002              1591.5918
 Red. masses --      6.1053                 5.6968                 1.3698
 Frc consts  --      8.6434                 8.2123                 2.0445
 IR Inten    --     31.2354               330.9656               216.5485

                     73                     74                     75
                      A                      A                      A
 Frequencies --   1608.7646              1628.8171              3160.9223
 Red. masses --      7.8225                 5.8025                 1.0864
 Frc consts  --     11.9283                 9.0701                 6.3953
 IR Inten    --     31.2022                 1.8078                14.0047

                     76                     77                     78
                      A                      A                      A
 Frequencies --   3175.5317              3196.0841              3199.9504
 Red. masses --      1.0914                 1.0918                 1.0930
 Frc consts  --      6.4845                 6.5713                 6.5939
 IR Inten    --     30.3442                16.3923                35.5155

                     79                     80                     81
                      A                      A                      A
 Frequencies --   3211.3897              3397.2073              3558.4563
 Red. masses --      1.0901                 1.0543                 1.0990
 Frc consts  --      6.6237                 7.1692                 8.1990
 IR Inten    --     11.4844               162.8843               523.9953

 - Thermochemistry -
 -------------------
 Temperature   298.150 Kelvin.  Pressure   1.00000 Atm.
 Atom     1 has atomic number  6 and mass  12.00000

 Molecular mass:   379.92283 amu.
 Principal axes and moments of inertia in atomic units:
                           1         2         3
     Eigenvalues --  6014.31825********************
           X            0.07919   0.31799   0.94478
           Y            0.82173  -0.55738   0.11872
           Z            0.56435   0.76695  -0.30544
 This molecule is an asymmetric top.
 Rotational symmetry number  1.
 Warning -- assumption of classical behavior for rotation
           may cause significant error
 Rotational temperatures (Kelvin)      0.01440     0.00775     0.00517
 Rotational constants (GHZ):           0.30007     0.16158     0.10765
 Zero-point vibrational energy     487998.6 (Joules/Mol)
                                  116.63447 (Kcal/Mol)
 Warning -- explicit consideration of  30 degrees of freedom as
           vibrations may cause significant error
 Vibrational temperatures:     41.65    62.78    67.73   124.81   157.34
          (Kelvin)            180.13   189.39   209.44   249.63   315.91
                              322.46   359.02   375.55   412.29   456.55
                              512.99   541.63   572.80   605.10   619.74
                              634.08   647.02   690.61   701.62   726.49
                              753.99   767.25   804.51   831.94   853.54
                              903.41   954.76   966.59  1021.61  1030.45
                             1037.74  1055.74  1075.19  1141.20  1153.47
                             1169.21  1279.28  1289.33  1294.93  1356.87
                             1397.24  1427.18  1444.41  1477.69  1504.09
                             1565.19  1601.64  1607.63  1632.38  1656.01
                             1691.20  1732.61  1761.06  1787.75  1860.42
                             1883.94  1955.74  1971.42  1983.39  2005.75
                             2114.17  2124.46  2141.38  2164.76  2230.27
                             2250.54  2289.95  2314.65  2343.50  4547.86
                             4568.88  4598.45  4604.01  4620.47  4887.82
                             5119.82

 Zero-point correction=                           0.185869 (Hartree/Particle)
 Thermal correction to Energy=                    0.203749
 Thermal correction to Enthalpy=                  0.204693
 Thermal correction to Gibbs Free Energy=         0.137913
 Sum of electronic and zero-point Energies=          -3941.290311
 Sum of electronic and thermal Energies=             -3941.272432
 Sum of electronic and thermal Enthalpies=           -3941.271488
 Sum of electronic and thermal Free Energies=        -3941.338267

                     E (Thermal)             CV                S
                      KCal/Mol        Cal/Mol-Kelvin    Cal/Mol-Kelvin
 Total                  127.854             69.325            140.549
 Electronic               0.000              0.000              1.377
 Translational            0.889              2.981             43.697
 Rotational               0.889              2.981             35.375
 Vibrational            126.077             63.363             60.100
 Vibration     1          0.593              1.984              5.900
 Vibration     2          0.595              1.980              5.087
 Vibration     3          0.595              1.979              4.937
 Vibration     4          0.601              1.958              3.732
 Vibration     5          0.606              1.942              3.280
 Vibration     6          0.610              1.928              3.019
 Vibration     7          0.612              1.922              2.922
 Vibration     8          0.617              1.907              2.729
 Vibration     9          0.627              1.875              2.397
 Vibration    10          0.647              1.811              1.963
 Vibration    11          0.649              1.804              1.926
 Vibration    12          0.662              1.764              1.734
 Vibration    13          0.669              1.744              1.655
 Vibration    14          0.684              1.699              1.494
 Vibration    15          0.704              1.641              1.324
 Vibration    16          0.732              1.562              1.137
 Vibration    17          0.747              1.520              1.053
 Vibration    18          0.764              1.474              0.970
 Vibration    19          0.783              1.426              0.890
 Vibration    20          0.792              1.403              0.856
 Vibration    21          0.801              1.381              0.824
 Vibration    22          0.809              1.362              0.797
 Vibration    23          0.836              1.294              0.710
 Vibration    24          0.844              1.277              0.690
 Vibration    25          0.860              1.239              0.646
 Vibration    26          0.879              1.197              0.601
 Vibration    27          0.888              1.176              0.580
 Vibration    28          0.915              1.120              0.526
 Vibration    29          0.935              1.078              0.489
 Vibration    30          0.951              1.046              0.461

 Optimization completed.
    -- Stationary point found.
 Normal termination of Gaussian 16 at Sun Feb 11 01:12:24 2024.
