 Q-Chem 5.4, Q-Chem, Inc., Pleasanton, CA (2021)
 Q-Chem 5.4.0 for Intel X86 EM64T Linux

User input:
--------------------------------------------------------------
$molecule
-2 1
O                 -1.3310070000     -2.6169420000      0.8440890000
C                 -1.1533770000     -1.4172400000      0.4306170000
C                 -2.3706430000     -0.6204920000      0.0835230000
O                 -2.5271770000     -0.1355500000     -1.2810310000
C                 -2.2744870000      0.8365060000     -0.2232560000
C                 -0.9575030000      1.5431750000     -0.1970050000
O                 -0.9650910000      2.8169220000     -0.3381710000
C                  0.1789950000      0.7150270000      0.0023190000
C                  1.4859240000      1.2858410000     -0.0761510000
C                  2.6303810000      0.5688270000      0.1723880000
C                  2.5340850000     -0.8188330000      0.5359790000
C                  1.3005080000     -1.4191020000      0.6021560000
C                  0.0835240000     -0.7279300000      0.3200120000
H                 -3.2977840000     -1.0277410000      0.4930590000
H                 -3.1325800000      1.4875460000     -0.0426090000
H                  1.5396780000      2.3385700000     -0.3396700000
H                  3.6083350000      1.0437780000      0.1067750000
H                  3.4391250000     -1.3857420000      0.7478070000
H                  1.2090960000     -2.4666200000      0.8751590000
$end
$rem
MAX_SCF_CYCLES=200
BASIS  =  6-311++G(d,p)
GUI  =  2
JOB_TYPE  =  SP
METHOD  =  B3LYP
SOLVENT_METHOD = COSMO
$end
$solvent
dielectric 37.219
opticaldielectric 1.43
$end

--------------------------------------------------------------

             Standard Nuclear Orientation (Angstroms)
    I     Atom           X                Y                Z
 ----------------------------------------------------------------
    1      O      -0.8203793368    -2.7898059516     0.3002234365
    2      C      -0.7465338101    -1.5195969015     0.1488556466
    3      C      -2.0284521261    -0.7490972560     0.1546747818
    4      O      -2.3963784856     0.0111920625    -1.0320305740
    5      C      -2.0289686122     0.7428080254     0.1751898373
    6      C      -0.7477062704     1.5127169102     0.1863328853
    7      O      -0.8205585333     2.7830757006     0.3389694757
    8      C       0.4342234401     0.7386095465     0.0414646011
    9      C       1.6953109405     1.3985145234    -0.0778388454
   10      C       2.8882466194     0.7223535315    -0.1511417415
   11      C       2.8943291831    -0.7144951208    -0.1011361083
   12      C       1.7050640739    -1.3954977053    -0.0100402116
   13      C       0.4364877731    -0.7419699817     0.0345659564
   14      H      -2.8721749424    -1.2969309978     0.5803177282
   15      H      -2.8747229313     1.2798915299     0.6099897427
   16      H       1.6733774606     2.4845792775    -0.1013415171
   17      H       3.8292157232     1.2642108048    -0.2362615711
   18      H       3.8398970637    -1.2524449121    -0.1443301224
   19      H       1.6909312036    -2.4810736238     0.0287662231
 ----------------------------------------------------------------

   16    -610.4128673150      6.38e-06  Convergence criterion met
 Total energy in the final basis set =     -610.4128673150
    6    -610.6991118805      4.72e-06  Convergence criterion met
 Total energy in the final basis set =     -610.6991118805

                    Orbital Energies (a.u.)
 --------------------------------------------------------------

 Alpha MOs
 -- Occupied --
-19.1187 -19.0371 -19.0368 -10.1989 -10.1985 -10.1782 -10.1779 -10.1432
-10.1432 -10.1400 -10.1396 -10.1268 -10.1265  -1.0473  -0.9512  -0.9507
 -0.8152  -0.7359  -0.7200  -0.6693  -0.6572  -0.5952  -0.5834  -0.5271
 -0.4903  -0.4859  -0.4742  -0.4266  -0.4097  -0.3978  -0.3962  -0.3796
 -0.3750  -0.3718  -0.3645  -0.3278  -0.3190  -0.3118  -0.3050  -0.2844
 -0.2691  -0.2301  -0.2188  -0.2103  -0.2090  -0.0998

          Ground-State Mulliken Net Atomic Charges

     Atom                 Charge (a.u.)
  ----------------------------------------
      1 O                    -0.695173
      2 C                    -0.212048
      3 C                    -0.046800
      4 O                    -0.272696
      5 C                    -0.122520
      6 C                    -0.263880
      7 O                    -0.694427
      8 C                     0.137818
      9 C                     0.054247
     10 C                    -0.430179
     11 C                    -0.500794
     12 C                    -0.015784
     13 C                     0.039684
     14 H                     0.192729
     15 H                     0.194579
     16 H                     0.147590
     17 H                     0.169751
     18 H                     0.168247
     19 H                     0.149656
  ----------------------------------------
  Sum of atomic charges =    -2.000000

                    Cartesian Multipole Moments
 -----------------------------------------------------------------
    Charge (ESU x 10^10)
                -9.6064
    Dipole Moment (Debye)
         X       3.4864      Y      -0.0241      Z       0.4667
       Tot       3.5176
    Quadrupole Moments (Debye-Ang)
        XX     -96.7784     XY       0.0663     YY    -138.7468
        XZ      -4.9160     YZ      -0.4967     ZZ     -88.7809

 Total job time:  42.05s(wall), 285.29s(cpu)
        *  Thank you very much for using Q-Chem.  Have a nice day.  *
