 Q-Chem 5.4, Q-Chem, Inc., Pleasanton, CA (2021)
 Q-Chem 5.4.0 for Intel X86 EM64T Linux

User input:
--------------------------------------------------------------
$molecule
-1 2
Cl                 2.3031190000     -2.0477020000      0.0546730000
C                  0.9916690000     -0.8788530000      0.0234670000
C                  1.2367110000      0.4748710000      0.0011460000
Cl                 2.8758220000      1.1100470000      0.0026340000
C                  0.1646800000      1.4695600000     -0.0250650000
O                  0.3757770000      2.7056720000     -0.0455630000
C                 -1.1683750000      0.9048560000     -0.0253230000
C                 -1.4117590000     -0.4372850000     -0.0031880000
C                 -0.3620430000     -1.4337450000      0.0228130000
O                 -0.5982500000     -2.6652950000      0.0430570000
H                 -1.9817670000      1.6236780000     -0.0445240000
H                 -2.4255850000     -0.8258040000     -0.0041270000
$end
$rem
MAX_SCF_CYCLES=200
BASIS  =  6-311++G(d,p)
GUI  =  2
JOB_TYPE  =  SP
METHOD  =  B3LYP
SOLVENT_METHOD = PCM
$end
$pcm
theory = CPCM
$end
$solvent
dielectric 37.219
opticaldielectric 1.43
$end

--------------------------------------------------------------

             Standard Nuclear Orientation (Angstroms)
    I     Atom           X                Y                Z
 ----------------------------------------------------------------
    1      Cl      2.3031190000    -2.0477020000     0.0546730000
    2      C       0.9916690000    -0.8788530000     0.0234670000
    3      C       1.2367110000     0.4748710000     0.0011460000
    4      Cl      2.8758220000     1.1100470000     0.0026340000
    5      C       0.1646800000     1.4695600000    -0.0250650000
    6      O       0.3757770000     2.7056720000    -0.0455630000
    7      C      -1.1683750000     0.9048560000    -0.0253230000
    8      C      -1.4117590000    -0.4372850000    -0.0031880000
    9      C      -0.3620430000    -1.4337450000     0.0228130000
   10      O      -0.5982500000    -2.6652950000     0.0430570000
   11      H      -1.9817670000     1.6236780000    -0.0445240000
   12      H      -2.4255850000    -0.8258040000    -0.0041270000
 ----------------------------------------------------------------

    9   -1300.9737791599      5.89e-06  Convergence criterion met
 Total energy in the final basis set =    -1300.9737791599

                    Orbital Energies (a.u.)
 --------------------------------------------------------------

 Alpha MOs
 -- Occupied --
********-101.5578 -19.0939 -19.0938 -10.2424 -10.2424 -10.2401 -10.2395
-10.1768 -10.1761  -9.4723  -9.4722  -7.2368  -7.2367  -7.2276  -7.2276
 -7.2265  -7.2265  -1.0217  -1.0190  -0.8987  -0.8509  -0.8203  -0.7326
 -0.6948  -0.6036  -0.5849  -0.5036  -0.4846  -0.4592  -0.4391  -0.4347
 -0.4251  -0.4039  -0.3976  -0.3853  -0.3655  -0.3380  -0.3307  -0.3084
 -0.2930  -0.2623  -0.2583  -0.2565  -0.1775

 Beta MOs
 -- Occupied --
********-101.5577 -19.0870 -19.0870 -10.2411 -10.2411 -10.2388 -10.2382
-10.1758 -10.1751  -9.4723  -9.4722  -7.2369  -7.2367  -7.2274  -7.2273
 -7.2265  -7.2264  -1.0101  -1.0069  -0.8959  -0.8496  -0.8155  -0.7302
 -0.6842  -0.5993  -0.5807  -0.5014  -0.4804  -0.4561  -0.4337  -0.4238
 -0.4186  -0.3996  -0.3832  -0.3725  -0.3544  -0.3312  -0.3300  -0.3080
 -0.2639  -0.2559  -0.2520  -0.2485

          Ground-State Mulliken Net Atomic Charges

     Atom                 Charge (a.u.)    Spin (a.u.)
  --------------------------------------------------------
      1 Cl                    0.276911       0.006991
      2 C                     0.478615       0.064986
      3 C                     0.484348       0.064265
      4 Cl                    0.275903       0.006897
      5 C                    -0.984563       0.107724
      6 O                    -0.450580       0.244053
      7 C                    -0.042185       0.082722
      8 C                    -0.041270       0.082853
      9 C                    -0.983253       0.107569
     10 O                    -0.449734       0.244217
     11 H                     0.218011      -0.006137
     12 H                     0.217796      -0.006140
  --------------------------------------------------------
  Sum of atomic charges =    -1.000000

                    Cartesian Multipole Moments
 -----------------------------------------------------------------
    Charge (ESU x 10^10)
                -4.8032
    Dipole Moment (Debye)
         X      -3.3923      Y       0.6053      Z      -0.0375
       Tot       3.4460
    Quadrupole Moments (Debye-Ang)
        XX     -79.0302     XY      -6.5117     YY    -113.6624
        XZ       0.0756     YZ       0.6612     ZZ     -73.9109

 Total job time:  14.96s(wall), 80.89s(cpu)
        *  Thank you very much for using Q-Chem.  Have a nice day.  *
