 Gaussian 16, Revision A.03,
 Gaussian 16:  ES64L-G16RevA.03 25-Dec-2016

 --------------------------------------
 #P UB3LYP/6-311++G(d,p) nosym opt freq
 --------------------------------------

 -------
 Radical
 -------
 Symbolic Z-matrix:
 Charge = -1 Multiplicity = 2

 SCF Done:  E(UB3LYP) =  -1300.89433263     A.U. after   26 cycles
 Optimization completed.
    -- Stationary point found.
 Normal termination of Gaussian 16 at Sat Jan  6 05:39:03 2024.

 ----------------------------------------------------------------------
 #P Geom=AllCheck Guess=TCheck SCRF=Check GenChk UB3LYP/6-311++G(d,p) F
 req
 ----------------------------------------------------------------------

 Structure from the checkpoint file:  "009-rad.chk"
 -------
 Radical
 -------
 Charge = -1 Multiplicity = 2

                          Input orientation:
 ---------------------------------------------------------------------
 Center     Atomic      Atomic             Coordinates (Angstroms)
 Number     Number       Type             X           Y           Z
 ---------------------------------------------------------------------
      1         17           0        2.303119   -2.047702    0.054673
      2          6           0        0.991669   -0.878853    0.023467
      3          6           0        1.236711    0.474871    0.001146
      4         17           0        2.875822    1.110047    0.002634
      5          6           0        0.164680    1.469560   -0.025065
      6          8           0        0.375777    2.705672   -0.045563
      7          6           0       -1.168375    0.904856   -0.025323
      8          6           0       -1.411759   -0.437285   -0.003188
      9          6           0       -0.362043   -1.433745    0.022813
     10          8           0       -0.598250   -2.665295    0.043057
     11          1           0       -1.981767    1.623678   -0.044524
     12          1           0       -2.425585   -0.825804   -0.004127
 ---------------------------------------------------------------------

 SCF Done:  E(UB3LYP) =  -1300.89433263     A.U. after    3 cycles

 Alpha  occ. eigenvalues -- -101.42429-101.42418 -18.95124 -18.95122 -10.10523
 Alpha  occ. eigenvalues --  -10.10464 -10.10333 -10.10332 -10.04650 -10.04583
 Alpha  occ. eigenvalues --   -9.33881  -9.33869  -7.10328  -7.10316  -7.09413
 Alpha  occ. eigenvalues --   -7.09401  -7.09303  -7.09291  -0.87909  -0.87594
 Alpha  occ. eigenvalues --   -0.76373  -0.71667  -0.68707  -0.60014  -0.55854
 Alpha  occ. eigenvalues --   -0.46996  -0.45054  -0.36803  -0.34819  -0.32637
 Alpha  occ. eigenvalues --   -0.30481  -0.30154  -0.28071  -0.26334  -0.25594
 Alpha  occ. eigenvalues --   -0.25315  -0.22941  -0.20347  -0.19549  -0.17355
 Alpha  occ. eigenvalues --   -0.15593  -0.12367  -0.11786  -0.11525  -0.03804
 Alpha virt. eigenvalues --    0.10020   0.10656   0.10692   0.12300   0.13657
 Alpha virt. eigenvalues --    0.15036   0.15096   0.16485   0.16845   0.17978
 Alpha virt. eigenvalues --    0.18126   0.19387   0.19440   0.19661   0.20660

  Beta  occ. eigenvalues -- -101.42424-101.42414 -18.94383 -18.94381 -10.10391
  Beta  occ. eigenvalues --  -10.10331 -10.10243 -10.10242 -10.04541 -10.04473
  Beta  occ. eigenvalues --   -9.33877  -9.33865  -7.10332  -7.10320  -7.09392
  Beta  occ. eigenvalues --   -7.09380  -7.09301  -7.09290  -0.86682  -0.86313
  Beta  occ. eigenvalues --   -0.76088  -0.71545  -0.68226  -0.59772  -0.54834
  Beta  occ. eigenvalues --   -0.46571  -0.44670  -0.36594  -0.34412  -0.32378
  Beta  occ. eigenvalues --   -0.30390  -0.28759  -0.27322  -0.25811  -0.25105
  Beta  occ. eigenvalues --   -0.23264  -0.21882  -0.19500  -0.19480  -0.17322
  Beta  occ. eigenvalues --   -0.12566  -0.11357  -0.11085  -0.10831
  Beta virt. eigenvalues --    0.03457   0.10034   0.10728   0.12201   0.12321
  Beta virt. eigenvalues --    0.13697   0.15093   0.16533   0.16608   0.17512
  Beta virt. eigenvalues --    0.18050   0.18186   0.19533   0.19669   0.19728

 Mulliken charges and spin densities:
               1          2
     1  Cl   0.283851   0.005482
     2  C    0.590307   0.067829
     3  C    0.591660   0.067675
     4  Cl   0.283412   0.005421
     5  C   -1.255303   0.073198
     6  O   -0.347372   0.266544
     7  C    0.070009   0.094317
     8  C    0.070304   0.094170
     9  C   -1.252812   0.073284
    10  O   -0.347467   0.266458
    11  H    0.156710  -0.007185
    12  H    0.156701  -0.007194
 Sum of Mulliken charges =  -1.00000   1.00000

 Dipole moment (field-independent basis, Debye):
    X=             -3.1833    Y=              0.5729    Z=             -0.0351  Tot=              3.2346
 Quadrupole moment (field-independent basis, Debye-Ang):
   XX=            -83.0020   YY=           -110.4182   ZZ=            -74.2230
   XY=             -5.1537   XZ=              0.0235   YZ=              0.6084

  Exact polarizability: 134.018   5.528 163.385   0.475  -1.799  60.552
 Approx polarizability: 190.834  18.988 292.017   0.444  -3.462  90.522

                      1                      2                      3
                      A                      A                      A
 Frequencies --     87.9017               114.1766               208.8381
 Red. masses --     21.1339                 7.8996                31.3015
 Frc consts  --      0.0962                 0.0607                 0.8043
 IR Inten    --      0.0000                10.6543                 0.5200

                      4                      5                      6
                      A                      A                      A
 Frequencies --    230.8659               250.9458               323.9494
 Red. masses --      8.0415                18.9303                 5.8862
 Frc consts  --      0.2525                 0.7024                 0.3640
 IR Inten    --      0.3340                 1.8718                 0.0000

                      7                      8                      9
                      A                      A                      A
 Frequencies --    339.5598               358.0359               465.4790
 Red. masses --     19.4726                18.4874                11.6176
 Frc consts  --      1.3228                 1.3963                 1.4831
 IR Inten    --      1.0022                 0.0004                 1.2066

                     10                     11                     12
                      A                      A                      A
 Frequencies --    490.6061               534.3028               584.0486
 Red. masses --      7.0503                11.0956                 4.9110
 Frc consts  --      0.9998                 1.8663                 0.9870
 IR Inten    --      0.0000                26.9852                 0.5818

                     13                     14                     15
                      A                      A                      A
 Frequencies --    612.7558               714.8847               755.5913
 Red. masses --      2.4269                 8.9178                 8.4056
 Frc consts  --      0.5369                 2.6852                 2.8274
 IR Inten    --      3.8168                 0.0009                 0.0000

                     16                     17                     18
                      A                      A                      A
 Frequencies --    820.6463               863.1668               926.5998
 Red. masses --      1.9973                 9.8021                 9.2112
 Frc consts  --      0.7925                 4.3029                 4.6596
 IR Inten    --     39.9229                92.4462                72.4555

                     19                     20                     21
                      A                      A                      A
 Frequencies --    936.6565              1051.2551              1090.3689
 Red. masses --      1.2561                 4.2958                 2.1438
 Frc consts  --      0.6493                 2.7971                 1.5017
 IR Inten    --      0.0000                96.3953                 7.1461

                     22                     23                     24
                      A                      A                      A
 Frequencies --   1197.8158              1299.2808              1400.7617
 Red. masses --      1.9296                 2.5849                 3.0256
 Frc consts  --      1.6312                 2.5710                 3.4977
 IR Inten    --     24.3320                29.4495                57.4347

                     25                     26                     27
                      A                      A                      A
 Frequencies --   1468.6559              1520.7474              1541.3220
 Red. masses --      8.6046                11.8175                 8.0618
 Frc consts  --     10.9350                16.1024                11.2841
 IR Inten    --      1.1177                 0.0385               432.7401

                     28                     29                     30
                      A                      A                      A
 Frequencies --   1628.5131              3146.2745              3167.3290
 Red. masses --      7.5963                 1.0853                 1.0950
 Frc consts  --     11.8696                 6.3297                 6.4721
 IR Inten    --     47.6841                13.4381                30.9315

 - Thermochemistry -
 -------------------
 Temperature   298.150 Kelvin.  Pressure   1.00000 Atm.
 Atom     1 has atomic number 17 and mass  34.96885

 Molecular mass:   175.94318 amu.
 Principal axes and moments of inertia in atomic units:
                           1         2         3
     Eigenvalues --  1444.185291772.616373216.80165
           X            0.17876   0.98386  -0.00782
           Y            0.98376  -0.17860   0.01791
           Z           -0.01622   0.01089   0.99981
 This molecule is an asymmetric top.
 Rotational symmetry number  1.
 Warning -- assumption of classical behavior for rotation
           may cause significant error
 Rotational temperatures (Kelvin)      0.05997     0.04886     0.02693
 Rotational constants (GHZ):           1.24966     1.01812     0.56104
 Zero-point vibrational energy     168262.8 (Joules/Mol)
                                   40.21576 (Kcal/Mol)
 Warning -- explicit consideration of  13 degrees of freedom as
           vibrations may cause significant error
 Vibrational temperatures:    126.47   164.27   300.47   332.16   361.06
          (Kelvin)            466.09   488.55   515.13   669.72   705.87
                              768.74   840.32   881.62  1028.56  1087.13
                             1180.73  1241.90  1333.17  1347.64  1512.52
                             1568.80  1723.39  1869.38  2015.38  2113.07
                             2188.02  2217.62  2343.07  4526.79  4557.08

 Zero-point correction=                           0.064088 (Hartree/Particle)
 Thermal correction to Energy=                    0.072591
 Thermal correction to Enthalpy=                  0.073535
 Thermal correction to Gibbs Free Energy=         0.028980
 Sum of electronic and zero-point Energies=          -1300.830245
 Sum of electronic and thermal Energies=             -1300.821741
 Sum of electronic and thermal Enthalpies=           -1300.820797
 Sum of electronic and thermal Free Energies=        -1300.865353

                     E (Thermal)             CV                S
                      KCal/Mol        Cal/Mol-Kelvin    Cal/Mol-Kelvin
 Total                   45.552             30.817             93.775
 Electronic               0.000              0.000              1.377
 Translational            0.889              2.981             41.402
 Rotational               0.889              2.981             30.488
 Vibrational             43.774             24.855             20.507
 Vibration     1          0.601              1.958              3.706
 Vibration     2          0.607              1.938              3.197
 Vibration     3          0.642              1.827              2.054
 Vibration     4          0.653              1.794              1.872
 Vibration     5          0.663              1.761              1.724
 Vibration     6          0.709              1.628              1.290
 Vibration     7          0.719              1.596              1.214
 Vibration     8          0.733              1.559              1.131
 Vibration     9          0.823              1.327              0.750
 Vibration    10          0.846              1.271              0.682
 Vibration    11          0.889              1.174              0.578
 Vibration    12          0.941              1.066              0.478
 Vibration    13          0.972              1.005              0.428

 Optimization completed.
    -- Stationary point found.
 Normal termination of Gaussian 16 at Sat Jan  6 05:45:42 2024.
