 Gaussian 16, Revision A.03,
 Gaussian 16:  ES64L-G16RevA.03 25-Dec-2016

 --------------------------------------
 #P UB3LYP/6-311++G(d,p) nosym opt freq
 --------------------------------------

 -------
 Reduced
 -------
 Symbolic Z-matrix:
 Charge = -2 Multiplicity = 1

 SCF Done:  E(UB3LYP) =  -5685.87064989     A.U. after   41 cycles
 SCF Done:  E(UB3LYP) =  -5685.91107353     A.U. after   34 cycles
 SCF Done:  E(UB3LYP) =  -5685.94014025     A.U. after   23 cycles
 SCF Done:  E(UB3LYP) =  -5685.94796322     A.U. after   20 cycles
 SCF Done:  E(UB3LYP) =  -5685.95098430     A.U. after   21 cycles
 SCF Done:  E(UB3LYP) =  -5685.95266425     A.U. after   19 cycles
 SCF Done:  E(UB3LYP) =  -5685.95427026     A.U. after   21 cycles
 SCF Done:  E(UB3LYP) =  -5685.95556806     A.U. after   20 cycles
 SCF Done:  E(UB3LYP) =  -5685.95637147     A.U. after   19 cycles
 SCF Done:  E(UB3LYP) =  -5685.95671773     A.U. after   19 cycles
 SCF Done:  E(UB3LYP) =  -5685.95697523     A.U. after   17 cycles
 SCF Done:  E(UB3LYP) =  -5685.95697561     A.U. after   16 cycles
 SCF Done:  E(UB3LYP) =  -5685.95697580     A.U. after   16 cycles
 SCF Done:  E(UB3LYP) =  -5685.95697589     A.U. after   16 cycles
 SCF Done:  E(UB3LYP) =  -5685.95697596     A.U. after   16 cycles
 SCF Done:  E(UB3LYP) =  -5685.95697605     A.U. after   16 cycles
 SCF Done:  E(UB3LYP) =  -5685.95697612     A.U. after   13 cycles
 SCF Done:  E(UB3LYP) =  -5685.95697617     A.U. after   15 cycles
 SCF Done:  E(UB3LYP) =  -5685.95697621     A.U. after   16 cycles
 Optimization completed.
    -- Stationary point found.
 Normal termination of Gaussian 16 at Sun Dec 17 23:18:11 2023.

 ----------------------------------------------------------------------
 #P Geom=AllCheck Guess=TCheck SCRF=Check GenChk UB3LYP/6-311++G(d,p) F
 req
 ----------------------------------------------------------------------

 Structure from the checkpoint file:  "019-an.chk"
 -------
 Reduced
 -------
 Charge = -2 Multiplicity = 1

                          Input orientation:
 ---------------------------------------------------------------------
 Center     Atomic      Atomic             Coordinates (Angstroms)
 Number     Number       Type             X           Y           Z
 ---------------------------------------------------------------------
      1          6           0       -2.900522    0.400246    0.526437
      2          6           0       -1.916285   -0.413427   -0.339302
      3          6           0       -2.269151   -0.331537   -1.839037
      4          6           0       -0.445281   -0.167434   -0.023133
      5          6           0        0.267397    1.026798   -0.202214
      6         35           0       -0.634854    2.645352   -0.943102
      7          6           0        1.644289    1.279201    0.086847
      8          8           0        2.254111    2.397756   -0.096472
      9          6           0        2.310488    0.110223    0.626067
     10          6           0        1.608231   -1.078969    0.806070
     11         35           0        2.588428   -2.640740    1.550210
     12          6           0        0.234882   -1.336657    0.519409
     13          8           0       -0.356023   -2.465160    0.710509
     14          6           0        3.769652    0.271117    0.965921
     15          1           0       -2.844961    1.471983    0.322183
     16          1           0       -2.678746    0.244025    1.586916
     17          1           0       -3.935016    0.068634    0.345064
     18          1           0       -2.041338   -1.461137   -0.048596
     19          1           0       -2.160959    0.680349   -2.236387
     20          1           0       -1.612099   -0.993849   -2.411632
     21          1           0       -3.307564   -0.657935   -2.007009
     22          1           0        4.404361   -0.423577    0.398682
     23          1           0        4.051420    1.298597    0.725800
     24          1           0        3.969542    0.076142    2.028526
 ---------------------------------------------------------------------

 SCF Done:  E(UB3LYP) =  -5685.95697621     A.U. after    1 cycles

 Alpha  occ. eigenvalues -- -482.56204-482.55944 -62.21479 -62.21225 -56.03463
 Alpha  occ. eigenvalues --  -56.03211 -56.03167 -56.03134 -56.02910 -56.02878
 Alpha  occ. eigenvalues --  -18.76657 -18.76439  -9.93780  -9.93701  -9.93655
 Alpha  occ. eigenvalues --   -9.93493  -9.93051  -9.93050  -9.92744  -9.91186
 Alpha  occ. eigenvalues --   -9.90312  -9.90233  -8.42423  -8.42176  -6.25394
 Alpha  occ. eigenvalues --   -6.25151  -6.24401  -6.24299  -6.24148  -6.24052
 Alpha  occ. eigenvalues --   -2.36517  -2.36273  -2.36252  -2.36174  -2.36004
 Alpha  occ. eigenvalues --   -2.35931  -2.35383  -2.35382  -2.35133  -2.35132
 Alpha  occ. eigenvalues --   -0.68823  -0.68308  -0.57298  -0.55577  -0.52753
 Alpha  occ. eigenvalues --   -0.50159  -0.47755  -0.45550  -0.41689  -0.39825
 Alpha  occ. eigenvalues --   -0.34601  -0.28089  -0.27852  -0.23034  -0.20790
 Alpha  occ. eigenvalues --   -0.19500  -0.18115  -0.16774  -0.16684  -0.16206
 Alpha  occ. eigenvalues --   -0.13615  -0.13211  -0.11906  -0.11162  -0.10710
 Alpha  occ. eigenvalues --   -0.10230  -0.09224  -0.08414  -0.07610  -0.06409
 Alpha  occ. eigenvalues --   -0.04140  -0.03648  -0.02566  -0.02035   0.02496
 Alpha  occ. eigenvalues --    0.03681   0.05098   0.05523   0.12854
 Alpha virt. eigenvalues --    0.16195   0.18113   0.18207   0.19195   0.20235
 Alpha virt. eigenvalues --    0.20687   0.21763   0.21910   0.22647   0.22922
 Alpha virt. eigenvalues --    0.23143   0.24255   0.24485   0.24921   0.25145

  Beta  occ. eigenvalues -- -482.56204-482.55944 -62.21479 -62.21225 -56.03463
  Beta  occ. eigenvalues --  -56.03211 -56.03167 -56.03134 -56.02910 -56.02878
  Beta  occ. eigenvalues --  -18.76657 -18.76439  -9.93780  -9.93701  -9.93655
  Beta  occ. eigenvalues --   -9.93493  -9.93051  -9.93050  -9.92744  -9.91186
  Beta  occ. eigenvalues --   -9.90312  -9.90233  -8.42423  -8.42176  -6.25394
  Beta  occ. eigenvalues --   -6.25151  -6.24401  -6.24299  -6.24148  -6.24052
  Beta  occ. eigenvalues --   -2.36517  -2.36273  -2.36252  -2.36174  -2.36004
  Beta  occ. eigenvalues --   -2.35931  -2.35383  -2.35382  -2.35133  -2.35132
  Beta  occ. eigenvalues --   -0.68823  -0.68308  -0.57298  -0.55577  -0.52753
  Beta  occ. eigenvalues --   -0.50159  -0.47755  -0.45550  -0.41689  -0.39825
  Beta  occ. eigenvalues --   -0.34601  -0.28089  -0.27852  -0.23034  -0.20790
  Beta  occ. eigenvalues --   -0.19500  -0.18115  -0.16774  -0.16684  -0.16206
  Beta  occ. eigenvalues --   -0.13615  -0.13211  -0.11906  -0.11162  -0.10710
  Beta  occ. eigenvalues --   -0.10230  -0.09224  -0.08414  -0.07610  -0.06409
  Beta  occ. eigenvalues --   -0.04140  -0.03648  -0.02566  -0.02035   0.02496
  Beta  occ. eigenvalues --    0.03681   0.05098   0.05523   0.12854
  Beta virt. eigenvalues --    0.16195   0.18113   0.18207   0.19195   0.20235
  Beta virt. eigenvalues --    0.20687   0.21763   0.21910   0.22647   0.22922
  Beta virt. eigenvalues --    0.23143   0.24255   0.24485   0.24921   0.25145

 Mulliken charges and spin densities:
               1          2
     1  C   -0.725908   0.000000
     2  C    0.239581  -0.000000
     3  C   -0.726278   0.000000
     4  C    1.242099   0.000000
     5  C    0.420472   0.000000
     6  Br  -0.352577  -0.000000
     7  C   -1.607768  -0.000000
     8  O   -0.464208   0.000000
     9  C    1.265167   0.000000
    10  C    0.066919   0.000000
    11  Br  -0.410521  -0.000000
    12  C   -1.243615  -0.000000
    13  O   -0.453188   0.000000
    14  C   -0.507472  -0.000000
    15  H    0.130208  -0.000000
    16  H    0.137705  -0.000000
    17  H    0.057170   0.000000
    18  H    0.215479   0.000000
    19  H    0.130186  -0.000000
    20  H    0.137770  -0.000000
    21  H    0.057099   0.000000
    22  H    0.102519  -0.000000
    23  H    0.186553   0.000000
    24  H    0.102609  -0.000000
 Sum of Mulliken charges =  -2.00000  -0.00000

 Dipole moment (field-independent basis, Debye):
    X=             -7.5621    Y=              0.0359    Z=             -2.4464  Tot=              7.9481
 Quadrupole moment (field-independent basis, Debye-Ang):
   XX=           -161.9649   YY=           -179.6404   ZZ=           -130.1403
   XY=             -4.3925   XZ=             -9.5258   YZ=             16.5259

  Exact polarizability: 295.857 -31.326 249.747  44.671 -34.634 187.343
 Approx polarizability: 397.704 -21.557 395.795  53.180 -59.071 255.723

                      1                      2                      3
                      A                      A                      A
 Frequencies --     45.9982                58.0344                79.2037
 Red. masses --      6.3637                 4.3747                 1.5386
 Frc consts  --      0.0079                 0.0087                 0.0057
 IR Inten    --      0.4189                 3.8610                 3.2145

                      4                      5                      6
                      A                      A                      A
 Frequencies --     84.0049               115.1587               146.7807
 Red. masses --      3.5904                 1.9119                 9.5410
 Frc consts  --      0.0149                 0.0149                 0.1211
 IR Inten    --      6.7037                 0.2879                 7.0447

                      7                      8                      9
                      A                      A                      A
 Frequencies --    160.2269               162.1202               180.9845
 Red. masses --      4.1854                 5.7633                55.8007
 Frc consts  --      0.0633                 0.0892                 1.0769
 IR Inten    --      1.3113                 1.3795                 0.0131

                     10                     11                     12
                      A                      A                      A
 Frequencies --    203.8979               214.7422               223.8304
 Red. masses --      1.4265                 1.1549                 3.7535
 Frc consts  --      0.0349                 0.0314                 0.1108
 IR Inten    --      0.8436                 0.0428                 4.6864

                     13                     14                     15
                      A                      A                      A
 Frequencies --    235.1889               257.6167               291.5540
 Red. masses --      3.9248                 2.3703                 5.1924
 Frc consts  --      0.1279                 0.0927                 0.2600
 IR Inten    --      0.1973                 1.8228                 0.8641

                     16                     17                     18
                      A                      A                      A
 Frequencies --    308.7011               347.9909               393.4403
 Red. masses --     11.8163                 3.7432                 5.0379
 Frc consts  --      0.6635                 0.2671                 0.4595
 IR Inten    --      2.0911                 0.4697                 1.1573

                     19                     20                     21
                      A                      A                      A
 Frequencies --    428.3656               435.6983               488.8284
 Red. masses --      4.7267                 4.2092                 5.8465
 Frc consts  --      0.5110                 0.4708                 0.8231
 IR Inten    --      8.7280                 2.4361                 1.5230

                     22                     23                     24
                      A                      A                      A
 Frequencies --    528.9205               551.7422               669.8104
 Red. masses --      3.8891                 7.0433                 6.6037
 Frc consts  --      0.6410                 1.2633                 1.7456
 IR Inten    --      3.6214                 1.8053               147.3375

                     25                     26                     27
                      A                      A                      A
 Frequencies --    701.8656               705.4755               736.1577
 Red. masses --      8.5463                 5.0198                 9.6850
 Frc consts  --      2.4805                 1.4720                 3.0924
 IR Inten    --      1.5062                 7.5219                 0.8043

                     28                     29                     30
                      A                      A                      A
 Frequencies --    773.0823               856.7423               921.2227
 Red. masses --      7.9225                 3.4710                 3.1975
 Frc consts  --      2.7897                 1.5011                 1.5988
 IR Inten    --     14.9594                69.4291                35.0192

                     31                     32                     33
                      A                      A                      A
 Frequencies --    924.4014               947.4796              1000.9841
 Red. masses --      1.2718                 1.3961                 2.0018
 Frc consts  --      0.6403                 0.7384                 1.1818
 IR Inten    --      0.0197                 2.8946               116.5268

                     34                     35                     36
                      A                      A                      A
 Frequencies --   1040.4664              1057.2476              1097.2833
 Red. masses --      1.4125                 3.7874                 3.5341
 Frc consts  --      0.9010                 2.4942                 2.5070
 IR Inten    --      0.5256                93.6436               162.1391

                     37                     38                     39
                      A                      A                      A
 Frequencies --   1109.2563              1115.6560              1178.8265
 Red. masses --      2.9197                 2.6064                 3.0404
 Frc consts  --      2.1167                 1.9114                 2.4893
 IR Inten    --    136.4965                16.1780                11.0702

                     40                     41                     42
                      A                      A                      A
 Frequencies --   1192.2643              1323.2088              1354.4085
 Red. masses --      2.2058                 2.6895                 1.6309
 Frc consts  --      1.8474                 2.7745                 1.7627
 IR Inten    --     27.0017                 4.6708               121.3574

                     43                     44                     45
                      A                      A                      A
 Frequencies --   1364.1491              1371.3622              1387.5927
 Red. masses --      1.2153                 2.9891                 1.4769
 Frc consts  --      1.3325                 3.3121                 1.6754
 IR Inten    --      5.5806                43.0881                13.8829

                     46                     47                     48
                      A                      A                      A
 Frequencies --   1398.7106              1412.1419              1417.8225
 Red. masses --      1.2194                 3.0373                 4.0970
 Frc consts  --      1.4056                 3.5686                 4.8524
 IR Inten    --      8.3543               198.9717                 5.0344

                     49                     50                     51
                      A                      A                      A
 Frequencies --   1448.0432              1474.6679              1476.7766
 Red. masses --      5.1316                 1.0839                 1.0398
 Frc consts  --      6.3397                 1.3888                 1.3361
 IR Inten    --    714.3429                30.0151                 0.0128

                     52                     53                     54
                      A                      A                      A
 Frequencies --   1487.1080              1492.0074              1496.1777
 Red. masses --      1.0488                 1.0510                 1.0539
 Frc consts  --      1.3666                 1.3784                 1.3901
 IR Inten    --      2.0994                 2.1352                 0.1894

                     55                     56                     57
                      A                      A                      A
 Frequencies --   1509.9971              1582.5259              2950.0984
 Red. masses --      1.0573                11.2573                 1.0555
 Frc consts  --      1.4204                16.6106                 5.4123
 IR Inten    --      1.6584                13.6772                79.5664

                     58                     59                     60
                      A                      A                      A
 Frequencies --   2961.4593              2967.1709              2991.0748
 Red. masses --      1.0545                 1.0397                 1.0989
 Frc consts  --      5.4490                 5.3930                 5.7923
 IR Inten    --    500.5433               122.5507                96.5842

                     61                     62                     63
                      A                      A                      A
 Frequencies --   3019.2573              3042.8692              3047.4385
 Red. masses --      1.0818                 1.0775                 1.0806
 Frc consts  --      5.8101                 5.8780                 5.9129
 IR Inten    --     21.2765                43.0188                52.9540

                     64                     65                     66
                      A                      A                      A
 Frequencies --   3083.4490              3084.8656              3090.2153
 Red. masses --      1.0948                 1.1000                 1.0976
 Frc consts  --      6.1327                 6.1674                 6.1757
 IR Inten    --      9.6896                 3.6228                30.6864

 - Thermochemistry -
 -------------------
 Temperature   298.150 Kelvin.  Pressure   1.00000 Atm.
 Atom     1 has atomic number  6 and mass  12.00000

 Molecular mass:   319.90475 amu.
 Principal axes and moments of inertia in atomic units:
                           1         2         3
     Eigenvalues --  2687.083177687.531279965.78457
           X           -0.57887   0.77713  -0.24693
           Y            0.72266   0.62921   0.28612
           Z           -0.37772   0.01283   0.92583
 This molecule is an asymmetric top.
 Rotational symmetry number  1.
 Warning -- assumption of classical behavior for rotation
           may cause significant error
 Rotational temperatures (Kelvin)      0.03223     0.01127     0.00869
 Rotational constants (GHZ):           0.67164     0.23476     0.18109
 Zero-point vibrational energy     449830.9 (Joules/Mol)
                                  107.51216 (Kcal/Mol)
 Warning -- explicit consideration of  23 degrees of freedom as
           vibrations may cause significant error
 Vibrational temperatures:     66.18    83.50   113.96   120.86   165.69
          (Kelvin)            211.18   230.53   233.25   260.40   293.36
                              308.97   322.04   338.38   370.65   419.48
                              444.15   500.68   566.07   616.32   626.87
                              703.32   761.00   793.83   963.71  1009.83
                             1015.02  1059.17  1112.29  1232.66  1325.43
                             1330.01  1363.21  1440.19  1497.00  1521.14
                             1578.75  1595.97  1605.18  1696.07  1715.40
                             1903.80  1948.69  1962.71  1973.08  1996.44
                             2012.43  2031.76  2039.93  2083.41  2121.72
                             2124.75  2139.62  2146.67  2152.67  2172.55
                             2276.90  4244.53  4260.88  4269.10  4303.49
                             4344.04  4378.01  4384.58  4436.40  4438.43
                             4446.13

 Zero-point correction=                           0.171332 (Hartree/Particle)
 Thermal correction to Energy=                    0.186917
 Thermal correction to Enthalpy=                  0.187861
 Thermal correction to Gibbs Free Energy=         0.126959
 Sum of electronic and zero-point Energies=          -5685.785645
 Sum of electronic and thermal Energies=             -5685.770059
 Sum of electronic and thermal Enthalpies=           -5685.769115
 Sum of electronic and thermal Free Energies=        -5685.830018

                     E (Thermal)             CV                S
                      KCal/Mol        Cal/Mol-Kelvin    Cal/Mol-Kelvin
 Total                  117.292             54.868            128.180
 Electronic               0.000              0.000              0.000
 Translational            0.889              2.981             43.184
 Rotational               0.889              2.981             33.687
 Vibrational            115.515             48.906             51.310
 Vibration     1          0.595              1.979              4.982
 Vibration     2          0.596              1.974              4.523
 Vibration     3          0.600              1.963              3.911
 Vibration     4          0.601              1.960              3.795
 Vibration     5          0.608              1.937              3.180
 Vibration     6          0.617              1.906              2.714
 Vibration     7          0.622              1.891              2.547
 Vibration     8          0.622              1.889              2.525
 Vibration     9          0.630              1.866              2.318
 Vibration    10          0.640              1.834              2.098
 Vibration    11          0.645              1.819              2.003
 Vibration    12          0.649              1.805              1.928
 Vibration    13          0.655              1.787              1.839
 Vibration    14          0.667              1.750              1.678
 Vibration    15          0.687              1.689              1.465
 Vibration    16          0.698              1.657              1.369
 Vibration    17          0.726              1.579              1.175
 Vibration    18          0.761              1.484              0.987
 Vibration    19          0.790              1.408              0.864
 Vibration    20          0.796              1.392              0.840
 Vibration    21          0.845              1.275              0.687
 Vibration    22          0.884              1.186              0.590
 Vibration    23          0.907              1.136              0.541

 Optimization completed.
    -- Stationary point found.
 Normal termination of Gaussian 16 at Sun Dec 17 23:56:24 2023.
