 Q-Chem 5.4, Q-Chem, Inc., Pleasanton, CA (2021)
 Q-Chem 5.4.0 for Intel X86 EM64T Linux

User input:
--------------------------------------------------------------
$molecule
0 1
C                 -0.2162390000      1.7106610000      4.8902230000
C                  1.0275190000      1.1263400000      4.3397260000
C                  1.4329540000      1.2395880000      3.0610440000
C                  0.5227040000      1.9940070000      2.1241300000
C                 -0.7513320000      2.5231450000      2.6480140000
C                 -1.1402710000      2.4103460000      3.9357070000
O                 -0.4501790000      1.6239450000      6.0840270000
O                  0.7942040000      2.1621370000      0.9433090000
S                 -2.5956470000      3.2501240000      4.4818130000
C                 -3.4352220000      2.1119570000      5.7021970000
C                 -4.6396760000      2.8945220000      6.2284840000
C                 -3.8345150000      0.7874880000      5.0578690000
C                  2.7432870000      0.6488920000      2.5347360000
C                  3.5176440000     -0.0829990000      3.6464500000
C                  3.6437840000      1.7857770000      1.9886750000
C                  2.4403600000     -0.3704670000      1.4075020000
H                  1.6114920000      0.6032570000      5.0860700000
H                 -1.3688800000      3.0223880000      1.9098750000
H                 -2.7192530000      1.9453560000      6.5033460000
H                 -4.3363210000      3.8267110000      6.7100360000
H                 -5.1671010000      2.2879260000      6.9701600000
H                 -5.3456210000      3.1324590000      5.4272330000
H                 -2.9674390000      0.2383200000      4.6851630000
H                 -4.5246360000      0.9447050000      4.2244720000
H                 -4.3321320000      0.1549550000      5.8007780000
H                  2.9491880000     -0.9206090000      4.0603100000
H                  3.7920370000      0.5872160000      4.4658360000
H                  4.4429580000     -0.4882940000      3.2299980000
H                  3.8674640000      2.5158280000      2.7722010000
H                  3.1753870000      2.3025200000      1.1526490000
H                  4.5923950000      1.3625000000      1.6458580000
H                  1.8041320000     -1.1809370000      1.7755410000
H                  3.3777720000     -0.8139820000      1.0595730000
H                  1.9483240000      0.1028840000      0.5594330000
$end
$rem
MAX_SCF_CYCLES=200
BASIS  =  6-311++G(d,p)
GUI  =  2
JOB_TYPE  =  SP
METHOD  =  B3LYP
SOLVENT_METHOD = PCM
$end
$pcm
theory = CPCM
$end
$solvent
dielectric 37.219
opticaldielectric 1.43
$end

--------------------------------------------------------------

             Standard Nuclear Orientation (Angstroms)
    I     Atom           X                Y                Z
 ----------------------------------------------------------------
    1      C      -0.2162390000     1.7106610000     4.8902230000
    2      C       1.0275190000     1.1263400000     4.3397260000
    3      C       1.4329540000     1.2395880000     3.0610440000
    4      C       0.5227040000     1.9940070000     2.1241300000
    5      C      -0.7513320000     2.5231450000     2.6480140000
    6      C      -1.1402710000     2.4103460000     3.9357070000
    7      O      -0.4501790000     1.6239450000     6.0840270000
    8      O       0.7942040000     2.1621370000     0.9433090000
    9      S      -2.5956470000     3.2501240000     4.4818130000
   10      C      -3.4352220000     2.1119570000     5.7021970000
   11      C      -4.6396760000     2.8945220000     6.2284840000
   12      C      -3.8345150000     0.7874880000     5.0578690000
   13      C       2.7432870000     0.6488920000     2.5347360000
   14      C       3.5176440000    -0.0829990000     3.6464500000
   15      C       3.6437840000     1.7857770000     1.9886750000
   16      C       2.4403600000    -0.3704670000     1.4075020000
   17      H       1.6114920000     0.6032570000     5.0860700000
   18      H      -1.3688800000     3.0223880000     1.9098750000
   19      H      -2.7192530000     1.9453560000     6.5033460000
   20      H      -4.3363210000     3.8267110000     6.7100360000
   21      H      -5.1671010000     2.2879260000     6.9701600000
   22      H      -5.3456210000     3.1324590000     5.4272330000
   23      H      -2.9674390000     0.2383200000     4.6851630000
   24      H      -4.5246360000     0.9447050000     4.2244720000
   25      H      -4.3321320000     0.1549550000     5.8007780000
   26      H       2.9491880000    -0.9206090000     4.0603100000
   27      H       3.7920370000     0.5872160000     4.4658360000
   28      H       4.4429580000    -0.4882940000     3.2299980000
   29      H       3.8674640000     2.5158280000     2.7722010000
   30      H       3.1753870000     2.3025200000     1.1526490000
   31      H       4.5923950000     1.3625000000     1.6458580000
   32      H       1.8041320000    -1.1809370000     1.7755410000
   33      H       3.3777720000    -0.8139820000     1.0595730000
   34      H       1.9483240000     0.1028840000     0.5594330000
 ----------------------------------------------------------------

    9   -1055.0631382383      3.66e-06  Convergence criterion met
 Total energy in the final basis set =    -1055.0631382383

                    Orbital Energies (a.u.)
 --------------------------------------------------------------

 Alpha MOs
 -- Occupied --
-88.8630 -19.1432 -19.1379 -10.2917 -10.2853 -10.2403 -10.2168 -10.2120
-10.2051 -10.2012 -10.2006 -10.1662 -10.1641 -10.1580 -10.1572 -10.1571
 -7.9492  -5.9131  -5.9090  -5.9034  -1.0760  -1.0695  -0.8731  -0.8437
 -0.8164  -0.7799  -0.7264  -0.6963  -0.6939  -0.6871  -0.6868  -0.6305
 -0.6098  -0.5738  -0.5518  -0.5267  -0.4970  -0.4853  -0.4722  -0.4610
 -0.4573  -0.4457  -0.4428  -0.4398  -0.4370  -0.4284  -0.4178  -0.4052
 -0.3943  -0.3861  -0.3812  -0.3759  -0.3667  -0.3593  -0.3557  -0.3539
 -0.3423  -0.3399  -0.3366  -0.3099  -0.2942  -0.2861  -0.2742  -0.2426

          Ground-State Mulliken Net Atomic Charges

     Atom                 Charge (a.u.)
  ----------------------------------------
      1 C                    -0.620585
      2 C                    -0.503343
      3 C                     1.157814
      4 C                    -0.858899
      5 C                    -0.528772
      6 C                     1.715514
      7 O                    -0.255386
      8 O                    -0.260999
      9 S                    -0.602323
     10 C                     0.260496
     11 C                    -0.689305
     12 C                    -0.718569
     13 C                     0.566198
     14 C                    -0.540124
     15 C                    -0.726809
     16 C                    -0.723990
     17 H                     0.270922
     18 H                     0.273774
     19 H                     0.273102
     20 H                     0.172984
     21 H                     0.166450
     22 H                     0.165517
     23 H                     0.155742
     24 H                     0.189145
     25 H                     0.154807
     26 H                     0.149633
     27 H                     0.149812
     28 H                     0.190538
     29 H                     0.154626
     30 H                     0.177671
     31 H                     0.176990
     32 H                     0.156164
     33 H                     0.174961
     34 H                     0.176246
  ----------------------------------------
  Sum of atomic charges =     0.000000

                    Cartesian Multipole Moments
 -----------------------------------------------------------------
    Charge (ESU x 10^10)
                -0.0000
    Dipole Moment (Debye)
         X      -0.2215      Y      -2.3413      Z       1.2877
       Tot       2.6812
    Quadrupole Moments (Debye-Ang)
        XX     -89.6117     XY      -1.7040     YY    -114.0383
        XZ      -4.3995     YZ      -5.2433     ZZ    -110.0270

 Total job time:  97.44s(wall), 404.79s(cpu)
        *  Thank you very much for using Q-Chem.  Have a nice day.  *
