 Q-Chem 5.4, Q-Chem, Inc., Pleasanton, CA (2021)
 Q-Chem 5.4.0 for Intel X86 EM64T Linux

User input:
--------------------------------------------------------------
$molecule
-2 1
O                 -2.6798310000     -2.5818080000      0.5388750000
C                 -2.5697900000     -1.2249050000      0.3987740000
C                 -3.6981820000     -0.4383120000      0.4088890000
C                 -3.6040250000      0.9762050000      0.2643200000
C                 -2.3824340000      1.5896770000      0.1111470000
O                 -2.3116260000      2.9494510000     -0.0264220000
C                 -1.1713280000      0.8069220000      0.0944240000
C                  0.0956860000      1.4373440000     -0.0637470000
O                  0.1841470000      2.7669010000     -0.1996070000
C                  1.2668120000      0.6273520000     -0.0748340000
C                  2.5697900000      1.2248900000     -0.2326330000
O                  2.6798080000      2.5818010000     -0.3728290000
C                  3.6981910000      0.4383230000     -0.2426760000
C                  3.6040320000     -0.9761980000     -0.0980710000
C                  2.3824380000     -1.5896760000      0.0550590000
O                  2.3116000000     -2.9494370000      0.1926280000
C                  1.1713280000     -0.8069020000      0.0717320000
C                 -0.0956650000     -1.4372890000      0.2299280000
O                 -0.1840920000     -2.7668810000      0.3658830000
C                 -1.2668110000     -0.6273370000      0.2409680000
H                 -1.7230640000     -2.9124450000      0.4976340000
H                 -4.6658550000     -0.9172450000      0.5294940000
H                 -4.4988000000      1.5923330000      0.2730080000
H                 -1.3203760000      3.1365540000     -0.1205510000
H                  1.7230500000      2.9123240000     -0.3317800000
H                  4.6658600000      0.9172640000     -0.3632730000
H                  4.4988120000     -1.5923180000     -0.1067210000
H                  1.3203230000     -3.1365900000      0.2866730000
$end
$rem
MAX_SCF_CYCLES=200
BASIS  =  6-311++G(d,p)
GUI  =  2
JOB_TYPE  =  SP
METHOD  =  B3LYP
SOLVENT_METHOD = PCM
$end
$pcm
theory = CPCM
$end
$solvent
dielectric 37.219
opticaldielectric 1.43
$end

--------------------------------------------------------------

             Standard Nuclear Orientation (Angstroms)
    I     Atom           X                Y                Z
 ----------------------------------------------------------------
    1      O      -2.6798310000    -2.5818080000     0.5388750000
    2      C      -2.5697900000    -1.2249050000     0.3987740000
    3      C      -3.6981820000    -0.4383120000     0.4088890000
    4      C      -3.6040250000     0.9762050000     0.2643200000
    5      C      -2.3824340000     1.5896770000     0.1111470000
    6      O      -2.3116260000     2.9494510000    -0.0264220000
    7      C      -1.1713280000     0.8069220000     0.0944240000
    8      C       0.0956860000     1.4373440000    -0.0637470000
    9      O       0.1841470000     2.7669010000    -0.1996070000
   10      C       1.2668120000     0.6273520000    -0.0748340000
   11      C       2.5697900000     1.2248900000    -0.2326330000
   12      O       2.6798080000     2.5818010000    -0.3728290000
   13      C       3.6981910000     0.4383230000    -0.2426760000
   14      C       3.6040320000    -0.9761980000    -0.0980710000
   15      C       2.3824380000    -1.5896760000     0.0550590000
   16      O       2.3116000000    -2.9494370000     0.1926280000
   17      C       1.1713280000    -0.8069020000     0.0717320000
   18      C      -0.0956650000    -1.4372890000     0.2299280000
   19      O      -0.1840920000    -2.7668810000     0.3658830000
   20      C      -1.2668110000    -0.6273370000     0.2409680000
   21      H      -1.7230640000    -2.9124450000     0.4976340000
   22      H      -4.6658550000    -0.9172450000     0.5294940000
   23      H      -4.4988000000     1.5923330000     0.2730080000
   24      H      -1.3203760000     3.1365540000    -0.1205510000
   25      H       1.7230500000     2.9123240000    -0.3317800000
   26      H       4.6658600000     0.9172640000    -0.3632730000
   27      H       4.4988120000    -1.5923180000    -0.1067210000
   28      H       1.3203230000    -3.1365900000     0.2866730000
 ----------------------------------------------------------------

    9    -990.2561245602      1.19e-06  Convergence criterion met
 Total energy in the final basis set =     -990.2561245602

                    Orbital Energies (a.u.)
 --------------------------------------------------------------

 Alpha MOs
 -- Occupied --
-19.1105 -19.1105 -19.1105 -19.1105 -19.0658 -19.0658 -10.2091 -10.2091
-10.2091 -10.2091 -10.2031 -10.2031 -10.1602 -10.1601 -10.1598 -10.1598
-10.1471 -10.1471 -10.1466 -10.1466  -1.0322  -1.0305  -1.0241  -1.0230
 -0.9639  -0.9620  -0.8394  -0.8177  -0.7690  -0.7252  -0.7243  -0.7075
 -0.6610  -0.6284  -0.6146  -0.5785  -0.5643  -0.5296  -0.5068  -0.5045
 -0.4953  -0.4928  -0.4875  -0.4500  -0.4312  -0.4208  -0.4137  -0.4051
 -0.4016  -0.3946  -0.3935  -0.3889  -0.3860  -0.3836  -0.3812  -0.3684
 -0.3469  -0.3454  -0.3446  -0.3364  -0.3304  -0.3228  -0.2901  -0.2834
 -0.2486  -0.2477  -0.2339  -0.2298  -0.2075  -0.1880  -0.1271

          Ground-State Mulliken Net Atomic Charges

     Atom                 Charge (a.u.)
  ----------------------------------------
      1 O                    -0.485293
      2 C                    -0.323351
      3 C                    -0.229404
      4 C                    -0.226988
      5 C                    -0.321439
      6 O                    -0.485177
      7 C                     0.432431
      8 C                    -0.263576
      9 O                    -0.738299
     10 C                     0.433820
     11 C                    -0.322730
     12 O                    -0.485323
     13 C                    -0.229378
     14 C                    -0.228787
     15 C                    -0.321421
     16 O                    -0.485155
     17 C                     0.433599
     18 C                    -0.263486
     19 O                    -0.738269
     20 C                     0.433891
     21 H                     0.418753
     22 H                     0.184874
     23 H                     0.185073
     24 H                     0.418475
     25 H                     0.418807
     26 H                     0.184898
     27 H                     0.185006
     28 H                     0.418446
  ----------------------------------------
  Sum of atomic charges =    -2.000000

                    Cartesian Multipole Moments
 -----------------------------------------------------------------
    Charge (ESU x 10^10)
                -9.6064
    Dipole Moment (Debye)
         X      -0.0005      Y      -0.0001      Z      -0.7989
       Tot       0.7989
    Quadrupole Moments (Debye-Ang)
        XX    -171.4001     XY      -0.7397     YY    -187.3056
        XZ       3.5700     YZ       6.0127     ZZ    -126.7648

 Total job time:  107.24s(wall), 419.40s(cpu)
        *  Thank you very much for using Q-Chem.  Have a nice day.  *
