 Gaussian 16, Revision A.03,
 Gaussian 16:  ES64L-G16RevA.03 25-Dec-2016

 ----------------------------------------------------------------------
 #P UB3LYP/6-311++G(d,p) nosym opt freq SCRF=(PCM,Solvent=n,n-DiMethylF
 ormamide)
 ----------------------------------------------------------------------

 -------
 Radical
 -------
 Symbolic Z-matrix:
 Charge = -1 Multiplicity = 2

 SCF Done:  E(UB3LYP) =  -883.247453991     A.U. after   19 cycles
 SCF Done:  E(UB3LYP) =  -883.247694948     A.U. after   16 cycles
 SCF Done:  E(UB3LYP) =  -883.248452579     A.U. after   16 cycles
 SCF Done:  E(UB3LYP) =  -883.248496221     A.U. after   15 cycles
 SCF Done:  E(UB3LYP) =  -883.248562799     A.U. after   13 cycles
 SCF Done:  E(UB3LYP) =  -883.248567707     A.U. after   11 cycles
 SCF Done:  E(UB3LYP) =  -883.248568592     A.U. after   12 cycles
 SCF Done:  E(UB3LYP) =  -883.248568721     A.U. after   10 cycles
 SCF Done:  E(UB3LYP) =  -883.248568776     A.U. after   10 cycles
 Optimization completed.
    -- Stationary point found.
 Normal termination of Gaussian 16 at Sat Feb 10 13:31:42 2024.

 ----------------------------------------------------------------------
 #P Geom=AllCheck Guess=TCheck SCRF=Check GenChk UB3LYP/6-311++G(d,p) F
 req
 ----------------------------------------------------------------------

 Structure from the checkpoint file:  "113-rad.chk"
 -------
 Radical
 -------
 Charge = -1 Multiplicity = 2

                          Input orientation:
 ---------------------------------------------------------------------
 Center     Atomic      Atomic             Coordinates (Angstroms)
 Number     Number       Type             X           Y           Z
 ---------------------------------------------------------------------
      1          8           0        1.243243    1.412916    2.268515
      2          6           0        0.676728    0.824751    1.286983
      3          6           0       -0.738970    0.605298    1.270236
      4          6           0       -1.451609    0.084022    0.199251
      5          7           0       -2.845864   -0.031652    0.222113
      6          6           0       -3.568080    0.543165    1.360332
      7          6           0       -5.091755    0.348817    1.215007
      8          6           0       -5.504073    0.298844   -0.258342
      9          6           0       -4.840910   -0.913810   -0.945302
     10          6           0       -3.488651   -1.252272   -0.289108
     11          6           0       -0.714481   -0.238904   -1.034112
     12          8           0       -1.303521   -0.596887   -2.109716
     13          6           0        0.710854   -0.120824   -0.977472
     14          6           0        1.428650    0.358306    0.111853
     15          7           0        2.813272    0.510113    0.075356
     16          6           0        3.497877    0.351813   -1.210930
     17          6           0        4.981463    0.694298   -1.076696
     18          6           0        5.700407   -0.285572   -0.123738
     19          6           0        4.722442   -0.824322    0.940817
     20          6           0        3.632379    0.201010    1.270435
     21          1           0       -1.251071    0.912621    2.173201
     22          1           0       -3.328826    1.610426    1.406276
     23          1           0       -3.236426    0.099233    2.313859
     24          1           0       -5.601635    1.158690    1.743703
     25          1           0       -5.398690   -0.581704    1.704661
     26          1           0       -6.592499    0.247763   -0.353586
     27          1           0       -5.188276    1.224511   -0.750477
     28          1           0       -5.492472   -1.791710   -0.876407
     29          1           0       -4.696934   -0.706782   -2.009851
     30          1           0       -2.823243   -1.720574   -1.006310
     31          1           0       -3.639482   -1.954681    0.547405
     32          1           0        1.223634   -0.421938   -1.882498
     33          1           0        3.397425   -0.674393   -1.603392
     34          1           0        3.018994    1.012317   -1.939708
     35          1           0        5.442462    0.680847   -2.067864
     36          1           0        5.070170    1.719512   -0.702968
     37          1           0        6.540657    0.223725    0.357906
     38          1           0        6.124606   -1.120222   -0.690259
     39          1           0        5.255473   -1.086403    1.859710
     40          1           0        4.244566   -1.743121    0.584334
     41          1           0        2.977414   -0.172960    2.051806
     42          1           0        4.094752    1.115728    1.660995
 ---------------------------------------------------------------------

 SCF Done:  E(UB3LYP) =  -883.248568776     A.U. after    1 cycles

 Alpha  occ. eigenvalues --  -19.05892 -19.05793 -14.31650 -14.31514 -10.20821
 Alpha  occ. eigenvalues --  -10.20784 -10.19305 -10.19225 -10.19148 -10.19040
 Alpha  occ. eigenvalues --  -10.18637 -10.18243 -10.16328 -10.16290 -10.16142
 Alpha  occ. eigenvalues --  -10.16075 -10.15973 -10.15778 -10.13905 -10.13758
 Alpha  occ. eigenvalues --   -0.98197  -0.97790  -0.93114  -0.93037  -0.81352
 Alpha  occ. eigenvalues --   -0.79769  -0.77333  -0.75056  -0.74715  -0.71734
 Alpha  occ. eigenvalues --   -0.67729  -0.65713  -0.63585  -0.62733  -0.61927
 Alpha  occ. eigenvalues --   -0.58026  -0.55786  -0.53523  -0.52472  -0.50585
 Alpha  occ. eigenvalues --   -0.49573  -0.49178  -0.48441  -0.46881  -0.44807
 Alpha  occ. eigenvalues --   -0.43735  -0.42772  -0.42408  -0.41278  -0.40861
 Alpha  occ. eigenvalues --   -0.40250  -0.40046  -0.39661  -0.39314  -0.38676
 Alpha  occ. eigenvalues --   -0.38027  -0.37807  -0.36929  -0.36297  -0.35803
 Alpha  occ. eigenvalues --   -0.35415  -0.34666  -0.33575  -0.33003  -0.31912
 Alpha  occ. eigenvalues --   -0.31529  -0.31433  -0.31258  -0.28006  -0.27566
 Alpha  occ. eigenvalues --   -0.22813  -0.22650  -0.21436  -0.19056  -0.13631
 Alpha virt. eigenvalues --   -0.00692  -0.00123   0.00892   0.00927   0.01366
 Alpha virt. eigenvalues --    0.01439   0.01717   0.02065   0.02755   0.03281
 Alpha virt. eigenvalues --    0.03520   0.03785   0.03949   0.04359   0.04630

  Beta  occ. eigenvalues --  -19.05300 -19.05256 -14.31485 -14.31381 -10.20620
  Beta  occ. eigenvalues --  -10.20579 -10.19157 -10.19124 -10.19048 -10.19034
  Beta  occ. eigenvalues --  -10.18634 -10.18237 -10.16326 -10.16289 -10.16142
  Beta  occ. eigenvalues --  -10.16070 -10.15973 -10.15778 -10.13940 -10.13807
  Beta  occ. eigenvalues --   -0.97256  -0.96811  -0.92811  -0.92671  -0.81029
  Beta  occ. eigenvalues --   -0.79692  -0.77099  -0.75026  -0.74691  -0.71575
  Beta  occ. eigenvalues --   -0.67086  -0.65620  -0.63518  -0.62686  -0.61563
  Beta  occ. eigenvalues --   -0.57823  -0.55494  -0.53429  -0.52383  -0.50492
  Beta  occ. eigenvalues --   -0.49443  -0.48995  -0.48179  -0.46718  -0.44643
  Beta  occ. eigenvalues --   -0.43619  -0.42569  -0.42270  -0.41055  -0.40694
  Beta  occ. eigenvalues --   -0.40129  -0.39903  -0.39564  -0.38483  -0.38214
  Beta  occ. eigenvalues --   -0.37692  -0.37464  -0.36532  -0.36219  -0.35734
  Beta  occ. eigenvalues --   -0.34424  -0.33937  -0.32955  -0.32768  -0.31779
  Beta  occ. eigenvalues --   -0.31490  -0.31370  -0.31090  -0.27328  -0.25582
  Beta  occ. eigenvalues --   -0.22276  -0.22106  -0.20004  -0.18210
  Beta virt. eigenvalues --   -0.07043  -0.00667  -0.00106   0.00940   0.01026
  Beta virt. eigenvalues --    0.01381   0.01588   0.01754   0.02757   0.02890
  Beta virt. eigenvalues --    0.03299   0.03588   0.03964   0.04266   0.04383

 Mulliken charges and spin densities:
               1          2
     1  O   -0.521362   0.214480
     2  C   -0.349621   0.150479
     3  C    0.160603  -0.072324
     4  C   -0.342402   0.179351
     5  N    0.352497   0.046536
     6  C   -0.147128   0.002366
     7  C   -0.533302  -0.001475
     8  C   -0.247325  -0.001489
     9  C   -0.306074   0.013420
    10  C   -0.438351  -0.003313
    11  C   -0.130374   0.130838
    12  O   -0.536140   0.196288
    13  C    0.166790  -0.102563
    14  C   -0.412460   0.163901
    15  N    0.256753   0.058897
    16  C   -0.084106  -0.001041
    17  C   -0.495493  -0.005062
    18  C   -0.494686   0.001335
    19  C   -0.337795  -0.000770
    20  C   -0.220184   0.016315
    21  H    0.212791  -0.002766
    22  H    0.172289   0.001140
    23  H    0.130924   0.006713
    24  H    0.170463   0.000224
    25  H    0.144992  -0.000563
    26  H    0.177687   0.000045
    27  H    0.138395   0.000540
    28  H    0.133442   0.001223
    29  H    0.147668   0.000351
    30  H    0.204363  -0.007371
    31  H    0.163966   0.007383
    32  H    0.206588  -0.002334
    33  H    0.129906   0.007561
    34  H    0.188294   0.001317
    35  H    0.171024   0.000434
    36  H    0.171441   0.000371
    37  H    0.149298  -0.000100
    38  H    0.147842  -0.000146
    39  H    0.172316   0.001288
    40  H    0.158699   0.000040
    41  H    0.202408  -0.003858
    42  H    0.165366   0.002339
 Sum of Mulliken charges =  -1.00000   1.00000

 Dipole moment (field-independent basis, Debye):
    X=              0.9116    Y=             -3.0517    Z=              0.1434  Tot=              3.1882
 Quadrupole moment (field-independent basis, Debye-Ang):
   XX=           -116.2588   YY=           -133.5856   ZZ=           -152.0964
   XY=             -6.6845   XZ=            -18.6135   YZ=            -12.3073

  Exact polarizability: 438.449  34.433 244.946  36.264  41.291 326.270
 Approx polarizability: 415.358  41.551 272.101  53.672  49.910 361.238

                      1                      2                      3
                      A                      A                      A
 Frequencies --     28.7699                47.7328                59.4025
 Red. masses --      4.2156                 3.0506                 3.5834
 Frc consts  --      0.0021                 0.0041                 0.0075
 IR Inten    --      9.1570                 0.8056                 5.6432

                      4                      5                      6
                      A                      A                      A
 Frequencies --     74.8298                96.0261               107.1735
 Red. masses --      3.6179                 3.4875                 3.3289
 Frc consts  --      0.0119                 0.0189                 0.0225
 IR Inten    --      5.1234                 9.5520                10.0756

                      7                      8                      9
                      A                      A                      A
 Frequencies --    137.6832               163.3119               176.8719
 Red. masses --      2.7976                 2.6671                 4.9440
 Frc consts  --      0.0312                 0.0419                 0.0911
 IR Inten    --      5.5919                 1.3085                 9.8961

                     10                     11                     12
                      A                      A                      A
 Frequencies --    206.2431               216.1833               248.8481
 Red. masses --      4.6586                 3.3832                 3.5556
 Frc consts  --      0.1168                 0.0932                 0.1297
 IR Inten    --      0.8638                 1.3655                18.7955

                     13                     14                     15
                      A                      A                      A
 Frequencies --    261.9380               287.9861               295.1881
 Red. masses --      1.8796                 2.4948                 2.5555
 Frc consts  --      0.0760                 0.1219                 0.1312
 IR Inten    --      1.0855                20.8776                17.8507

                     16                     17                     18
                      A                      A                      A
 Frequencies --    307.9684               326.9064               345.1835
 Red. masses --      2.4146                 5.8350                 4.3392
 Frc consts  --      0.1349                 0.3674                 0.3046
 IR Inten    --     22.7897                23.4536                 5.6314

                     19                     20                     21
                      A                      A                      A
 Frequencies --    375.9111               446.6330               455.5963
 Red. masses --      3.1569                 5.1324                 4.6479
 Frc consts  --      0.2628                 0.6032                 0.5684
 IR Inten    --      5.6166                23.4144                 1.5964

                     22                     23                     24
                      A                      A                      A
 Frequencies --    467.4780               480.3394               497.1908
 Red. masses --      3.0461                 3.4450                 5.6834
 Frc consts  --      0.3922                 0.4683                 0.8278
 IR Inten    --      2.0707                 2.2674                18.2958

                     25                     26                     27
                      A                      A                      A
 Frequencies --    499.9281               514.6250               562.3943
 Red. masses --      4.9127                 3.7655                 2.2566
 Frc consts  --      0.7234                 0.5876                 0.4205
 IR Inten    --      4.2285                 0.4228                 3.4307

                     28                     29                     30
                      A                      A                      A
 Frequencies --    599.9840               667.6760               692.9337
 Red. masses --      2.6316                 3.9601                 3.3308
 Frc consts  --      0.5582                 1.0401                 0.9423
 IR Inten    --      4.7413                 4.7137                12.3858

                     31                     32                     33
                      A                      A                      A
 Frequencies --    712.4540               722.9729               737.1446
 Red. masses --      3.5124                 2.1853                 7.3954
 Frc consts  --      1.0504                 0.6730                 2.3676
 IR Inten    --     12.8536                11.8828                 1.0788

                     34                     35                     36
                      A                      A                      A
 Frequencies --    775.7052               782.9295               812.5024
 Red. masses --      1.3223                 1.3550                 2.0608
 Frc consts  --      0.4688                 0.4894                 0.8015
 IR Inten    --      7.0893                20.7272                10.8128

                     37                     38                     39
                      A                      A                      A
 Frequencies --    818.9369               822.5825               836.6199
 Red. masses --      3.9920                 3.3247                 1.5587
 Frc consts  --      1.5774                 1.3254                 0.6428
 IR Inten    --     14.3165                24.8582               108.8130

                     40                     41                     42
                      A                      A                      A
 Frequencies --    855.3350               879.9049               883.5550
 Red. masses --      3.1105                 2.5699                 1.5856
 Frc consts  --      1.3408                 1.1723                 0.7293
 IR Inten    --     18.0368                 5.7548                 5.8421

                     43                     44                     45
                      A                      A                      A
 Frequencies --    885.8858               912.4458               917.8446
 Red. masses --      1.6548                 2.2762                 2.4773
 Frc consts  --      0.7652                 1.1165                 1.2296
 IR Inten    --     28.2622                 3.7100                 1.5208

                     46                     47                     48
                      A                      A                      A
 Frequencies --    946.7050               968.7869               990.8595
 Red. masses --      2.7033                 1.5237                 1.4947
 Frc consts  --      1.4275                 0.8426                 0.8647
 IR Inten    --    108.0377                28.1098                10.7581

                     49                     50                     51
                      A                      A                      A
 Frequencies --   1013.4510              1028.9490              1036.2306
 Red. masses --      2.1185                 2.1380                 2.0386
 Frc consts  --      1.2820                 1.3337                 1.2897
 IR Inten    --      3.0331                43.7187                 9.1118

                     52                     53                     54
                      A                      A                      A
 Frequencies --   1053.5747              1082.3759              1088.9166
 Red. masses --      1.9723                 1.8156                 1.7177
 Frc consts  --      1.2899                 1.2532                 1.2000
 IR Inten    --      8.6987                 0.8640                 0.8267

                     55                     56                     57
                      A                      A                      A
 Frequencies --   1123.9984              1131.1491              1140.2562
 Red. masses --      3.0734                 2.5401                 2.2915
 Frc consts  --      2.2877                 1.9149                 1.7554
 IR Inten    --     41.9248               177.3603                11.0581

                     58                     59                     60
                      A                      A                      A
 Frequencies --   1141.8497              1186.1718              1190.6863
 Red. masses --      2.2690                 1.3798                 1.2069
 Frc consts  --      1.7430                 1.1438                 1.0081
 IR Inten    --    104.8127               256.3075                 7.4162

                     61                     62                     63
                      A                      A                      A
 Frequencies --   1205.1026              1229.7517              1237.0110
 Red. masses --      2.3882                 2.4491                 2.2298
 Frc consts  --      2.0434                 2.1822                 2.0103
 IR Inten    --    242.8928                90.9363               227.0123

                     64                     65                     66
                      A                      A                      A
 Frequencies --   1242.6479              1247.9853              1256.4899
 Red. masses --      1.5516                 1.5064                 1.3897
 Frc consts  --      1.4117                 1.3823                 1.2926
 IR Inten    --     19.3992               157.9470                23.9526

                     67                     68                     69
                      A                      A                      A
 Frequencies --   1263.9379              1282.9054              1288.8871
 Red. masses --      1.4535                 1.3307                 1.1698
 Frc consts  --      1.3681                 1.2904                 1.1449
 IR Inten    --     13.2663                 7.5339                43.9418

                     70                     71                     72
                      A                      A                      A
 Frequencies --   1293.8123              1324.0053              1342.5505
 Red. masses --      1.2011                 2.0689                 1.7487
 Frc consts  --      1.1846                 2.1368                 1.8570
 IR Inten    --     15.8855               272.5394                39.7653

                     73                     74                     75
                      A                      A                      A
 Frequencies --   1346.5721              1349.9355              1351.5844
 Red. masses --      1.5809                 1.3836                 1.5306
 Frc consts  --      1.6889                 1.4856                 1.6474
 IR Inten    --     42.5932                11.5398                53.3632

                     76                     77                     78
                      A                      A                      A
 Frequencies --   1360.1335              1361.5901              1377.8748
 Red. masses --      1.3365                 1.3448                 1.4367
 Frc consts  --      1.4567                 1.4689                 1.6071
 IR Inten    --      7.3308                10.1687                 9.5299

                     79                     80                     81
                      A                      A                      A
 Frequencies --   1378.9718              1381.4827              1387.0264
 Red. masses --      1.4140                 1.3877                 1.3935
 Frc consts  --      1.5842                 1.5604                 1.5795
 IR Inten    --      4.4851                11.6343                 8.6753

                     82                     83                     84
                      A                      A                      A
 Frequencies --   1399.0879              1404.2297              1437.1311
 Red. masses --      1.5684                 1.4830                 4.9752
 Frc consts  --      1.8089                 1.7230                 6.0542
 IR Inten    --     70.7620               120.8137                 3.8791

                     85                     86                     87
                      A                      A                      A
 Frequencies --   1467.0451              1473.3533              1478.4048
 Red. masses --      2.1824                 4.9743                 1.1116
 Frc consts  --      2.7674                 6.3620                 1.4314
 IR Inten    --    409.1382                46.7320                 5.8691

                     88                     89                     90
                      A                      A                      A
 Frequencies --   1480.6885              1484.8196              1488.5348
 Red. masses --      1.1642                 1.0920                 1.4458
 Frc consts  --      1.5038                 1.4184                 1.8875
 IR Inten    --     70.3243                13.5052               368.7350

                     91                     92                     93
                      A                      A                      A
 Frequencies --   1491.7362              1493.7660              1497.5627
 Red. masses --      1.1508                 1.2885                 1.1791
 Frc consts  --      1.5088                 1.6939                 1.5581
 IR Inten    --     46.4110               452.6254                29.4545

                     94                     95                     96
                      A                      A                      A
 Frequencies --   1501.2516              1507.5536              1510.5592
 Red. masses --      1.4147                 1.1053                 1.1598
 Frc consts  --      1.8786                 1.4800                 1.5592
 IR Inten    --    627.7062                18.0614                73.5883

                     97                     98                     99
                      A                      A                      A
 Frequencies --   1521.3134              1597.3999              2922.9563
 Red. masses --      1.5274                 5.4915                 1.0737
 Frc consts  --      2.0827                 8.2559                 5.4048
 IR Inten    --    402.8154                11.9724               137.1163

                    100                    101                    102
                      A                      A                      A
 Frequencies --   2926.7417              2927.7482              2995.9331
 Red. masses --      1.0731                 1.0747                 1.0747
 Frc consts  --      5.4157                 5.4278                 5.6833
 IR Inten    --    102.3055               225.1258               105.0268

                    103                    104                    105
                      A                      A                      A
 Frequencies --   3017.7169              3018.6674              3020.9101
 Red. masses --      1.0631                 1.0601                 1.0692
 Frc consts  --      5.7038                 5.6914                 5.7488
 IR Inten    --     61.5777                38.0986                53.1376

                    106                    107                    108
                      A                      A                      A
 Frequencies --   3023.4632              3025.7401              3030.9004
 Red. masses --      1.0651                 1.0638                 1.0665
 Frc consts  --      5.7363                 5.7383                 5.7726
 IR Inten    --     68.7623                68.3201                67.0432

                    109                    110                    111
                      A                      A                      A
 Frequencies --   3031.4480              3043.6546              3047.9583
 Red. masses --      1.0845                 1.0872                 1.0978
 Frc consts  --      5.8719                 5.9338                 6.0090
 IR Inten    --     47.8457                54.1093                53.8274

                    112                    113                    114
                      A                      A                      A
 Frequencies --   3052.8640              3063.8728              3065.4329
 Red. masses --      1.0966                 1.1000                 1.0983
 Frc consts  --      6.0219                 6.0841                 6.0805
 IR Inten    --     57.9101                93.5295                99.9567

                    115                    116                    117
                      A                      A                      A
 Frequencies --   3068.7324              3074.7803              3139.8147
 Red. masses --      1.1041                 1.1040                 1.0895
 Frc consts  --      6.1259                 6.1494                 6.3282
 IR Inten    --    151.1571               135.3551                19.6769

                    118                    119                    120
                      A                      A                      A
 Frequencies --   3155.9353              3182.9393              3185.2088
 Red. masses --      1.0882                 1.0875                 1.0881
 Frc consts  --      6.3860                 6.4911                 6.5043
 IR Inten    --     14.0790                53.5444                 0.2013

 - Thermochemistry -
 -------------------
 Temperature   298.150 Kelvin.  Pressure   1.00000 Atm.
 Atom     1 has atomic number  8 and mass  15.99491

 Molecular mass:   274.16813 amu.
 Principal axes and moments of inertia in atomic units:
                           1         2         3
     Eigenvalues --  1826.06874********************
           X            0.99936  -0.01391  -0.03303
           Y            0.03581   0.35014   0.93601
           Z            0.00145   0.93660  -0.35041
 This molecule is an asymmetric top.
 Rotational symmetry number  1.
 Warning -- assumption of classical behavior for rotation
           may cause significant error
 Rotational temperatures (Kelvin)      0.04743     0.00709     0.00647
 Rotational constants (GHZ):           0.98832     0.14778     0.13475
 Zero-point vibrational energy     944438.8 (Joules/Mol)
                                  225.72628 (Kcal/Mol)
 Warning -- explicit consideration of  28 degrees of freedom as
           vibrations may cause significant error
 Vibrational temperatures:     41.39    68.68    85.47   107.66   138.16
          (Kelvin)            154.20   198.10   234.97   254.48   296.74
                              311.04   358.04   376.87   414.35   424.71
                              443.10   470.35   496.64   540.85   642.61
                              655.50   672.60   691.10   715.35   719.29
                              740.43   809.16   863.24   960.64   996.98
                             1025.06  1040.20  1060.59  1116.07  1126.46
                             1169.01  1178.27  1183.51  1203.71  1230.64
                             1265.99  1271.24  1274.59  1312.81  1320.57
                             1362.10  1393.87  1425.63  1458.13  1480.43
                             1490.90  1515.86  1557.30  1566.71  1617.18
                             1627.47  1640.57  1642.87  1706.64  1713.13
                             1733.87  1769.34  1779.78  1787.89  1795.57
                             1807.81  1818.52  1845.81  1854.42  1861.51
                             1904.95  1931.63  1937.42  1942.26  1944.63
                             1956.93  1959.02  1982.45  1984.03  1987.65
                             1995.62  2012.98  2020.37  2067.71  2110.75
                             2119.83  2127.09  2130.38  2136.32  2141.67
                             2146.28  2149.20  2154.66  2159.97  2169.03
                             2173.36  2188.83  2298.30  4205.48  4210.93
                             4212.38  4310.48  4341.82  4343.19  4346.42
                             4350.09  4353.37  4360.79  4361.58  4379.14
                             4385.33  4392.39  4408.23  4410.47  4415.22
                             4423.92  4517.49  4540.69  4579.54  4582.80

 Zero-point correction=                           0.359718 (Hartree/Particle)
 Thermal correction to Energy=                    0.377741
 Thermal correction to Enthalpy=                  0.378685
 Thermal correction to Gibbs Free Energy=         0.312774
 Sum of electronic and zero-point Energies=           -882.888851
 Sum of electronic and thermal Energies=              -882.870828
 Sum of electronic and thermal Enthalpies=            -882.869884
 Sum of electronic and thermal Free Energies=         -882.935795

                     E (Thermal)             CV                S
                      KCal/Mol        Cal/Mol-Kelvin    Cal/Mol-Kelvin
 Total                  237.036             71.611            138.721
 Electronic               0.000              0.000              1.377
 Translational            0.889              2.981             42.724
 Rotational               0.889              2.981             34.056
 Vibrational            235.258             65.649             60.563
 Vibration     1          0.593              1.984              5.912
 Vibration     2          0.595              1.978              4.909
 Vibration     3          0.597              1.974              4.477
 Vibration     4          0.599              1.966              4.022
 Vibration     5          0.603              1.952              3.533
 Vibration     6          0.606              1.943              3.319
 Vibration     7          0.614              1.916              2.836
 Vibration     8          0.623              1.887              2.511
 Vibration     9          0.628              1.871              2.361
 Vibration    10          0.641              1.831              2.077
 Vibration    11          0.645              1.816              1.991
 Vibration    12          0.662              1.765              1.739
 Vibration    13          0.669              1.742              1.649
 Vibration    14          0.685              1.696              1.486
 Vibration    15          0.689              1.683              1.444
 Vibration    16          0.698              1.659              1.373
 Vibration    17          0.711              1.622              1.275
 Vibration    18          0.724              1.585              1.188
 Vibration    19          0.747              1.521              1.056
 Vibration    20          0.806              1.368              0.806
 Vibration    21          0.814              1.349              0.779
 Vibration    22          0.825              1.322              0.745
 Vibration    23          0.837              1.294              0.709
 Vibration    24          0.853              1.256              0.665
 Vibration    25          0.855              1.250              0.658
 Vibration    26          0.870              1.218              0.623
 Vibration    27          0.918              1.113              0.519
 Vibration    28          0.958              1.032              0.450

                           ! Non-Optimized Parameters !
 Normal termination of Gaussian 16 at Sat Feb 10 16:13:31 2024.
