 Gaussian 16, Revision A.03,
 Gaussian 16:  ES64L-G16RevA.03 25-Dec-2016

 ----------------------------------------------------------------------
 #P UB3LYP/6-311++G(d,p) nosym opt freq SCRF=(PCM,Solvent=n,n-DiMethylF
 ormamide)
 ----------------------------------------------------------------------

 -------
 Radical
 -------
 Symbolic Z-matrix:
 Charge = -1 Multiplicity = 2

 SCF Done:  E(UB3LYP) =  -954.157746777     A.U. after   20 cycles
 SCF Done:  E(UB3LYP) =  -954.158305152     A.U. after   15 cycles
 SCF Done:  E(UB3LYP) =  -954.158394986     A.U. after   14 cycles
 SCF Done:  E(UB3LYP) =  -954.158396400     A.U. after   13 cycles
 SCF Done:  E(UB3LYP) =  -954.158399150     A.U. after   12 cycles
 SCF Done:  E(UB3LYP) =  -954.158399925     A.U. after   11 cycles
 SCF Done:  E(UB3LYP) =  -954.158400072     A.U. after    9 cycles
 SCF Done:  E(UB3LYP) =  -954.158400297     A.U. after   10 cycles
 SCF Done:  E(UB3LYP) =  -954.158402866     A.U. after   13 cycles
 SCF Done:  E(UB3LYP) =  -954.149865650     A.U. after   20 cycles
 SCF Done:  E(UB3LYP) =  -954.158437511     A.U. after   12 cycles
 SCF Done:  E(UB3LYP) =  -954.158438321     A.U. after   12 cycles
 SCF Done:  E(UB3LYP) =  -954.158363953     A.U. after   13 cycles
 SCF Done:  E(UB3LYP) =  -954.158434154     A.U. after   14 cycles
 SCF Done:  E(UB3LYP) =  -954.158439241     A.U. after   13 cycles
 SCF Done:  E(UB3LYP) =  -954.158439981     A.U. after   11 cycles
 SCF Done:  E(UB3LYP) =  -954.158440158     A.U. after    9 cycles
 SCF Done:  E(UB3LYP) =  -954.158440343     A.U. after    8 cycles
 SCF Done:  E(UB3LYP) =  -954.158440409     A.U. after    9 cycles
 Optimization completed.
    -- Stationary point found.
 Normal termination of Gaussian 16 at Sun Feb 11 03:14:57 2024.

 ----------------------------------------------------------------------
 #P Geom=AllCheck Guess=TCheck SCRF=Check GenChk UB3LYP/6-311++G(d,p) F
 req
 ----------------------------------------------------------------------

 Structure from the checkpoint file:  "203-rad.chk"
 -------
 Radical
 -------
 Charge = -1 Multiplicity = 2

                          Input orientation:
 ---------------------------------------------------------------------
 Center     Atomic      Atomic             Coordinates (Angstroms)
 Number     Number       Type             X           Y           Z
 ---------------------------------------------------------------------
      1          6           0        4.628337    1.302646   -0.509565
      2          6           0        3.319126    0.609837   -0.223380
      3          6           0        3.312943   -0.658165    0.388277
      4          6           0        2.129230   -1.329156    0.665605
      5          8           0        2.201882   -2.557981    1.266583
      6          6           0        0.859813   -0.760149    0.344365
      7          6           0       -0.412019   -1.454101    0.616827
      8          8           0       -0.437565   -2.611671    1.093050
      9          6           0       -1.651291   -0.727087    0.292470
     10          6           0       -2.947831   -1.262032    0.564646
     11          8           0       -3.075010   -2.477745    1.176142
     12          6           0       -4.104732   -0.570965    0.230244
     13          6           0       -4.025129    0.684095   -0.388546
     14          8           0       -5.215752    1.295579   -0.688326
     15          6           0       -2.798315    1.247261   -0.664239
     16          6           0       -1.610967    0.561036   -0.328262
     17          6           0       -0.349048    1.219291   -0.636396
     18          8           0       -0.327606    2.360339   -1.197044
     19          6           0        0.879621    0.531341   -0.270770
     20          6           0        2.104370    1.183118   -0.542719
     21          1           0        5.199404    1.464600    0.410471
     22          1           0        4.466494    2.272648   -0.983105
     23          1           0        5.257195    0.700808   -1.173729
     24          1           0        4.254917   -1.131682    0.654390
     25          1           0        3.134101   -2.759433    1.417508
     26          1           0       -4.016088   -2.657961    1.295625
     27          1           0       -5.078509   -0.997494    0.447154
     28          1           0       -5.043341    2.147762   -1.106842
     29          1           0       -2.714378    2.217933   -1.137517
     30          1           0        2.060146    2.157328   -1.012917
 ---------------------------------------------------------------------

 SCF Done:  E(UB3LYP) =  -954.158440409     A.U. after    2 cycles

 Alpha  occ. eigenvalues --  -19.15874 -19.15380 -19.15058 -19.06693 -19.06685
 Alpha  occ. eigenvalues --  -10.24502 -10.23887 -10.23864 -10.23086 -10.21399
 Alpha  occ. eigenvalues --  -10.18159 -10.17645 -10.17326 -10.17321 -10.17148
 Alpha  occ. eigenvalues --  -10.16829 -10.16424 -10.16358 -10.16000 -10.15604
 Alpha  occ. eigenvalues --   -1.06856  -1.06633  -1.06299  -0.99698  -0.98878
 Alpha  occ. eigenvalues --   -0.85792  -0.84829  -0.79135  -0.75682  -0.74429
 Alpha  occ. eigenvalues --   -0.73985  -0.69781  -0.66568  -0.64564  -0.62088
 Alpha  occ. eigenvalues --   -0.60600  -0.58073  -0.56386  -0.54271  -0.50481
 Alpha  occ. eigenvalues --   -0.50300  -0.49980  -0.47685  -0.46410  -0.44922
 Alpha  occ. eigenvalues --   -0.43723  -0.43586  -0.42442  -0.41653  -0.41170
 Alpha  occ. eigenvalues --   -0.40907  -0.40555  -0.39949  -0.39756  -0.38885
 Alpha  occ. eigenvalues --   -0.38025  -0.37530  -0.36883  -0.36447  -0.35733
 Alpha  occ. eigenvalues --   -0.34709  -0.34434  -0.32411  -0.30754  -0.25567
 Alpha  occ. eigenvalues --   -0.24175  -0.23802  -0.23186  -0.22633  -0.22458
 Alpha  occ. eigenvalues --   -0.13617
 Alpha virt. eigenvalues --   -0.03970  -0.01949  -0.00609  -0.00100   0.00571
 Alpha virt. eigenvalues --    0.01063   0.01174   0.02013   0.03120   0.03627
 Alpha virt. eigenvalues --    0.03770   0.03991   0.04960   0.05196   0.05828

  Beta  occ. eigenvalues --  -19.15866 -19.15386 -19.15063 -19.06236 -19.06078
  Beta  occ. eigenvalues --  -10.24540 -10.23928 -10.23855 -10.22999 -10.21142
  Beta  occ. eigenvalues --  -10.18149 -10.17580 -10.17258 -10.17236 -10.17098
  Beta  occ. eigenvalues --  -10.16744 -10.16361 -10.16316 -10.15922 -10.15544
  Beta  occ. eigenvalues --   -1.06846  -1.06632  -1.06308  -0.98918  -0.97782
  Beta  occ. eigenvalues --   -0.85540  -0.84705  -0.78814  -0.75514  -0.74219
  Beta  occ. eigenvalues --   -0.73753  -0.69614  -0.65974  -0.64382  -0.61884
  Beta  occ. eigenvalues --   -0.60498  -0.57961  -0.56182  -0.54153  -0.50406
  Beta  occ. eigenvalues --   -0.50143  -0.49874  -0.47389  -0.46342  -0.44806
  Beta  occ. eigenvalues --   -0.43409  -0.43260  -0.42320  -0.41547  -0.41041
  Beta  occ. eigenvalues --   -0.40703  -0.40299  -0.39692  -0.39590  -0.37963
  Beta  occ. eigenvalues --   -0.37559  -0.37466  -0.36802  -0.35589  -0.34698
  Beta  occ. eigenvalues --   -0.34516  -0.34295  -0.32049  -0.29583  -0.23882
  Beta  occ. eigenvalues --   -0.23536  -0.23252  -0.22230  -0.22139  -0.22023
  Beta virt. eigenvalues --   -0.07815  -0.03047  -0.00956  -0.00601  -0.00101
  Beta virt. eigenvalues --    0.00574   0.01165   0.01261   0.02032   0.03245
  Beta virt. eigenvalues --    0.03642   0.03779   0.03996   0.05038   0.05202

 Mulliken charges and spin densities:
               1          2
     1  C   -0.307421   0.002214
     2  C    0.350061   0.005911
     3  C   -0.224004   0.094670
     4  C    0.025301  -0.009984
     5  O   -0.227331  -0.001284
     6  C    0.008878   0.039602
     7  C   -0.324874   0.028243
     8  O   -0.452318   0.171973
     9  C   -0.211442   0.023061
    10  C    0.035240  -0.006199
    11  O   -0.221519  -0.001798
    12  C    0.001328   0.068178
    13  C   -0.734150   0.003208
    14  O   -0.291067   0.002753
    15  C    0.070157   0.095237
    16  C    0.732752   0.033119
    17  C   -0.665444   0.148846
    18  O   -0.472912   0.230111
    19  C    0.294431   0.023326
    20  C   -0.376793   0.071463
    21  H    0.163472   0.001470
    22  H    0.166109   0.000046
    23  H    0.164973   0.001469
    24  H    0.144099  -0.007295
    25  H    0.291658  -0.000334
    26  H    0.296537  -0.000358
    27  H    0.182144  -0.005720
    28  H    0.306241  -0.000211
    29  H    0.152025  -0.006398
    30  H    0.123871  -0.005316
 Sum of Mulliken charges =  -1.00000   1.00000

 Dipole moment (field-independent basis, Debye):
    X=              3.2556    Y=              1.5493    Z=             -0.0438  Tot=              3.6058
 Quadrupole moment (field-independent basis, Debye-Ang):
   XX=           -100.5907   YY=           -145.1173   ZZ=           -126.3710
   XY=             -4.6106   XZ=              2.3904   YZ=              9.7255

  Exact polarizability: 521.715  -4.848 333.289   8.782 -88.882 188.996
 Approx polarizability: 521.522  -8.384 399.843   9.962-109.727 220.949

                      1                      2                      3
                      A                      A                      A
 Frequencies --     41.9093                60.9928                83.9321
 Red. masses --      6.6345                 5.6889                 1.0894
 Frc consts  --      0.0069                 0.0125                 0.0045
 IR Inten    --     16.4709                 0.0378                 0.2888

                      4                      5                      6
                      A                      A                      A
 Frequencies --     97.5950               145.9291               164.3507
 Red. masses --      6.8963                 7.6983                 5.3585
 Frc consts  --      0.0387                 0.0966                 0.0853
 IR Inten    --      8.5495                 1.5235                11.8991

                      7                      8                      9
                      A                      A                      A
 Frequencies --    165.3151               201.4143               209.8858
 Red. masses --      4.8350                 4.2200                 4.4454
 Frc consts  --      0.0779                 0.1009                 0.1154
 IR Inten    --      1.2409                 2.1876                 8.7607

                     10                     11                     12
                      A                      A                      A
 Frequencies --    250.4896               272.2856               278.8903
 Red. masses --      4.8256                 6.1368                 4.9736
 Frc consts  --      0.1784                 0.2681                 0.2279
 IR Inten    --      2.3354                 9.9194                 1.3447

                     13                     14                     15
                      A                      A                      A
 Frequencies --    323.8197               330.8999               346.2709
 Red. masses --      5.2195                 2.5471                 1.2839
 Frc consts  --      0.3225                 0.1643                 0.0907
 IR Inten    --      2.5413                13.8893               132.7933

                     16                     17                     18
                      A                      A                      A
 Frequencies --    355.9192               374.1102               390.8700
 Red. masses --      7.6268                 6.0182                10.0417
 Frc consts  --      0.5692                 0.4963                 0.9039
 IR Inten    --      2.3518                35.7623                18.1916

                     19                     20                     21
                      A                      A                      A
 Frequencies --    406.7801               412.7467               425.2807
 Red. masses --      1.1579                 1.3321                 7.1142
 Frc consts  --      0.1129                 0.1337                 0.7581
 IR Inten    --    284.3398                 3.3625                 3.0129

                     22                     23                     24
                      A                      A                      A
 Frequencies --    445.1455               478.0493               511.0939
 Red. masses --      6.8023                10.7625                 4.8614
 Frc consts  --      0.7942                 1.4491                 0.7482
 IR Inten    --      3.7414                 0.1247                43.4290

                     25                     26                     27
                      A                      A                      A
 Frequencies --    548.2886               553.6943               560.3068
 Red. masses --      8.1912                 4.0902                 7.1582
 Frc consts  --      1.4508                 0.7388                 1.3241
 IR Inten    --      8.8111                 5.9855                15.4310

                     28                     29                     30
                      A                      A                      A
 Frequencies --    596.1007               611.8282               621.6059
 Red. masses --      4.7859                 5.7098                 4.5838
 Frc consts  --      1.0020                 1.2593                 1.0435
 IR Inten    --      2.9101                15.5610                56.2013

                     31                     32                     33
                      A                      A                      A
 Frequencies --    623.5528               642.1763               721.0498
 Red. masses --      4.2127                 3.2792                 4.4978
 Frc consts  --      0.9651                 0.7968                 1.3778
 IR Inten    --     14.8601                17.6236                 0.5835

                     34                     35                     36
                      A                      A                      A
 Frequencies --    726.4263               737.1173               767.8544
 Red. masses --      5.4568                 4.7492                 8.4486
 Frc consts  --      1.6966                 1.5203                 2.9349
 IR Inten    --     12.3800                24.8919                82.7808

                     37                     38                     39
                      A                      A                      A
 Frequencies --    796.1874               803.5191               824.3507
 Red. masses --      2.2279                 2.6036                 1.8390
 Frc consts  --      0.8321                 0.9904                 0.7363
 IR Inten    --     41.4243                13.9618                52.7600

                     40                     41                     42
                      A                      A                      A
 Frequencies --    844.7913               889.5323               895.0870
 Red. masses --      1.5168                 6.1419                 1.3825
 Frc consts  --      0.6378                 2.8634                 0.6526
 IR Inten    --     29.5966                14.5694                14.6445

                     43                     44                     45
                      A                      A                      A
 Frequencies --    962.3067              1001.0633              1022.4123
 Red. masses --      7.2999                 2.6355                 3.5042
 Frc consts  --      3.9829                 1.5561                 2.1582
 IR Inten    --     74.9104               110.6090               184.1227

                     46                     47                     48
                      A                      A                      A
 Frequencies --   1032.2105              1055.5060              1092.9626
 Red. masses --      2.6954                 1.5139                 2.6501
 Frc consts  --      1.6920                 0.9937                 1.8652
 IR Inten    --    185.2900                 6.0735                12.5286

                     49                     50                     51
                      A                      A                      A
 Frequencies --   1136.1121              1168.8778              1174.0488
 Red. masses --      3.8339                 1.8899                 2.1188
 Frc consts  --      2.9156                 1.5213                 1.7207
 IR Inten    --    349.5448                 4.8356               181.1596

                     52                     53                     54
                      A                      A                      A
 Frequencies --   1187.0800              1201.5651              1215.1224
 Red. masses --      2.1858                 1.7119                 1.5608
 Frc consts  --      1.8147                 1.4562                 1.3578
 IR Inten    --     33.4573                83.9906                 3.7119

                     55                     56                     57
                      A                      A                      A
 Frequencies --   1228.4378              1258.8085              1276.7443
 Red. masses --      1.6938                 2.2006                 2.3804
 Frc consts  --      1.5060                 2.0545                 2.2862
 IR Inten    --    144.4152                30.7237               162.1356

                     58                     59                     60
                      A                      A                      A
 Frequencies --   1324.5558              1354.6009              1364.4496
 Red. masses --      6.6481                 4.7227                 5.1868
 Frc consts  --      6.8721                 5.1058                 5.6894
 IR Inten    --    134.0866                51.7867                23.9345

                     61                     62                     63
                      A                      A                      A
 Frequencies --   1378.7336              1405.7989              1417.4754
 Red. masses --      3.2970                 1.2922                 3.1769
 Frc consts  --      3.6926                 1.5046                 3.7609
 IR Inten    --     10.2229                56.6021               495.0346

                     64                     65                     66
                      A                      A                      A
 Frequencies --   1446.6994              1460.9170              1473.4655
 Red. masses --      3.5676                 4.2417                 1.0432
 Frc consts  --      4.3993                 5.3339                 1.3345
 IR Inten    --    738.9119               846.7398                10.9467

                     67                     68                     69
                      A                      A                      A
 Frequencies --   1475.1051              1491.9899              1528.4041
 Red. masses --      1.5432                 2.2940                 3.8738
 Frc consts  --      1.9784                 3.0086                 5.3316
 IR Inten    --    128.7949                28.7344               469.0578

                     70                     71                     72
                      A                      A                      A
 Frequencies --   1536.8658              1575.7562              1607.8245
 Red. masses --      6.1426                 5.3657                 6.3977
 Frc consts  --      8.5482                 7.8497                 9.7443
 IR Inten    --    455.3303               333.5409               549.3776

                     73                     74                     75
                      A                      A                      A
 Frequencies --   1621.1726              1638.1543              3017.7975
 Red. masses --      6.2360                 6.6423                 1.0377
 Frc consts  --      9.6564                10.5022                 5.5679
 IR Inten    --    809.0383                25.1147                95.0066

                     76                     77                     78
                      A                      A                      A
 Frequencies --   3063.3272              3102.3703              3134.9868
 Red. masses --      1.1001                 1.1001                 1.0900
 Frc consts  --      6.0824                 6.2382                 6.3117
 IR Inten    --     29.7558                35.6424                37.6949

                     79                     80                     81
                      A                      A                      A
 Frequencies --   3168.3370              3185.8502              3191.9809
 Red. masses --      1.0909                 1.0899                 1.0892
 Frc consts  --      6.4521                 6.5176                 6.5382
 IR Inten    --     13.0002                24.0381                13.4250

                     82                     83                     84
                      A                      A                      A
 Frequencies --   3786.8017              3790.2521              3808.9603
 Red. masses --      1.0658                 1.0658                 1.0662
 Frc consts  --      9.0047                 9.0210                 9.1139
 IR Inten    --     91.1353                97.7022               134.6299

 - Thermochemistry -
 -------------------
 Temperature   298.150 Kelvin.  Pressure   1.00000 Atm.
 Atom     1 has atomic number  6 and mass  12.00000

 Molecular mass:   270.05282 amu.
 Principal axes and moments of inertia in atomic units:
                           1         2         3
     Eigenvalues --  2788.471757566.42259**********
           X            0.99965   0.02200  -0.01478
           Y           -0.01352   0.90281   0.42982
           Z            0.02280  -0.42947   0.90279
 This molecule is an asymmetric top.
 Rotational symmetry number  1.
 Warning -- assumption of classical behavior for rotation
           may cause significant error
 Rotational temperatures (Kelvin)      0.03106     0.01145     0.00838
 Rotational constants (GHZ):           0.64722     0.23852     0.17453
 Zero-point vibrational energy     567648.0 (Joules/Mol)
                                  135.67113 (Kcal/Mol)
 Warning -- explicit consideration of  29 degrees of freedom as
           vibrations may cause significant error
 Vibrational temperatures:     60.30    87.76   120.76   140.42   209.96
          (Kelvin)            236.46   237.85   289.79   301.98   360.40
                              391.76   401.26   465.90   476.09   498.21
                              512.09   538.26   562.37   585.27   593.85
                              611.88   640.47   687.81   735.35   788.87
                              796.64   806.16   857.66   880.28   894.35
                              897.15   923.95  1037.43  1045.17  1060.55
                             1104.77  1145.54  1156.08  1186.06  1215.47
                             1279.84  1287.83  1384.54  1440.31  1471.02
                             1485.12  1518.64  1572.53  1634.61  1681.75
                             1689.19  1707.94  1728.78  1748.29  1767.45
                             1811.14  1836.95  1905.74  1948.97  1963.14
                             1983.69  2022.63  2039.43  2081.48  2101.93
                             2119.99  2122.35  2146.64  2199.03  2211.21
                             2267.16  2313.30  2332.51  2356.94  4341.94
                             4407.44  4463.62  4510.55  4558.53  4583.73
                             4592.55  5448.36  5453.33  5480.24

 Zero-point correction=                           0.216206 (Hartree/Particle)
 Thermal correction to Energy=                    0.232906
 Thermal correction to Enthalpy=                  0.233850
 Thermal correction to Gibbs Free Energy=         0.172000
 Sum of electronic and zero-point Energies=           -953.942235
 Sum of electronic and thermal Energies=              -953.925535
 Sum of electronic and thermal Enthalpies=            -953.924591
 Sum of electronic and thermal Free Energies=         -953.986440

                     E (Thermal)             CV                S
                      KCal/Mol        Cal/Mol-Kelvin    Cal/Mol-Kelvin
 Total                  146.150             66.256            130.173
 Electronic               0.000              0.000              1.377
 Translational            0.889              2.981             42.679
 Rotational               0.889              2.981             33.744
 Vibrational            144.373             60.295             52.372
 Vibration     1          0.595              1.980              5.167
 Vibration     2          0.597              1.973              4.425
 Vibration     3          0.601              1.960              3.797
 Vibration     4          0.603              1.951              3.502
 Vibration     5          0.617              1.907              2.725
 Vibration     6          0.623              1.886              2.499
 Vibration     7          0.624              1.885              2.488
 Vibration     8          0.638              1.838              2.120
 Vibration     9          0.642              1.826              2.045
 Vibration    10          0.663              1.762              1.727
 Vibration    11          0.675              1.724              1.582
 Vibration    12          0.679              1.713              1.540
 Vibration    13          0.708              1.628              1.291
 Vibration    14          0.713              1.614              1.256
 Vibration    15          0.724              1.583              1.183
 Vibration    16          0.731              1.563              1.140
 Vibration    17          0.745              1.525              1.063
 Vibration    18          0.759              1.490              0.997
 Vibration    19          0.772              1.455              0.938
 Vibration    20          0.777              1.443              0.917
 Vibration    21          0.787              1.415              0.874
 Vibration    22          0.805              1.372              0.811
 Vibration    23          0.835              1.299              0.715
 Vibration    24          0.866              1.225              0.631
 Vibration    25          0.904              1.143              0.548
 Vibration    26          0.909              1.132              0.537
 Vibration    27          0.916              1.117              0.523
 Vibration    28          0.954              1.040              0.456
 Vibration    29          0.971              1.007              0.430

                           ! Non-Optimized Parameters !
 Normal termination of Gaussian 16 at Sun Feb 11 04:38:15 2024.
