 Q-Chem 5.4, Q-Chem, Inc., Pleasanton, CA (2021)
 Q-Chem 5.4.0 for Intel X86 EM64T Linux

User input:
--------------------------------------------------------------
$molecule
0 1
C                 -4.0427660000      0.2807080000      0.2637460000
C                 -2.5787520000     -0.0055200000      0.0435480000
C                 -2.1748590000     -1.0668420000     -0.7822030000
C                 -0.8310850000     -1.3319330000     -1.0085550000
C                  0.1519990000     -0.5385260000     -0.4098450000
C                  1.5906240000     -0.8298730000     -0.6558540000
O                  1.9478360000     -1.7499410000     -1.3746080000
C                  2.6119670000      0.0450850000      0.0083070000
C                  2.2137590000      1.0580900000      0.8001100000
C                  0.7971770000      1.3795660000      1.0708740000
O                  0.5010800000      2.3130560000      1.8016450000
C                 -0.2374440000      0.5240520000      0.4198490000
C                 -1.5915100000      0.7806370000      0.6395790000
C                  4.0498210000     -0.2767510000     -0.2619990000
H                 -4.4932320000      0.7142950000     -0.6353220000
H                 -4.1922810000      0.9850690000      1.0835250000
H                 -4.5948390000     -0.6345450000      0.4935620000
H                 -2.9280990000     -1.6921440000     -1.2509430000
H                 -0.5217980000     -2.1517200000     -1.6454690000
H                  2.9312660000      1.7066490000      1.2930970000
H                 -1.8572010000      1.6077620000      1.2879600000
H                  4.2581810000     -0.2294890000     -1.3344210000
H                  4.2781640000     -1.3004150000      0.0473800000
H                  4.7119930000      0.4127310000      0.2627620000
$end
$rem
MAX_SCF_CYCLES=200
BASIS  =  6-311++G(d,p)
GUI  =  2
JOB_TYPE  =  SP
METHOD  =  B3LYP
SOLVENT_METHOD = PCM
$end
$pcm
theory = CPCM
$end
$solvent
dielectric 37.219
opticaldielectric 1.43
$end

--------------------------------------------------------------

             Standard Nuclear Orientation (Angstroms)
    I     Atom           X                Y                Z
 ----------------------------------------------------------------
    1      C      -4.0427660000     0.2807080000     0.2637460000
    2      C      -2.5787520000    -0.0055200000     0.0435480000
    3      C      -2.1748590000    -1.0668420000    -0.7822030000
    4      C      -0.8310850000    -1.3319330000    -1.0085550000
    5      C       0.1519990000    -0.5385260000    -0.4098450000
    6      C       1.5906240000    -0.8298730000    -0.6558540000
    7      O       1.9478360000    -1.7499410000    -1.3746080000
    8      C       2.6119670000     0.0450850000     0.0083070000
    9      C       2.2137590000     1.0580900000     0.8001100000
   10      C       0.7971770000     1.3795660000     1.0708740000
   11      O       0.5010800000     2.3130560000     1.8016450000
   12      C      -0.2374440000     0.5240520000     0.4198490000
   13      C      -1.5915100000     0.7806370000     0.6395790000
   14      C       4.0498210000    -0.2767510000    -0.2619990000
   15      H      -4.4932320000     0.7142950000    -0.6353220000
   16      H      -4.1922810000     0.9850690000     1.0835250000
   17      H      -4.5948390000    -0.6345450000     0.4935620000
   18      H      -2.9280990000    -1.6921440000    -1.2509430000
   19      H      -0.5217980000    -2.1517200000    -1.6454690000
   20      H       2.9312660000     1.7066490000     1.2930970000
   21      H      -1.8572010000     1.6077620000     1.2879600000
   22      H       4.2581810000    -0.2294890000    -1.3344210000
   23      H       4.2781640000    -1.3004150000     0.0473800000
   24      H       4.7119930000     0.4127310000     0.2627620000
 ----------------------------------------------------------------

    9    -613.9323509073      2.64e-06  Convergence criterion met
 Total energy in the final basis set =     -613.9323509073

                    Orbital Energies (a.u.)
 --------------------------------------------------------------

 Alpha MOs
 -- Occupied --
-19.1357 -19.1339 -10.2830 -10.2817 -10.2187 -10.2056 -10.2047 -10.2030
-10.2004 -10.1951 -10.1919 -10.1914 -10.1740 -10.1697  -1.0690  -1.0658
 -0.8897  -0.8466  -0.7975  -0.7770  -0.7303  -0.7137  -0.6665  -0.6456
 -0.6087  -0.5837  -0.5422  -0.5188  -0.5020  -0.4662  -0.4608  -0.4595
 -0.4588  -0.4473  -0.4304  -0.4263  -0.4217  -0.4092  -0.4072  -0.3987
 -0.3879  -0.3727  -0.3653  -0.3610  -0.2966  -0.2889  -0.2767  -0.2759
 -0.2665

          Ground-State Mulliken Net Atomic Charges

     Atom                 Charge (a.u.)
  ----------------------------------------
      1 C                    -0.415044
      2 C                     0.457106
      3 C                    -0.487842
      4 C                     0.088620
      5 C                    -0.201759
      6 C                    -0.423998
      7 O                    -0.290952
      8 C                     0.736225
      9 C                    -0.448516
     10 C                    -0.817569
     11 O                    -0.309608
     12 C                     0.613695
     13 C                    -0.155875
     14 C                    -0.265420
     15 H                     0.190347
     16 H                     0.181437
     17 H                     0.168062
     18 H                     0.219474
     19 H                     0.197044
     20 H                     0.219094
     21 H                     0.166131
     22 H                     0.196632
     23 H                     0.196916
     24 H                     0.185799
  ----------------------------------------
  Sum of atomic charges =     0.000000

                    Cartesian Multipole Moments
 -----------------------------------------------------------------
    Charge (ESU x 10^10)
                 0.0000
    Dipole Moment (Debye)
         X      -1.8958      Y      -0.8048      Z      -0.6528
       Tot       2.1605
    Quadrupole Moments (Debye-Ang)
        XX     -60.2797     XY       5.7694     YY     -92.3719
        XZ       4.3200     YZ      -7.6983     ZZ     -88.7005

 Total job time:  37.80s(wall), 233.83s(cpu)
        *  Thank you very much for using Q-Chem.  Have a nice day.  *
