 Gaussian 16, Revision A.03,
 Gaussian 16:  ES64L-G16RevA.03 25-Dec-2016

 --------------------------------------
 #P UB3LYP/6-311++G(d,p) nosym opt freq
 --------------------------------------

 --------
 Oxidized
 --------
 Symbolic Z-matrix:
 Charge =  0 Multiplicity = 1

 SCF Done:  E(UB3LYP) =  -613.919323195     A.U. after   15 cycles
 Optimization completed.
    -- Stationary point found.
 Normal termination of Gaussian 16 at Sun Jan  7 20:15:19 2024.

 ----------------------------------------------------------------------
 #P Geom=AllCheck Guess=TCheck SCRF=Check GenChk UB3LYP/6-311++G(d,p) F
 req
 ----------------------------------------------------------------------

 Structure from the checkpoint file:  "242.chk"
 --------
 Oxidized
 --------
 Charge =  0 Multiplicity = 1

                          Input orientation:
 ---------------------------------------------------------------------
 Center     Atomic      Atomic             Coordinates (Angstroms)
 Number     Number       Type             X           Y           Z
 ---------------------------------------------------------------------
      1          6           0       -4.042766    0.280708    0.263746
      2          6           0       -2.578752   -0.005520    0.043548
      3          6           0       -2.174859   -1.066842   -0.782203
      4          6           0       -0.831085   -1.331933   -1.008555
      5          6           0        0.151999   -0.538526   -0.409845
      6          6           0        1.590624   -0.829873   -0.655854
      7          8           0        1.947836   -1.749941   -1.374608
      8          6           0        2.611967    0.045085    0.008307
      9          6           0        2.213759    1.058090    0.800110
     10          6           0        0.797177    1.379566    1.070874
     11          8           0        0.501080    2.313056    1.801645
     12          6           0       -0.237444    0.524052    0.419849
     13          6           0       -1.591510    0.780637    0.639579
     14          6           0        4.049821   -0.276751   -0.261999
     15          1           0       -4.493232    0.714295   -0.635322
     16          1           0       -4.192281    0.985069    1.083525
     17          1           0       -4.594839   -0.634545    0.493562
     18          1           0       -2.928099   -1.692144   -1.250943
     19          1           0       -0.521798   -2.151720   -1.645469
     20          1           0        2.931266    1.706649    1.293097
     21          1           0       -1.857201    1.607762    1.287960
     22          1           0        4.258181   -0.229489   -1.334421
     23          1           0        4.278164   -1.300415    0.047380
     24          1           0        4.711993    0.412731    0.262762
 ---------------------------------------------------------------------

 SCF Done:  E(UB3LYP) =  -613.919323195     A.U. after    1 cycles

 Alpha  occ. eigenvalues --  -19.13157 -19.12800 -10.27996 -10.27725 -10.22114
 Alpha  occ. eigenvalues --  -10.21137 -10.20688 -10.20543 -10.20429 -10.19910
 Alpha  occ. eigenvalues --  -10.19826 -10.19572 -10.18508 -10.18348  -1.06418
 Alpha  occ. eigenvalues --   -1.05898  -0.89289  -0.85042  -0.80384  -0.78047
 Alpha  occ. eigenvalues --   -0.73675  -0.72009  -0.67124  -0.65000  -0.61355
 Alpha  occ. eigenvalues --   -0.58574  -0.54499  -0.52163  -0.50218  -0.47032
 Alpha  occ. eigenvalues --   -0.46387  -0.46031  -0.45518  -0.44913  -0.44120
 Alpha  occ. eigenvalues --   -0.42905  -0.42352  -0.41381  -0.40942  -0.40800
 Alpha  occ. eigenvalues --   -0.39788  -0.37885  -0.36828  -0.36660  -0.29718
 Alpha  occ. eigenvalues --   -0.28277  -0.27949  -0.27107  -0.27102
 Alpha virt. eigenvalues --   -0.12235  -0.05534  -0.03406  -0.01222  -0.00514
 Alpha virt. eigenvalues --    0.00813   0.01853   0.02060   0.02147   0.02656
 Alpha virt. eigenvalues --    0.03441   0.03642   0.04182   0.04930   0.05925

  Beta  occ. eigenvalues --  -19.13157 -19.12800 -10.27996 -10.27725 -10.22114
  Beta  occ. eigenvalues --  -10.21137 -10.20688 -10.20543 -10.20429 -10.19910
  Beta  occ. eigenvalues --  -10.19826 -10.19572 -10.18508 -10.18348  -1.06418
  Beta  occ. eigenvalues --   -1.05898  -0.89289  -0.85042  -0.80384  -0.78047
  Beta  occ. eigenvalues --   -0.73675  -0.72009  -0.67124  -0.65000  -0.61355
  Beta  occ. eigenvalues --   -0.58574  -0.54499  -0.52163  -0.50218  -0.47032
  Beta  occ. eigenvalues --   -0.46387  -0.46031  -0.45518  -0.44913  -0.44120
  Beta  occ. eigenvalues --   -0.42905  -0.42352  -0.41381  -0.40942  -0.40800
  Beta  occ. eigenvalues --   -0.39788  -0.37885  -0.36828  -0.36660  -0.29718
  Beta  occ. eigenvalues --   -0.28277  -0.27949  -0.27107  -0.27102
  Beta virt. eigenvalues --   -0.12235  -0.05534  -0.03406  -0.01222  -0.00514
  Beta virt. eigenvalues --    0.00813   0.01853   0.02060   0.02147   0.02656
  Beta virt. eigenvalues --    0.03441   0.03642   0.04182   0.04930   0.05925

 Mulliken charges and spin densities:
               1          2
     1  C   -0.363624  -0.000000
     2  C    0.547144  -0.000000
     3  C   -0.427683  -0.000000
     4  C    0.087845  -0.000000
     5  C   -0.170784  -0.000000
     6  C   -0.559811  -0.000000
     7  O   -0.216904   0.000000
     8  C    0.776404   0.000000
     9  C   -0.394313  -0.000000
    10  C   -0.952094  -0.000000
    11  O   -0.225843   0.000000
    12  C    0.575490   0.000000
    13  C   -0.178205   0.000000
    14  C   -0.209338   0.000000
    15  H    0.174174   0.000000
    16  H    0.168341  -0.000000
    17  H    0.150549  -0.000000
    18  H    0.169985  -0.000000
    19  H    0.185142   0.000000
    20  H    0.181731   0.000000
    21  H    0.150800   0.000000
    22  H    0.185580  -0.000000
    23  H    0.186036  -0.000000
    24  H    0.159377   0.000000
 Sum of Mulliken charges =   0.00000  -0.00000

 Dipole moment (field-independent basis, Debye):
    X=             -1.3816    Y=             -0.5996    Z=             -0.4876  Tot=              1.5830
 Quadrupole moment (field-independent basis, Debye-Ang):
   XX=            -65.2015   YY=            -90.4963   ZZ=            -87.5542
   XY=              4.2578   XZ=              3.1847   YZ=             -6.1302

  Exact polarizability: 199.856  -5.913 134.137  -5.674  43.138 111.952
 Approx polarizability: 275.313 -23.275 252.356 -19.353  99.331 201.678

                      1                      2                      3
                      A                      A                      A
 Frequencies --     16.7173                55.0416                94.9587
 Red. masses --      1.0302                 4.8085                 4.7349
 Frc consts  --      0.0002                 0.0086                 0.0252
 IR Inten    --      0.2962                 7.3808                 0.8508

                      4                      5                      6
                      A                      A                      A
 Frequencies --    131.1025               146.5310               186.8022
 Red. masses --      1.5271                 2.5300                 2.7144
 Frc consts  --      0.0155                 0.0320                 0.0558
 IR Inten    --      0.0771                 0.7739                 1.1000

                      7                      8                      9
                      A                      A                      A
 Frequencies --    201.0004               262.3542               287.8208
 Red. masses --      3.9862                 4.2829                 3.2146
 Frc consts  --      0.0949                 0.1737                 0.1569
 IR Inten    --      0.8556                 0.3881                 0.3803

                     10                     11                     12
                      A                      A                      A
 Frequencies --    345.0602               373.0528               376.3603
 Red. masses --      5.4626                 4.7621                 3.7152
 Frc consts  --      0.3832                 0.3905                 0.3101
 IR Inten    --      2.7921                 5.4396                 2.0498

                     13                     14                     15
                      A                      A                      A
 Frequencies --    408.7989               431.1916               463.2268
 Red. masses --      5.8349                 3.3264                 8.2318
 Frc consts  --      0.5745                 0.3644                 1.0407
 IR Inten    --     16.3607                 0.5819                 2.3039

                     16                     17                     18
                      A                      A                      A
 Frequencies --    518.7660               519.8244               602.2885
 Red. masses --      5.5608                 4.2959                 5.1702
 Frc consts  --      0.8817                 0.6839                 1.1050
 IR Inten    --      6.5763                 5.7312                 2.0174

                     19                     20                     21
                      A                      A                      A
 Frequencies --    651.5433               692.9335               707.1416
 Red. masses --      4.3633                 3.6594                 3.5599
 Frc consts  --      1.0913                 1.0353                 1.0488
 IR Inten    --      2.0616                 0.0270                13.7602

                     22                     23                     24
                      A                      A                      A
 Frequencies --    720.8192               744.3762               792.2253
 Red. masses --      5.4379                 5.6279                 5.4793
 Frc consts  --      1.6647                 1.8373                 2.0262
 IR Inten    --      0.6916                 1.4175                 1.6784

                     25                     26                     27
                      A                      A                      A
 Frequencies --    854.6458               906.1054               915.1107
 Red. masses --      1.3539                 3.9104                 1.4819
 Frc consts  --      0.5826                 1.8916                 0.7312
 IR Inten    --     31.2205                 2.7706                16.1139

                     28                     29                     30
                      A                      A                      A
 Frequencies --    937.4812               950.5734              1005.0162
 Red. masses --      1.3695                 4.7560                 1.3539
 Frc consts  --      0.7091                 2.5320                 0.8057
 IR Inten    --      0.4098                43.9628                 0.6396

                     31                     32                     33
                      A                      A                      A
 Frequencies --   1014.3446              1033.6611              1057.8977
 Red. masses --      1.4549                 1.7368                 1.5333
 Frc consts  --      0.8820                 1.0933                 1.0110
 IR Inten    --     11.2514                 6.8639                 2.2622

                     34                     35                     36
                      A                      A                      A
 Frequencies --   1063.1455              1101.4927              1141.0973
 Red. masses --      1.5666                 2.1904                 1.9259
 Frc consts  --      1.0432                 1.5658                 1.4775
 IR Inten    --      8.0870                 3.6733                 0.5045

                     37                     38                     39
                      A                      A                      A
 Frequencies --   1181.9588              1217.8741              1255.6436
 Red. masses --      2.1835                 2.4428                 1.8909
 Frc consts  --      1.7972                 2.1347                 1.7565
 IR Inten    --     12.3568                13.1415                13.1327

                     40                     41                     42
                      A                      A                      A
 Frequencies --   1281.6359              1312.7415              1348.9851
 Red. masses --      2.1213                 2.9689                 5.7069
 Frc consts  --      2.0529                 3.0144                 6.1188
 IR Inten    --    145.2620               180.9708                16.5389

                     43                     44                     45
                      A                      A                      A
 Frequencies --   1367.0959              1414.9997              1415.4354
 Red. masses --      2.7452                 1.2881                 1.2497
 Frc consts  --      3.0228                 1.5195                 1.4752
 IR Inten    --     44.6514                12.2205                 2.6610

                     46                     47                     48
                      A                      A                      A
 Frequencies --   1443.4826              1466.8324              1478.7370
 Red. masses --      2.9663                 1.0435                 1.0725
 Frc consts  --      3.6415                 1.3228                 1.3817
 IR Inten    --     11.3207                 8.9128                10.6118

                     49                     50                     51
                      A                      A                      A
 Frequencies --   1487.6190              1495.8778              1519.4225
 Red. masses --      1.0496                 1.1848                 2.9049
 Frc consts  --      1.3685                 1.5621                 3.9513
 IR Inten    --      8.0079                 3.7462                 0.6121

                     52                     53                     54
                      A                      A                      A
 Frequencies --   1604.0146              1636.3331              1675.1907
 Red. masses --      6.7085                 6.0533                 8.1395
 Frc consts  --     10.1693                 9.5496                13.4578
 IR Inten    --      3.3812               133.0082                67.1665

                     55                     56                     57
                      A                      A                      A
 Frequencies --   1716.1231              1720.7744              3025.8042
 Red. masses --     10.7139                11.7117                 1.0391
 Frc consts  --     18.5906                20.4323                 5.6053
 IR Inten    --     11.5285               396.7120                20.7298

                     58                     59                     60
                      A                      A                      A
 Frequencies --   3036.4385              3077.6968              3087.2052
 Red. masses --      1.0357                 1.0976                 1.0986
 Frc consts  --      5.6259                 6.1257                 6.1692
 IR Inten    --      9.2560                13.5198                 5.9750

                     61                     62                     63
                      A                      A                      A
 Frequencies --   3111.0268              3121.6389              3162.0571
 Red. masses --      1.1011                 1.1034                 1.0895
 Frc consts  --      6.2789                 6.3349                 6.4182
 IR Inten    --     12.0872                12.6138                10.9887

                     64                     65                     66
                      A                      A                      A
 Frequencies --   3168.1396              3185.0958              3197.2820
 Red. masses --      1.0916                 1.0905                 1.0928
 Frc consts  --      6.4555                 6.5184                 6.5816
 IR Inten    --      7.3297                 2.5436                 3.2233

 - Thermochemistry -
 -------------------
 Temperature   298.150 Kelvin.  Pressure   1.00000 Atm.
 Atom     1 has atomic number  6 and mass  12.00000

 Molecular mass:   186.06808 amu.
 Principal axes and moments of inertia in atomic units:
                           1         2         3
     Eigenvalues --  1411.432823390.260144779.49637
           X            0.99883   0.04732   0.01008
           Y           -0.03122   0.78954  -0.61290
           Z           -0.03696   0.61187   0.79010
 This molecule is an asymmetric top.
 Rotational symmetry number  1.
 Warning -- assumption of classical behavior for rotation
           may cause significant error
 Rotational temperatures (Kelvin)      0.06137     0.02555     0.01812
 Rotational constants (GHZ):           1.27866     0.53233     0.37760
 Zero-point vibrational energy     490012.4 (Joules/Mol)
                                  117.11577 (Kcal/Mol)
 Warning -- explicit consideration of  18 degrees of freedom as
           vibrations may cause significant error
 Vibrational temperatures:     24.05    79.19   136.62   188.63   210.83
          (Kelvin)            268.77   289.19   377.47   414.11   496.46
                              536.74   541.50   588.17   620.39   666.48
                              746.39   747.91   866.56   937.43   996.98
                             1017.42  1037.10  1070.99  1139.84  1229.64
                             1303.68  1316.64  1348.83  1367.66  1445.99
                             1459.42  1487.21  1522.08  1529.63  1584.80
                             1641.78  1700.58  1752.25  1806.59  1843.99
                             1888.74  1940.89  1966.95  2035.87  2036.50
                             2076.85  2110.44  2127.57  2140.35  2152.23
                             2186.11  2307.82  2354.32  2410.23  2469.12
                             2475.81  4353.46  4368.76  4428.12  4441.80
                             4476.07  4491.34  4549.49  4558.25  4582.64
                             4600.18

 Zero-point correction=                           0.186636 (Hartree/Particle)
 Thermal correction to Energy=                    0.199018
 Thermal correction to Enthalpy=                  0.199962
 Thermal correction to Gibbs Free Energy=         0.146648
 Sum of electronic and zero-point Energies=           -613.732687
 Sum of electronic and thermal Energies=              -613.720306
 Sum of electronic and thermal Enthalpies=            -613.719361
 Sum of electronic and thermal Free Energies=         -613.772676

                     E (Thermal)             CV                S
                      KCal/Mol        Cal/Mol-Kelvin    Cal/Mol-Kelvin
 Total                  124.885             46.550            112.209
 Electronic               0.000              0.000              0.000
 Translational            0.889              2.981             41.569
 Rotational               0.889              2.981             31.503
 Vibrational            123.108             40.588             39.137
 Vibration     1          0.593              1.986              6.990
 Vibration     2          0.596              1.976              4.628
 Vibration     3          0.603              1.953              3.555
 Vibration     4          0.612              1.922              2.930
 Vibration     5          0.617              1.906              2.717
 Vibration     6          0.632              1.858              2.259
 Vibration     7          0.638              1.838              2.124
 Vibration     8          0.670              1.742              1.646
 Vibration     9          0.685              1.696              1.487
 Vibration    10          0.723              1.585              1.189
 Vibration    11          0.744              1.527              1.067
 Vibration    12          0.747              1.520              1.054
 Vibration    13          0.773              1.451              0.931
 Vibration    14          0.792              1.402              0.855
 Vibration    15          0.821              1.332              0.757
 Vibration    16          0.874              1.208              0.613
 Vibration    17          0.875              1.206              0.610
 Vibration    18          0.961              1.027              0.446

                           ! Non-Optimized Parameters !
 Normal termination of Gaussian 16 at Sun Jan  7 20:51:33 2024.
