 Gaussian 16, Revision A.03,
 Gaussian 16:  ES64L-G16RevA.03 25-Dec-2016

 ----------------------------------------------------------------------
 #P UB3LYP/6-311++G(d,p) nosym opt freq SCRF=(PCM,Solvent=n,n-DiMethylF
 ormamide)
 ----------------------------------------------------------------------

 -------
 Radical
 -------
 Symbolic Z-matrix:
 Charge = -1 Multiplicity = 2

 SCF Done:  E(UB3LYP) =  -1004.41325891     A.U. after   23 cycles
 SCF Done:  E(UB3LYP) =  -1004.41033631     A.U. after   20 cycles
 SCF Done:  E(UB3LYP) =  -1004.41227061     A.U. after   18 cycles
 SCF Done:  E(UB3LYP) =  -1004.41368320     A.U. after   12 cycles
 SCF Done:  E(UB3LYP) =  -1004.41388228     A.U. after   17 cycles
 SCF Done:  E(UB3LYP) =  -1004.41395971     A.U. after   18 cycles
 SCF Done:  E(UB3LYP) =  -1004.41403712     A.U. after   17 cycles
 SCF Done:  E(UB3LYP) =  -1004.41409270     A.U. after   18 cycles
 SCF Done:  E(UB3LYP) =  -1004.41413202     A.U. after   17 cycles
 SCF Done:  E(UB3LYP) =  -1004.41417307     A.U. after   17 cycles
 SCF Done:  E(UB3LYP) =  -1004.41374566     A.U. after   23 cycles
 SCF Done:  E(UB3LYP) =  -1004.41436614     A.U. after   19 cycles
 SCF Done:  E(UB3LYP) =  -1004.41440902     A.U. after   18 cycles
 SCF Done:  E(UB3LYP) =  -1004.41444879     A.U. after   18 cycles
 SCF Done:  E(UB3LYP) =  -1004.41446483     A.U. after   18 cycles
 SCF Done:  E(UB3LYP) =  -1004.41446855     A.U. after   15 cycles
 SCF Done:  E(UB3LYP) =  -1004.41447071     A.U. after   16 cycles
 SCF Done:  E(UB3LYP) =  -1004.41447197     A.U. after   15 cycles
 SCF Done:  E(UB3LYP) =  -1004.41447209     A.U. after   13 cycles
 Optimization completed.
    -- Stationary point found.
 Normal termination of Gaussian 16 at Sat Feb 10 20:06:52 2024.

 ----------------------------------------------------------------------
 #P Geom=AllCheck Guess=TCheck SCRF=Check GenChk UB3LYP/6-311++G(d,p) F
 req
 ----------------------------------------------------------------------

 Structure from the checkpoint file:  "176-rad.chk"
 -------
 Radical
 -------
 Charge = -1 Multiplicity = 2

                          Input orientation:
 ---------------------------------------------------------------------
 Center     Atomic      Atomic             Coordinates (Angstroms)
 Number     Number       Type             X           Y           Z
 ---------------------------------------------------------------------
      1          7           0       -2.893891   -2.564881   -0.009549
      2          6           0       -2.564539   -1.250434    0.191849
      3          6           0       -3.574909   -0.359244    0.619744
      4          6           0       -3.332055    0.986217    0.739501
      5          6           0       -2.066342    1.548736    0.456603
      6          7           0       -1.940620    2.924952    0.508500
      7          6           0       -1.003058    0.679962    0.108208
      8          6           0        0.354691    1.220690   -0.068925
      9          8           0        0.565348    2.459999   -0.147483
     10          6           0        1.455597    0.277548   -0.186726
     11          6           0        1.188094   -1.077289   -0.528673
     12          6           0        2.209394   -1.912805   -0.977380
     13          6           0        3.519225   -1.442444   -1.095129
     14          6           0        3.827790   -0.154943   -0.678441
     15          6           0        2.829960    0.680833   -0.165795
     16          7           0        3.274138    1.860291    0.496556
     17          8           0        2.671752    2.253894    1.524515
     18          8           0        4.313596    2.446248    0.066669
     19          6           0       -0.181321   -1.631913   -0.427602
     20          8           0       -0.365785   -2.850880   -0.654315
     21          6           0       -1.259913   -0.732272   -0.041029
     22          1           0       -3.748942   -2.911079    0.396446
     23          1           0       -2.129687   -3.205491   -0.185853
     24          1           0       -4.564526   -0.750801    0.829877
     25          1           0       -4.135975    1.648651    1.044628
     26          1           0       -2.576252    3.414355    1.120911
     27          1           0       -0.987005    3.266923    0.448522
     28          1           0        1.961802   -2.932865   -1.240897
     29          1           0        4.304133   -2.092670   -1.462446
     30          1           0        4.849299    0.200714   -0.682286
 ---------------------------------------------------------------------

 SCF Done:  E(UB3LYP) =  -1004.41447209     A.U. after    1 cycles

 Alpha  occ. eigenvalues --  -19.12145 -19.11814 -19.09877 -19.08526 -14.49934
 Alpha  occ. eigenvalues --  -14.31998 -14.31122 -10.25318 -10.23974 -10.22797
 Alpha  occ. eigenvalues --  -10.22361 -10.22052 -10.19084 -10.18892 -10.18836
 Alpha  occ. eigenvalues --  -10.18429 -10.18378 -10.18320 -10.18274 -10.18208
 Alpha  occ. eigenvalues --  -10.18023  -1.17693  -1.02865  -1.01507  -1.00336
 Alpha  occ. eigenvalues --   -0.92982  -0.91665  -0.88017  -0.83728  -0.80431
 Alpha  occ. eigenvalues --   -0.79169  -0.75583  -0.72914  -0.70119  -0.67079
 Alpha  occ. eigenvalues --   -0.64359  -0.63790  -0.58926  -0.56721  -0.55681
 Alpha  occ. eigenvalues --   -0.54764  -0.53111  -0.50970  -0.50807  -0.49801
 Alpha  occ. eigenvalues --   -0.49298  -0.48566  -0.47997  -0.46292  -0.45888
 Alpha  occ. eigenvalues --   -0.45043  -0.43765  -0.42753  -0.42318  -0.40867
 Alpha  occ. eigenvalues --   -0.39963  -0.39398  -0.39095  -0.38246  -0.37093
 Alpha  occ. eigenvalues --   -0.36124  -0.35441  -0.34854  -0.29856  -0.29598
 Alpha  occ. eigenvalues --   -0.28433  -0.27838  -0.26952  -0.26299  -0.25901
 Alpha  occ. eigenvalues --   -0.25674  -0.24555  -0.19673  -0.14438
 Alpha virt. eigenvalues --   -0.09504  -0.04200  -0.02827  -0.00317   0.00314
 Alpha virt. eigenvalues --    0.00463   0.00797   0.02023   0.02387   0.03386
 Alpha virt. eigenvalues --    0.04113   0.04203   0.04553   0.04724   0.05277

  Beta  occ. eigenvalues --  -19.11858 -19.11451 -19.09734 -19.08236 -14.49509
  Beta  occ. eigenvalues --  -14.31966 -14.31048 -10.25293 -10.23849 -10.22789
  Beta  occ. eigenvalues --  -10.22293 -10.21985 -10.19103 -10.18820 -10.18659
  Beta  occ. eigenvalues --  -10.18480 -10.18380 -10.18308 -10.18261 -10.18142
  Beta  occ. eigenvalues --  -10.17949  -1.16965  -1.02626  -1.00972  -0.99705
  Beta  occ. eigenvalues --   -0.92897  -0.91525  -0.87748  -0.83626  -0.80060
  Beta  occ. eigenvalues --   -0.78865  -0.75440  -0.72743  -0.69547  -0.66885
  Beta  occ. eigenvalues --   -0.64180  -0.63583  -0.58789  -0.56484  -0.55371
  Beta  occ. eigenvalues --   -0.54705  -0.52928  -0.50772  -0.50145  -0.49230
  Beta  occ. eigenvalues --   -0.48432  -0.48400  -0.47841  -0.45935  -0.45786
  Beta  occ. eigenvalues --   -0.44803  -0.43296  -0.42606  -0.42120  -0.40760
  Beta  occ. eigenvalues --   -0.39745  -0.38940  -0.38537  -0.38031  -0.36910
  Beta  occ. eigenvalues --   -0.36042  -0.34986  -0.34210  -0.29295  -0.28103
  Beta  occ. eigenvalues --   -0.27558  -0.27342  -0.26238  -0.25968  -0.25671
  Beta  occ. eigenvalues --   -0.24923  -0.24192  -0.19042
  Beta virt. eigenvalues --   -0.09477  -0.07720  -0.02620  -0.02275  -0.00300
  Beta virt. eigenvalues --    0.00426   0.00807   0.00963   0.02080   0.02405
  Beta virt. eigenvalues --    0.03421   0.04187   0.04570   0.04650   0.04826

 Mulliken charges and spin densities:
               1          2
     1  N   -0.410360   0.014011
     2  C   -0.065178   0.004634
     3  C   -0.317158   0.054598
     4  C   -0.426278   0.008222
     5  C   -0.169719   0.052282
     6  N   -0.394113   0.031438
     7  C    0.530234  -0.047891
     8  C   -0.454996   0.039454
     9  O   -0.398427   0.115158
    10  C    0.198236   0.153634
    11  C    0.662212   0.023881
    12  C   -0.034276   0.004631
    13  C   -0.657417   0.059021
    14  C    0.058731  -0.005016
    15  C   -0.529851   0.078588
    16  N   -0.127373   0.134765
    17  O   -0.178416   0.112270
    18  O   -0.200709   0.130888
    19  C   -0.336957   0.004406
    20  O   -0.389978   0.049396
    21  C    0.463865  -0.006376
    22  H    0.282358  -0.000640
    23  H    0.318836  -0.000971
    24  H    0.184728  -0.004201
    25  H    0.187211  -0.000824
    26  H    0.264242  -0.001581
    27  H    0.315765  -0.001828
    28  H    0.190935  -0.001194
    29  H    0.196894  -0.003343
    30  H    0.236958   0.002589
 Sum of Mulliken charges =  -1.00000   1.00000

 Dipole moment (field-independent basis, Debye):
    X=            -12.5367    Y=             -8.6872    Z=              0.3372  Tot=             15.2561
 Quadrupole moment (field-independent basis, Debye-Ang):
   XX=           -140.3426   YY=           -154.3812   ZZ=           -130.5516
   XY=            -32.9533   XZ=            -17.6171   YZ=             -4.3479

  Exact polarizability: 994.867 183.464 459.164 -18.364  73.025 193.891
 Approx polarizability: 874.835 136.246 526.397 -38.803  83.408 231.542

                      1                      2                      3
                      A                      A                      A
 Frequencies --     28.6045                44.3061                74.4724
 Red. masses --     10.9731                 6.4109                 7.4183
 Frc consts  --      0.0053                 0.0074                 0.0242
 IR Inten    --     72.7935                30.6416                90.7794

                      4                      5                      6
                      A                      A                      A
 Frequencies --    104.3477               131.1869               156.4698
 Red. masses --     10.3688                 4.8068                 7.0872
 Frc consts  --      0.0665                 0.0487                 0.1022
 IR Inten    --     45.9250                 3.1905                85.6294

                      7                      8                      9
                      A                      A                      A
 Frequencies --    177.2519               203.0753               223.9311
 Red. masses --      5.4244                10.7204                 4.4592
 Frc consts  --      0.1004                 0.2605                 0.1317
 IR Inten    --      8.2996                 7.1502                26.1789

                     10                     11                     12
                      A                      A                      A
 Frequencies --    263.3180               292.7940               315.0951
 Red. masses --      5.6558                 1.4419                 4.4106
 Frc consts  --      0.2310                 0.0728                 0.2580
 IR Inten    --      8.1496               855.8994               419.6192

                     13                     14                     15
                      A                      A                      A
 Frequencies --    332.2629               344.6103               371.8248
 Red. masses --      5.9020                 3.6206                 7.6881
 Frc consts  --      0.3839                 0.2533                 0.6262
 IR Inten    --     33.5303               204.1174                94.5753

                     16                     17                     18
                      A                      A                      A
 Frequencies --    380.8844               393.7912               407.2788
 Red. masses --      2.3752                 2.8352                 6.3565
 Frc consts  --      0.2030                 0.2590                 0.6212
 IR Inten    --    301.9267               736.8510                34.9191

                     19                     20                     21
                      A                      A                      A
 Frequencies --    424.5693               427.0525               434.3703
 Red. masses --      5.9661                 4.6744                 5.2224
 Frc consts  --      0.6336                 0.5023                 0.5805
 IR Inten    --     77.5146               242.3812                83.3921

                     22                     23                     24
                      A                      A                      A
 Frequencies --    464.4551               488.0925               490.1888
 Red. masses --      5.1879                 3.9376                 4.5101
 Frc consts  --      0.6594                 0.5527                 0.6385
 IR Inten    --     48.0108               237.7574               196.5459

                     25                     26                     27
                      A                      A                      A
 Frequencies --    518.1072               566.4669               576.1769
 Red. masses --      5.6242                 5.8017                 1.8470
 Frc consts  --      0.8895                 1.0969                 0.3613
 IR Inten    --     41.6997                44.1501               256.2268

                     28                     29                     30
                      A                      A                      A
 Frequencies --    613.3811               616.6403               632.7597
 Red. masses --      4.1066                 1.6106                 2.2349
 Frc consts  --      0.9103                 0.3608                 0.5272
 IR Inten    --     24.7681                97.0648               346.4548

                     31                     32                     33
                      A                      A                      A
 Frequencies --    642.0691               662.7911               691.0568
 Red. masses --      2.2950                 5.4016                 6.7712
 Frc consts  --      0.5574                 1.3981                 1.9052
 IR Inten    --     60.3259               545.2846               304.6322

                     34                     35                     36
                      A                      A                      A
 Frequencies --    716.7363               730.3447               767.5856
 Red. masses --      6.8788                 3.6905                 5.5420
 Frc consts  --      2.0820                 1.1598                 1.9238
 IR Inten    --    176.3272                32.7657                19.2550

                     37                     38                     39
                      A                      A                      A
 Frequencies --    771.5194               790.7053               820.4802
 Red. masses --      5.9964                 2.3745                 7.4971
 Frc consts  --      2.1030                 0.8747                 2.9736
 IR Inten    --    323.3099                25.9725              1374.1774

                     40                     41                     42
                      A                      A                      A
 Frequencies --    830.6050               833.7793               895.7866
 Red. masses --      2.6491                 2.1176                 6.6182
 Frc consts  --      1.0768                 0.8673                 3.1290
 IR Inten    --     45.5512                53.3977                 9.6006

                     43                     44                     45
                      A                      A                      A
 Frequencies --    945.3043               953.2163               958.9401
 Red. masses --      6.1231                 1.4389                 1.3600
 Frc consts  --      3.2238                 0.7703                 0.7369
 IR Inten    --    484.1723               101.6887                 9.3220

                     46                     47                     48
                      A                      A                      A
 Frequencies --    968.0924               992.3651              1000.9616
 Red. masses --      4.5973                 1.4682                 4.1575
 Frc consts  --      2.5385                 0.8519                 2.4542
 IR Inten    --    164.1393              1234.9226             13068.3912

                     49                     50                     51
                      A                      A                      A
 Frequencies --   1040.5242              1087.9036              1112.8000
 Red. masses --      2.7805                 1.8180                 1.5399
 Frc consts  --      1.7737                 1.2677                 1.1235
 IR Inten    --    748.5311               364.2458                54.2899

                     52                     53                     54
                      A                      A                      A
 Frequencies --   1163.3467              1178.3287              1191.1689
 Red. masses --      1.5688                 1.7856                 1.9002
 Frc consts  --      1.2509                 1.4607                 1.5885
 IR Inten    --    322.7398                48.6315              1683.8078

                     55                     56                     57
                      A                      A                      A
 Frequencies --   1202.8040              1218.9793              1262.3089
 Red. masses --      1.6205                 2.8150                 6.4605
 Frc consts  --      1.3813                 2.4645                 6.0653
 IR Inten    --    830.1432                63.5026               504.9363

                     58                     59                     60
                      A                      A                      A
 Frequencies --   1286.2566              1315.7724              1351.3075
 Red. masses --      4.6581                 2.2430                 6.0457
 Frc consts  --      4.5406                 2.2879                 6.5044
 IR Inten    --     53.8120                20.6044                92.1277

                     61                     62                     63
                      A                      A                      A
 Frequencies --   1373.1831              1378.2673              1392.6351
 Red. masses --      7.3905                 6.5119                 6.8129
 Frc consts  --      8.2107                 7.2882                 7.7850
 IR Inten    --     60.2837                86.1935               176.8423

                     64                     65                     66
                      A                      A                      A
 Frequencies --   1421.4525              1442.0676              1452.0399
 Red. masses --      4.6923                 2.7884                 3.9213
 Frc consts  --      5.5860                 3.4165                 4.8713
 IR Inten    --     72.8851               178.0664                70.0976

                     67                     68                     69
                      A                      A                      A
 Frequencies --   1465.2131              1515.6416              1548.2609
 Red. masses --      2.6159                 3.9393                 4.1155
 Frc consts  --      3.3088                 5.3317                 5.8125
 IR Inten    --    141.2862               115.3380              1406.6874

                     70                     71                     72
                      A                      A                      A
 Frequencies --   1559.4627              1580.7893              1591.0490
 Red. masses --      4.7147                 5.1736                 1.7080
 Frc consts  --      6.7555                 7.6171                 2.5475
 IR Inten    --    458.0469                35.8024                16.4457

                     73                     74                     75
                      A                      A                      A
 Frequencies --   1592.9023              1616.3377              1639.7085
 Red. masses --      1.4382                 4.4088                 6.1675
 Frc consts  --      2.1501                 6.7864                 9.7699
 IR Inten    --     80.7471               234.3573              1079.5835

                     76                     77                     78
                      A                      A                      A
 Frequencies --   3157.9774              3174.5173              3181.4188
 Red. masses --      1.0868                 1.0953                 1.0883
 Frc consts  --      6.3856                 6.5032                 6.4900
 IR Inten    --     20.6649                69.2179                41.4598

                     79                     80                     81
                      A                      A                      A
 Frequencies --   3203.8739              3212.2443              3469.1768
 Red. masses --      1.0913                 1.0937                 1.0543
 Frc consts  --      6.5999                 6.6491                 7.4761
 IR Inten    --      6.3364                 5.9646                26.3402

                     82                     83                     84
                      A                      A                      A
 Frequencies --   3499.9191              3643.3055              3669.3651
 Red. masses --      1.0518                 1.0945                 1.0983
 Frc consts  --      7.5913                 8.5599                 8.7124
 IR Inten    --    115.1262               116.6346               162.5672

 - Thermochemistry -
 -------------------
 Temperature   298.150 Kelvin.  Pressure   1.00000 Atm.
 Atom     1 has atomic number  7 and mass  14.00307

 Molecular mass:   283.05931 amu.
 Principal axes and moments of inertia in atomic units:
                           1         2         3
     Eigenvalues --  3413.263126805.794259901.13810
           X            0.96453  -0.23841   0.11332
           Y            0.25983   0.93319  -0.24829
           Z           -0.04656   0.26893   0.96203
 This molecule is an asymmetric top.
 Rotational symmetry number  1.
 Warning -- assumption of classical behavior for rotation
           may cause significant error
 Rotational temperatures (Kelvin)      0.02538     0.01273     0.00875
 Rotational constants (GHZ):           0.52874     0.26518     0.18228
 Zero-point vibrational energy     554244.3 (Joules/Mol)
                                  132.46757 (Kcal/Mol)
 Warning -- explicit consideration of  29 degrees of freedom as
           vibrations may cause significant error
 Vibrational temperatures:     41.16    63.75   107.15   150.13   188.75
          (Kelvin)            225.13   255.03   292.18   322.19   378.86
                              421.27   453.35   478.05   495.82   534.97
                              548.01   566.58   585.98   610.86   614.43
                              624.96   668.25   702.26   705.27   745.44
                              815.02   828.99   882.52   887.21   910.40
                              923.79   953.61   994.28  1031.22  1050.80
                             1104.38  1110.04  1137.65  1180.49  1195.06
                             1199.62  1288.84  1360.08  1371.47  1379.70
                             1392.87  1427.79  1440.16  1497.08  1565.25
                             1601.07  1673.80  1695.35  1713.83  1730.57
                             1753.84  1816.18  1850.64  1893.10  1944.23
                             1975.70  1983.02  2003.69  2045.15  2074.81
                             2089.16  2108.11  2180.67  2227.60  2243.72
                             2274.40  2289.16  2291.83  2325.55  2359.17
                             4543.63  4567.42  4577.35  4609.66  4621.70
                             4991.37  5035.60  5241.90  5279.40

 Zero-point correction=                           0.211101 (Hartree/Particle)
 Thermal correction to Energy=                    0.227716
 Thermal correction to Enthalpy=                  0.228660
 Thermal correction to Gibbs Free Energy=         0.166366
 Sum of electronic and zero-point Energies=          -1004.203372
 Sum of electronic and thermal Energies=             -1004.186756
 Sum of electronic and thermal Enthalpies=           -1004.185812
 Sum of electronic and thermal Free Energies=        -1004.248106

                     E (Thermal)             CV                S
                      KCal/Mol        Cal/Mol-Kelvin    Cal/Mol-Kelvin
 Total                  142.894             66.695            131.109
 Electronic               0.000              0.000              1.377
 Translational            0.889              2.981             42.819
 Rotational               0.889              2.981             33.797
 Vibrational            141.117             60.734             53.116
 Vibration     1          0.593              1.984              5.924
 Vibration     2          0.595              1.980              5.057
 Vibration     3          0.599              1.966              4.032
 Vibration     4          0.605              1.946              3.371
 Vibration     5          0.612              1.922              2.929
 Vibration     6          0.620              1.895              2.592
 Vibration     7          0.628              1.870              2.357
 Vibration     8          0.639              1.836              2.105
 Vibration     9          0.649              1.805              1.927
 Vibration    10          0.670              1.740              1.640
 Vibration    11          0.688              1.687              1.458
 Vibration    12          0.702              1.645              1.335
 Vibration    13          0.714              1.611              1.249
 Vibration    14          0.723              1.586              1.191
 Vibration    15          0.744              1.530              1.072
 Vibration    16          0.751              1.511              1.036
 Vibration    17          0.761              1.483              0.986
 Vibration    18          0.772              1.454              0.936
 Vibration    19          0.787              1.417              0.877
 Vibration    20          0.789              1.411              0.868
 Vibration    21          0.795              1.395              0.844
 Vibration    22          0.822              1.329              0.753
 Vibration    23          0.844              1.276              0.689
 Vibration    24          0.846              1.272              0.683
 Vibration    25          0.873              1.210              0.614
 Vibration    26          0.922              1.104              0.511
 Vibration    27          0.933              1.083              0.492
 Vibration    28          0.973              1.004              0.427
 Vibration    29          0.976              0.997              0.422

                           ! Non-Optimized Parameters !
 Normal termination of Gaussian 16 at Sat Feb 10 20:54:53 2024.
