 Q-Chem 5.4, Q-Chem, Inc., Pleasanton, CA (2021)
 Q-Chem 5.4.0 for Intel X86 EM64T Linux

User input:
--------------------------------------------------------------
$molecule
-3 1
C                 -1.7270390000      1.9745580000     -5.1533280000
C                 -1.7340340000      0.6467000000     -5.5345170000
C                 -1.4978350000     -0.3608210000     -4.5633970000
C                 -1.4864460000      2.3696730000     -3.8133090000
C                 -1.2169470000      1.3563080000     -2.8411740000
C                 -1.2526260000      0.0004860000     -3.2529490000
C                 -1.5231230000      3.7757190000     -3.4624840000
C                 -0.9310600000      1.6701740000     -1.4496340000
C                 -1.2178700000      4.1234470000     -2.0812750000
C                 -0.8611450000      3.0914020000     -1.1093830000
C                 -1.2600510000      5.5205980000     -1.6703850000
C                 -0.8755820000      5.8768280000     -0.3641080000
C                 -0.4523820000      4.8848670000      0.5349340000
C                 -0.4582360000      3.5593390000      0.1762900000
O                 -1.8019860000      4.6427160000     -4.3773320000
O                 -0.7681040000      0.7397610000     -0.6006990000
H                 -1.9123710000      2.7665800000     -5.8705640000
H                 -1.9231620000      0.3670460000     -6.5704610000
H                 -1.5086860000     -1.4097260000     -4.8581230000
H                 -1.0698380000     -0.7452500000     -2.4866680000
Br                 0.2863920000      2.3908360000      1.5806280000
N                 -1.6849180000      6.4711410000     -2.5547590000
S                 -0.9599190000      7.5854970000      0.2696470000
O                 -0.5694340000      8.4749040000     -0.8794290000
O                 -2.3659760000      7.8295530000      0.7098840000
O                  0.0140910000      7.6461570000      1.4000260000
H                 -0.1045040000      5.1949490000      1.5103070000
H                 -1.7714530000      6.1193510000     -3.5133400000
H                 -1.4236470000      7.4248260000     -2.3310200000
$end
$rem
MAX_SCF_CYCLES=200
BASIS  =  6-311++G(d,p)
GUI  =  2
JOB_TYPE  =  SP
METHOD  =  B3LYP
SOLVENT_METHOD = COSMO
$end
$solvent
dielectric 37.219
opticaldielectric 1.43
$end

--------------------------------------------------------------

             Standard Nuclear Orientation (Angstroms)
    I     Atom           X                Y                Z
 ----------------------------------------------------------------
    1      C       3.9030738721    -2.2415366336    -0.1656823156
    2      C       5.2079282474    -1.7900817053    -0.1198090235
    3      C       5.4629048299    -0.4050918012     0.0555548709
    4      C       2.7991325647    -1.3602861674    -0.0458366617
    5      C       3.0557378285     0.0389261468     0.0988817924
    6      C       4.4031057011     0.4738450590     0.1661892458
    7      C       1.4508782091    -1.8923622744    -0.0680615571
    8      C       1.9855526115     1.0192762070     0.2000953043
    9      C       0.3573275333    -0.9330858092     0.0078860590
   10      C       0.6226104484     0.5030463031     0.0718641675
   11      C      -1.0173546347    -1.4156694909     0.0095209588
   12      C      -2.0814190629    -0.4946102994    -0.0126755257
   13      C      -1.8127144887     0.8832617912    -0.0377302049
   14      C      -0.5226714111     1.3510842206     0.0134097916
   15      O       1.2823274257    -3.1680998946    -0.1704304574
   16      O       2.2524961471     2.2446535090     0.4003582796
   17      H       3.6763644392    -3.2946950644    -0.2903195133
   18      H       6.0404730352    -2.4868222195    -0.2124241590
   19      H       6.4904230647    -0.0451946245     0.0987191828
   20      H       4.5642227933     1.5379022129     0.3023650931
   21      Br     -0.4214817235     3.3146558921    -0.1483995888
   22      N      -1.2603416629    -2.7594877463     0.0451739386
   23      S      -3.8346720890    -0.9938954985     0.0589205459
   24      O      -3.9403300102    -2.2581270994    -0.7500626824
   25      O      -4.1758152466    -1.2215654221     1.4949414324
   26      O      -4.6023543272     0.1379509677    -0.5408455397
   27      H      -2.6480602704     1.5647534444    -0.1170333593
   28      H      -0.4206350585    -3.3249126396    -0.1139158236
   29      H      -2.1889280195    -3.0440348962    -0.2456817861
 ----------------------------------------------------------------

   23   -3941.0824295457      1.25e-06  Convergence criterion met
 Total energy in the final basis set =    -3941.0824295457
    6   -3941.5862962816      4.65e-06  Convergence criterion met
 Total energy in the final basis set =    -3941.5862962816

                    Orbital Energies (a.u.)
 --------------------------------------------------------------

 Alpha MOs
 -- Occupied --
******** -89.0410 -62.4550 -56.2753 -56.2718 -56.2714 -19.0870 -19.0867
-19.0857 -19.0350 -19.0223 -14.2833 -10.2089 -10.1965 -10.1890 -10.1841
-10.1641 -10.1569 -10.1547 -10.1541 -10.1529 -10.1522 -10.1499 -10.1490
-10.1425 -10.1416  -8.6637  -8.0997  -6.4945  -6.4829  -6.4819  -6.0627
 -6.0624  -6.0610  -2.6056  -2.6023  -2.6016  -2.5923  -2.5923  -1.1012
 -0.9672  -0.9646  -0.9601  -0.9513  -0.8980  -0.8336  -0.8270  -0.7688
 -0.7595  -0.7263  -0.7198  -0.6912  -0.6492  -0.6252  -0.6052  -0.5822
 -0.5541  -0.5332  -0.5269  -0.5000  -0.4843  -0.4699  -0.4564  -0.4512
 -0.4477  -0.4395  -0.4226  -0.4176  -0.4013  -0.3970  -0.3944  -0.3828
 -0.3745  -0.3651  -0.3624  -0.3455  -0.3413  -0.3325  -0.3320  -0.3291
 -0.3201  -0.3119  -0.3076  -0.2935  -0.2921  -0.2839  -0.2706  -0.2664
 -0.2540  -0.2349  -0.2327  -0.2248  -0.2141  -0.1947  -0.1895  -0.1099

          Ground-State Mulliken Net Atomic Charges

     Atom                 Charge (a.u.)
  ----------------------------------------
      1 C                     0.038111
      2 C                    -0.586940
      3 C                    -0.448725
      4 C                    -0.122983
      5 C                     0.092471
      6 C                     0.033960
      7 C                    -0.333964
      8 C                    -1.120056
      9 C                     0.308076
     10 C                     0.835511
     11 C                     0.270277
     12 C                    -0.844040
     13 C                    -0.334088
     14 C                     0.152486
     15 O                    -0.628560
     16 O                    -0.561253
     17 H                     0.162134
     18 H                     0.183384
     19 H                     0.183559
     20 H                     0.158958
     21 Br                   -0.280205
     22 N                    -0.488646
     23 S                     0.758904
     24 O                    -0.487676
     25 O                    -0.395422
     26 O                    -0.422513
     27 H                     0.235743
     28 H                     0.355793
     29 H                     0.285690
  ----------------------------------------
  Sum of atomic charges =    -3.000012

                    Cartesian Multipole Moments
 -----------------------------------------------------------------
    Charge (ESU x 10^10)
               -14.4097
    Dipole Moment (Debye)
         X       9.6050      Y       4.9351      Z      -1.8504
       Tot      10.9561
    Quadrupole Moments (Debye-Ang)
        XX    -302.1977     XY     -23.2758     YY    -226.2751
        XZ       0.5413     YZ      -0.8915     ZZ    -170.9681

 Total job time:  193.14s(wall), 1508.56s(cpu)
        *  Thank you very much for using Q-Chem.  Have a nice day.  *
