 Q-Chem 5.4, Q-Chem, Inc., Pleasanton, CA (2021)
 Q-Chem 5.4.0 for Intel X86 EM64T Linux

User input:
--------------------------------------------------------------
$molecule
-1 2
C                 -2.8513680000      3.9619570000      0.4908780000
C                 -4.1315660000      3.4670770000      0.6250900000
C                 -4.3220160000      2.0745840000      0.5698810000
C                 -1.7423700000      3.1072860000      0.3062140000
C                 -1.9604300000      1.7002900000      0.2561460000
C                 -3.2759410000      1.2056790000      0.3938190000
C                 -0.4058550000      3.6888630000      0.1780050000
C                  0.6902000000      2.7361540000     -0.0042100000
C                  0.4721540000      1.3291670000     -0.0542790000
C                 -0.8643520000      0.7475740000      0.0739060000
C                  2.0057420000      3.2307930000     -0.1419040000
C                  3.0517540000      2.3618710000     -0.3179660000
C                  2.8613250000      0.9693650000     -0.3731500000
C                  1.5811560000      0.4744600000     -0.2389320000
O                 -0.2087990000      4.9280000000      0.2220860000
O                 -1.0614170000     -0.4915480000      0.0297880000
H                 -3.4310540000      0.1341820000      0.3660900000
H                  1.3886560000     -0.5913380000     -0.2736040000
H                 -2.6589170000      5.0277640000      0.5255670000
H                  2.1608080000      4.3022950000     -0.1141890000
H                  3.7085670000      0.3086230000     -0.5104420000
O                 -5.6044570000      1.5209910000      0.8053310000
O                  4.3343710000      2.9151920000     -0.5534490000
C                  5.3536210000      2.6766330000      0.3042790000
C                  6.5957150000      3.4003970000     -0.1647990000
O                  5.2837810000      1.9966830000      1.2957720000
H                 -4.9787470000      4.1278870000      0.7623610000
H                  6.4197620000      4.4788310000     -0.1452980000
H                  6.8262340000      3.1253400000     -1.1962820000
H                  7.4302830000      3.1507380000      0.4877310000
C                 -6.6245790000      1.7611610000     -0.0508900000
C                 -7.8661800000      1.0365520000      0.4181560000
O                 -6.5558020000      2.4429790000     -1.0411770000
H                 -7.6904180000     -0.0418650000      0.3959600000
H                 -8.7015250000      1.2877930000     -0.2327730000
H                 -8.0953560000      1.3092800000      1.4505510000
$end
$rem
MAX_SCF_CYCLES=200
BASIS  =  6-311++G(d,p)
GUI  =  2
JOB_TYPE  =  SP
METHOD  =  B3LYP
SOLVENT_METHOD = PCM
$end
$pcm
theory = CPCM
$end
$solvent
dielectric 37.219
opticaldielectric 1.43
$end

--------------------------------------------------------------

             Standard Nuclear Orientation (Angstroms)
    I     Atom           X                Y                Z
 ----------------------------------------------------------------
    1      C      -2.8513680000     3.9619570000     0.4908780000
    2      C      -4.1315660000     3.4670770000     0.6250900000
    3      C      -4.3220160000     2.0745840000     0.5698810000
    4      C      -1.7423700000     3.1072860000     0.3062140000
    5      C      -1.9604300000     1.7002900000     0.2561460000
    6      C      -3.2759410000     1.2056790000     0.3938190000
    7      C      -0.4058550000     3.6888630000     0.1780050000
    8      C       0.6902000000     2.7361540000    -0.0042100000
    9      C       0.4721540000     1.3291670000    -0.0542790000
   10      C      -0.8643520000     0.7475740000     0.0739060000
   11      C       2.0057420000     3.2307930000    -0.1419040000
   12      C       3.0517540000     2.3618710000    -0.3179660000
   13      C       2.8613250000     0.9693650000    -0.3731500000
   14      C       1.5811560000     0.4744600000    -0.2389320000
   15      O      -0.2087990000     4.9280000000     0.2220860000
   16      O      -1.0614170000    -0.4915480000     0.0297880000
   17      H      -3.4310540000     0.1341820000     0.3660900000
   18      H       1.3886560000    -0.5913380000    -0.2736040000
   19      H      -2.6589170000     5.0277640000     0.5255670000
   20      H       2.1608080000     4.3022950000    -0.1141890000
   21      H       3.7085670000     0.3086230000    -0.5104420000
   22      O      -5.6044570000     1.5209910000     0.8053310000
   23      O       4.3343710000     2.9151920000    -0.5534490000
   24      C       5.3536210000     2.6766330000     0.3042790000
   25      C       6.5957150000     3.4003970000    -0.1647990000
   26      O       5.2837810000     1.9966830000     1.2957720000
   27      H      -4.9787470000     4.1278870000     0.7623610000
   28      H       6.4197620000     4.4788310000    -0.1452980000
   29      H       6.8262340000     3.1253400000    -1.1962820000
   30      H       7.4302830000     3.1507380000     0.4877310000
   31      C      -6.6245790000     1.7611610000    -0.0508900000
   32      C      -7.8661800000     1.0365520000     0.4181560000
   33      O      -6.5558020000     2.4429790000    -1.0411770000
   34      H      -7.6904180000    -0.0418650000     0.3959600000
   35      H      -8.7015250000     1.2877930000    -0.2327730000
   36      H      -8.0953560000     1.3092800000     1.4505510000
 ----------------------------------------------------------------

    8   -1145.0020545412      6.04e-06  Convergence criterion met
 Total energy in the final basis set =    -1145.0020545412

                    Orbital Energies (a.u.)
 --------------------------------------------------------------

 Alpha MOs
 -- Occupied --
-19.1849 -19.1849 -19.1271 -19.1271 -19.0826 -19.0826 -10.3188 -10.3188
-10.2426 -10.2426 -10.2314 -10.2313 -10.1823 -10.1823 -10.1820 -10.1820
-10.1795 -10.1794 -10.1790 -10.1790 -10.1787 -10.1787 -10.1769 -10.1769
 -1.1242  -1.1242  -1.0430  -1.0430  -1.0108  -1.0084  -0.8728  -0.8639
 -0.8023  -0.7781  -0.7684  -0.7611  -0.7467  -0.7334  -0.6824  -0.6627
 -0.6456  -0.6217  -0.6021  -0.5816  -0.5580  -0.5423  -0.5136  -0.5042
 -0.5020  -0.4992  -0.4930  -0.4885  -0.4788  -0.4741  -0.4601  -0.4458
 -0.4383  -0.4329  -0.4305  -0.4288  -0.4212  -0.4178  -0.4162  -0.4126
 -0.4058  -0.3923  -0.3877  -0.3877  -0.3875  -0.3720  -0.3681  -0.3663
 -0.3500  -0.3457  -0.3305  -0.3281  -0.2980  -0.2978  -0.2726  -0.2646
 -0.2634  -0.2542  -0.2510  -0.2448  -0.1482

 Beta MOs
 -- Occupied --
-19.1849 -19.1849 -19.1271 -19.1271 -19.0774 -19.0774 -10.3188 -10.3188
-10.2421 -10.2421 -10.2295 -10.2295 -10.1815 -10.1815 -10.1814 -10.1814
-10.1793 -10.1792 -10.1787 -10.1787 -10.1785 -10.1785 -10.1769 -10.1769
 -1.1240  -1.1240  -1.0429  -1.0429  -1.0016  -0.9989  -0.8703  -0.8628
 -0.7989  -0.7772  -0.7670  -0.7587  -0.7459  -0.7322  -0.6761  -0.6615
 -0.6439  -0.6198  -0.6012  -0.5802  -0.5550  -0.5406  -0.5129  -0.5040
 -0.5013  -0.4987  -0.4923  -0.4881  -0.4762  -0.4733  -0.4595  -0.4448
 -0.4377  -0.4324  -0.4267  -0.4218  -0.4178  -0.4172  -0.4114  -0.4098
 -0.4049  -0.3912  -0.3872  -0.3872  -0.3695  -0.3672  -0.3651  -0.3642
 -0.3483  -0.3399  -0.3298  -0.3223  -0.2979  -0.2976  -0.2623  -0.2543
 -0.2518  -0.2494  -0.2456  -0.2400

          Ground-State Mulliken Net Atomic Charges

     Atom                 Charge (a.u.)    Spin (a.u.)
  --------------------------------------------------------
      1 C                     0.144066       0.029145
      2 C                     0.128019       0.036704
      3 C                    -0.783656       0.035144
      4 C                     0.258406       0.028861
      5 C                     0.450457       0.049202
      6 C                    -0.011304       0.022245
      7 C                    -0.682479       0.103874
      8 C                     0.451110       0.049227
      9 C                     0.257027       0.028876
     10 C                    -0.681879       0.103873
     11 C                    -0.010452       0.022226
     12 C                    -0.785467       0.035179
     13 C                     0.129323       0.036732
     14 C                     0.144232       0.029122
     15 O                    -0.460926       0.199761
     16 O                    -0.460930       0.199751
     17 H                     0.200607      -0.001740
     18 H                     0.187283      -0.001318
     19 H                     0.187247      -0.001319
     20 H                     0.200579      -0.001740
     21 H                     0.238746      -0.003083
     22 O                    -0.026556       0.000841
     23 O                    -0.026422       0.000839
     24 C                     0.166034       0.000177
     25 C                    -0.563443       0.000717
     26 O                    -0.323793      -0.000646
     27 H                     0.238756      -0.003082
     28 H                     0.199703       0.000050
     29 H                     0.197984       0.000069
     30 H                     0.180542      -0.000033
     31 C                     0.166498       0.000178
     32 C                    -0.563671       0.000719
     33 O                    -0.323904      -0.000639
     34 H                     0.199726       0.000051
     35 H                     0.180552      -0.000033
     36 H                     0.197978       0.000069
  --------------------------------------------------------
  Sum of atomic charges =    -1.000009

                    Cartesian Multipole Moments
 -----------------------------------------------------------------
    Charge (ESU x 10^10)
                -4.8032
    Dipole Moment (Debye)
         X       3.0518      Y     -10.6591      Z      -0.6072
       Tot      11.1040
    Quadrupole Moments (Debye-Ang)
        XX    -131.2676     XY      18.2907     YY    -190.1980
        XZ     -27.3186     YZ       2.0021     ZZ    -150.8579

 Total job time:  130.06s(wall), 664.79s(cpu)
        *  Thank you very much for using Q-Chem.  Have a nice day.  *
