 Gaussian 16, Revision A.03,
 Gaussian 16:  ES64L-G16RevA.03 25-Dec-2016

 ----------------------------------------------------------------------
 #P UB3LYP/6-311++G(d,p) nosym opt freq SCRF=(PCM,Solvent=n,n-DiMethylF
 ormamide)
 ----------------------------------------------------------------------

 -------
 Radical
 -------
 Symbolic Z-matrix:
 Charge = -1 Multiplicity = 2

 SCF Done:  E(UB3LYP) =  -1011.04745116     A.U. after   23 cycles
 SCF Done:  E(UB3LYP) =  -1011.04755343     A.U. after   21 cycles
 SCF Done:  E(UB3LYP) =  -1011.04788990     A.U. after   19 cycles
 SCF Done:  E(UB3LYP) =  -1011.04791875     A.U. after   16 cycles
 SCF Done:  E(UB3LYP) =  -1011.04791928     A.U. after   14 cycles
 SCF Done:  E(UB3LYP) =  -1011.04792349     A.U. after   13 cycles
 SCF Done:  E(UB3LYP) =  -1011.04792394     A.U. after   13 cycles
 SCF Done:  E(UB3LYP) =  -1011.04792416     A.U. after   12 cycles
 SCF Done:  E(UB3LYP) =  -1011.04792418     A.U. after   11 cycles
 Optimization completed.
    -- Stationary point found.
 Normal termination of Gaussian 16 at Sat Feb 10 11:51:45 2024.

 ----------------------------------------------------------------------
 #P Geom=AllCheck Guess=TCheck SCRF=Check GenChk UB3LYP/6-311++G(d,p) F
 req
 ----------------------------------------------------------------------

 Structure from the checkpoint file:  "102-rad.chk"
 -------
 Radical
 -------
 Charge = -1 Multiplicity = 2

                          Input orientation:
 ---------------------------------------------------------------------
 Center     Atomic      Atomic             Coordinates (Angstroms)
 Number     Number       Type             X           Y           Z
 ---------------------------------------------------------------------
      1          6           0        1.903518    3.486432    3.948489
      2          6           0        2.962721    3.615627    2.965798
      3          6           0        3.431648    2.565116    2.230258
      4          6           0        2.891205    1.231456    2.374692
      5          6           0        1.348126    2.142217    4.083857
      6          6           0        1.823919    1.088118    3.338058
      7          8           0        1.508494    4.475284    4.625875
      8          8           0        3.317273    0.246404    1.695067
      9         16           0        0.110698    1.814983    5.336838
     10          6           0       -1.387584    2.577416    4.709765
     11          6           0       -2.438061    2.760525    5.618854
     12          6           0       -1.563700    2.940677    3.371417
     13          6           0       -2.776358    3.487879    2.952478
     14          6           0       -3.650059    3.296308    5.188610
     15          6           0       -3.825623    3.665887    3.854128
     16          1           0        3.384528    4.608704    2.844155
     17          1           0        4.231880    2.705133    1.509712
     18          1           0        1.395028    0.098860    3.456699
     19          1           0       -2.306908    2.488699    6.660736
     20          1           0       -0.759034    2.799155    2.660473
     21          1           0       -2.899317    3.770956    1.912710
     22          1           0       -4.455347    3.432017    5.902147
     23          1           0       -4.766699    4.089156    3.522673
 ---------------------------------------------------------------------

 SCF Done:  E(UB3LYP) =  -1011.04792418     A.U. after    1 cycles

 Alpha  occ. eigenvalues --  -88.85336 -19.08340 -19.08326 -10.23045 -10.22531
 Alpha  occ. eigenvalues --  -10.21234 -10.20050 -10.18106 -10.18051 -10.18048
 Alpha  occ. eigenvalues --  -10.17895 -10.17588 -10.17486 -10.17070 -10.16988
 Alpha  occ. eigenvalues --   -7.93932  -5.90330  -5.89932  -5.89335  -1.00536
 Alpha  occ. eigenvalues --   -1.00022  -0.86996  -0.83728  -0.79389  -0.75583
 Alpha  occ. eigenvalues --   -0.75242  -0.70568  -0.67741  -0.61586  -0.60620
 Alpha  occ. eigenvalues --   -0.59249  -0.56157  -0.51780  -0.48101  -0.47542
 Alpha  occ. eigenvalues --   -0.46440  -0.45828  -0.44215  -0.43116  -0.42655
 Alpha  occ. eigenvalues --   -0.41206  -0.40830  -0.39038  -0.38712  -0.37839
 Alpha  occ. eigenvalues --   -0.37521  -0.35912  -0.35136  -0.33460  -0.29762
 Alpha  occ. eigenvalues --   -0.28660  -0.26750  -0.26346  -0.24913  -0.24431
 Alpha  occ. eigenvalues --   -0.21880  -0.17064
 Alpha virt. eigenvalues --   -0.02814  -0.02096  -0.01765  -0.00281   0.00546
 Alpha virt. eigenvalues --    0.01199   0.01545   0.01767   0.02307   0.03137
 Alpha virt. eigenvalues --    0.03703   0.04189   0.04774   0.05288   0.05445

  Beta  occ. eigenvalues --  -88.85337 -19.07663 -19.07571 -10.22929 -10.22408
  Beta  occ. eigenvalues --  -10.21225 -10.19936 -10.18106 -10.18051 -10.18048
  Beta  occ. eigenvalues --  -10.17894 -10.17587 -10.17327 -10.16971 -10.16899
  Beta  occ. eigenvalues --   -7.93933  -5.90334  -5.89935  -5.89332  -0.99354
  Beta  occ. eigenvalues --   -0.98691  -0.86971  -0.83188  -0.79214  -0.75517
  Beta  occ. eigenvalues --   -0.75127  -0.70128  -0.66977  -0.61526  -0.60420
  Beta  occ. eigenvalues --   -0.58981  -0.55850  -0.51719  -0.47874  -0.47160
  Beta  occ. eigenvalues --   -0.46328  -0.45787  -0.43928  -0.42943  -0.42517
  Beta  occ. eigenvalues --   -0.40440  -0.39528  -0.38613  -0.38459  -0.37258
  Beta  occ. eigenvalues --   -0.35811  -0.35125  -0.34985  -0.33149  -0.29599
  Beta  occ. eigenvalues --   -0.26366  -0.25996  -0.25349  -0.24238  -0.23805
  Beta  occ. eigenvalues --   -0.21756
  Beta virt. eigenvalues --   -0.09801  -0.02235  -0.02015  -0.01052  -0.00222
  Beta virt. eigenvalues --    0.00656   0.01403   0.01789   0.02260   0.02342
  Beta virt. eigenvalues --    0.03526   0.04016   0.04407   0.05049   0.05347

 Mulliken charges and spin densities:
               1          2
     1  C   -0.708420   0.066149
     2  C   -0.091926   0.086504
     3  C    0.113538   0.060953
     4  C   -0.663278   0.124974
     5  C    1.426277   0.087157
     6  C   -0.263790   0.082339
     7  O   -0.442531   0.242871
     8  O   -0.495607   0.263777
     9  S   -0.483542  -0.001465
    10  C    0.483277   0.017097
    11  C   -0.240711  -0.000426
    12  C   -0.165522  -0.005005
    13  C   -0.306955  -0.005228
    14  C   -0.399100  -0.000358
    15  C   -0.350750   0.001152
    16  H    0.201892  -0.007331
    17  H    0.194829  -0.005024
    18  H    0.215166  -0.009520
    19  H    0.199304  -0.000012
    20  H    0.198140   0.001294
    21  H    0.209470  -0.000010
    22  H    0.195244   0.000155
    23  H    0.174995  -0.000042
 Sum of Mulliken charges =  -1.00000   1.00000

 Dipole moment (field-independent basis, Debye):
    X=            -10.4461    Y=            -10.2779    Z=            -17.1593  Tot=             22.5654
 Quadrupole moment (field-independent basis, Debye-Ang):
   XX=           -120.0777   YY=           -144.7838   ZZ=           -169.8584
   XY=            -15.0277   XZ=            -29.0379   YZ=            -54.7931

  Exact polarizability: 295.603 -50.705 257.036 -61.709  33.889 251.789
 Approx polarizability: 302.716 -57.898 296.156 -59.185  41.358 292.599

                      1                      2                      3
                      A                      A                      A
 Frequencies --     21.3654                30.6405                59.4507
 Red. masses --      5.3146                 6.1000                 5.2960
 Frc consts  --      0.0014                 0.0034                 0.0110
 IR Inten    --      0.9126                 0.5372                 0.9120

                      4                      5                      6
                      A                      A                      A
 Frequencies --    113.3395               172.5825               196.2724
 Red. masses --      8.3116                 5.1054                 5.8315
 Frc consts  --      0.0629                 0.0896                 0.1324
 IR Inten    --     23.6684                 0.4906                 0.8046

                      7                      8                      9
                      A                      A                      A
 Frequencies --    230.0847               246.1862               322.2668
 Red. masses --     11.6864                 6.4402                 6.1540
 Frc consts  --      0.3645                 0.2300                 0.3766
 IR Inten    --      1.4437                 4.4609                 0.5533

                     10                     11                     12
                      A                      A                      A
 Frequencies --    375.2739               404.6421               412.7288
 Red. masses --      8.1307                 6.7931                 3.0358
 Frc consts  --      0.6746                 0.6553                 0.3047
 IR Inten    --     19.0890                 6.2291                 1.3018

                     13                     14                     15
                      A                      A                      A
 Frequencies --    437.9244               458.1583               483.4712
 Red. masses --      9.3673                 3.8940                 4.9163
 Frc consts  --      1.0584                 0.4816                 0.6771
 IR Inten    --      4.3813                 8.4765                14.3775

                     16                     17                     18
                      A                      A                      A
 Frequencies --    489.7040               562.6171               610.8885
 Red. masses --      5.4295                 5.1199                 3.0169
 Frc consts  --      0.7671                 0.9548                 0.6633
 IR Inten    --      7.1629                 1.7165                 2.9605

                     19                     20                     21
                      A                      A                      A
 Frequencies --    628.9777               668.5147               699.4497
 Red. masses --      6.4503                 7.7489                 6.1013
 Frc consts  --      1.5035                 2.0404                 1.7587
 IR Inten    --      0.8517                 2.2203                22.4070

                     22                     23                     24
                      A                      A                      A
 Frequencies --    703.7791               746.3583               749.6187
 Red. masses --      2.3201                 2.2616                 2.1001
 Frc consts  --      0.6771                 0.7423                 0.6953
 IR Inten    --     44.4380                46.2940                51.5585

                     25                     26                     27
                      A                      A                      A
 Frequencies --    810.3568               825.9591               848.2594
 Red. masses --      5.8435                 1.8249                 1.2527
 Frc consts  --      2.2609                 0.7335                 0.5311
 IR Inten    --     98.8702                46.7262                 0.0373

                     28                     29                     30
                      A                      A                      A
 Frequencies --    882.0540               890.9182               912.3649
 Red. masses --      6.0157                 1.5912                 1.3607
 Frc consts  --      2.7576                 0.7441                 0.6673
 IR Inten    --      8.1125                54.6345                 2.5121

                     31                     32                     33
                      A                      A                      A
 Frequencies --    970.1928               986.8788              1002.7484
 Red. masses --      1.2849                 1.3649                 1.2808
 Frc consts  --      0.7126                 0.7832                 0.7588
 IR Inten    --      0.1434                 0.1003                 0.2294

                     34                     35                     36
                      A                      A                      A
 Frequencies --   1005.4015              1009.7689              1039.9748
 Red. masses --      3.4159                 6.0178                 3.0377
 Frc consts  --      2.0344                 3.6152                 1.9357
 IR Inten    --    107.1043                 3.4895                36.5137

                     37                     38                     39
                      A                      A                      A
 Frequencies --   1089.9131              1097.6596              1112.2635
 Red. masses --      2.6085                 1.6769                 1.7002
 Frc consts  --      1.8257                 1.1904                 1.2393
 IR Inten    --     26.8114                11.8066                 5.3528

                     40                     41                     42
                      A                      A                      A
 Frequencies --   1175.0552              1197.6219              1207.1910
 Red. masses --      1.1040                 1.1436                 1.9649
 Frc consts  --      0.8981                 0.9664                 1.6871
 IR Inten    --      0.5062                 1.8529                18.1205

                     43                     44                     45
                      A                      A                      A
 Frequencies --   1246.6597              1309.8904              1337.2762
 Red. masses --      1.6860                 4.1112                 2.1585
 Frc consts  --      1.5438                 4.1561                 2.2743
 IR Inten    --     18.9944                 4.1459                17.7244

                     46                     47                     48
                      A                      A                      A
 Frequencies --   1348.2595              1421.7354              1465.7678
 Red. masses --      1.5385                 4.4024                 2.6327
 Frc consts  --      1.6478                 5.2429                 3.3326
 IR Inten    --      1.8884               183.5326                43.2032

                     49                     50                     51
                      A                      A                      A
 Frequencies --   1469.0809              1494.0125              1503.9221
 Red. masses --      4.3980                 6.1938                 2.0308
 Frc consts  --      5.5924                 8.1454                 2.7063
 IR Inten    --     59.4068                56.3963                61.2215

                     52                     53                     54
                      A                      A                      A
 Frequencies --   1511.8150              1607.9776              1616.5745
 Red. masses --      5.8351                 5.5017                 5.3939
 Frc consts  --      7.8577                 8.3812                 8.3051
 IR Inten    --   1088.2366                 1.6181               106.4824

                     55                     56                     57
                      A                      A                      A
 Frequencies --   1630.6711              3149.9635              3161.0858
 Red. masses --      6.7905                 1.0860                 1.0858
 Frc consts  --     10.6386                 6.3489                 6.3926
 IR Inten    --     19.4960                24.6791                 4.8082

                     58                     59                     60
                      A                      A                      A
 Frequencies --   3166.7812              3167.9767              3171.3403
 Red. masses --      1.0879                 1.0946                 1.0914
 Frc consts  --      6.4280                 6.4727                 6.4674
 IR Inten    --      1.3627                35.7643                12.2079

                     61                     62                     63
                      A                      A                      A
 Frequencies --   3175.8971              3186.4688              3192.1382
 Red. masses --      1.0924                 1.0934                 1.0966
 Frc consts  --      6.4916                 6.5413                 6.5835
 IR Inten    --     30.3513                24.4892                19.5315

 - Thermochemistry -
 -------------------
 Temperature   298.150 Kelvin.  Pressure   1.00000 Atm.
 Atom     1 has atomic number  6 and mass  12.00000

 Molecular mass:   216.02450 amu.
 Principal axes and moments of inertia in atomic units:
                           1         2         3
     Eigenvalues --  1573.055885967.488776051.72270
           X            0.92730   0.32782   0.18067
           Y           -0.21465   0.86115  -0.46080
           Z           -0.30665   0.38852   0.86892
 This molecule is an asymmetric top.
 Rotational symmetry number  1.
 Warning -- assumption of classical behavior for rotation
           may cause significant error
 Rotational temperatures (Kelvin)      0.05506     0.01451     0.01431
 Rotational constants (GHZ):           1.14728     0.30243     0.29822
 Zero-point vibrational energy     431996.5 (Joules/Mol)
                                  103.24964 (Kcal/Mol)
 Warning -- explicit consideration of  18 degrees of freedom as
           vibrations may cause significant error
 Vibrational temperatures:     30.74    44.08    85.54   163.07   248.31
          (Kelvin)            282.39   331.04   354.21   463.67   539.94
                              582.19   593.82   630.08   659.19   695.61
                              704.57   809.48   878.93   904.96   961.84
                             1006.35  1012.58  1073.84  1078.53  1165.92
                             1188.37  1220.46  1269.08  1281.83  1312.69
                             1395.89  1419.90  1442.73  1446.55  1452.83
                             1496.29  1568.14  1579.29  1600.30  1690.64
                             1723.11  1736.88  1793.67  1884.64  1924.04
                             1939.84  2045.56  2108.91  2113.68  2149.55
                             2163.81  2175.16  2313.52  2325.89  2346.17
                             4532.09  4548.10  4556.29  4558.01  4562.85
                             4569.41  4584.62  4592.77

 Zero-point correction=                           0.164539 (Hartree/Particle)
 Thermal correction to Energy=                    0.177005
 Thermal correction to Enthalpy=                  0.177949
 Thermal correction to Gibbs Free Energy=         0.122798
 Sum of electronic and zero-point Energies=          -1010.883385
 Sum of electronic and thermal Energies=             -1010.870920
 Sum of electronic and thermal Enthalpies=           -1010.869975
 Sum of electronic and thermal Free Energies=        -1010.925126

                     E (Thermal)             CV                S
                      KCal/Mol        Cal/Mol-Kelvin    Cal/Mol-Kelvin
 Total                  111.072             47.860            116.074
 Electronic               0.000              0.000              1.377
 Translational            0.889              2.981             42.014
 Rotational               0.889              2.981             32.407
 Vibrational            109.295             41.899             40.275
 Vibration     1          0.593              1.985              6.503
 Vibration     2          0.594              1.984              5.788
 Vibration     3          0.597              1.974              4.475
 Vibration     4          0.607              1.938              3.211
 Vibration     5          0.626              1.876              2.407
 Vibration     6          0.636              1.845              2.168
 Vibration     7          0.652              1.795              1.878
 Vibration     8          0.661              1.769              1.758
 Vibration     9          0.707              1.631              1.299
 Vibration    10          0.746              1.523              1.058
 Vibration    11          0.770              1.460              0.946
 Vibration    12          0.777              1.443              0.917
 Vibration    13          0.798              1.388              0.833
 Vibration    14          0.816              1.343              0.771
 Vibration    15          0.840              1.287              0.701
 Vibration    16          0.846              1.273              0.684
 Vibration    17          0.918              1.112              0.519
 Vibration    18          0.970              1.009              0.431

 Optimization completed.
    -- Stationary point found.
 Normal termination of Gaussian 16 at Sat Feb 10 12:21:16 2024.
