 Gaussian 16, Revision A.03,
 Gaussian 16:  ES64L-G16RevA.03 25-Dec-2016

 ----------------------------------------------------------------------
 #P UB3LYP/6-311++G(d,p) nosym opt freq SCRF=(PCM,Solvent=n,n-DiMethylF
 ormamide)
 ----------------------------------------------------------------------

 -------
 Reduced
 -------
 Symbolic Z-matrix:
 Charge = -2 Multiplicity = 1

 SCF Done:  E(UB3LYP) =  -535.734721109     A.U. after   18 cycles
 SCF Done:  E(UB3LYP) =  -535.735252810     A.U. after   14 cycles
 SCF Done:  E(UB3LYP) =  -535.730636044     A.U. after   14 cycles
 SCF Done:  E(UB3LYP) =  -535.735758076     A.U. after   13 cycles
 SCF Done:  E(UB3LYP) =  -535.735857535     A.U. after   13 cycles
 SCF Done:  E(UB3LYP) =  -535.735816796     A.U. after   14 cycles
 SCF Done:  E(UB3LYP) =  -535.735953412     A.U. after   13 cycles
 SCF Done:  E(UB3LYP) =  -535.735976200     A.U. after   12 cycles
 SCF Done:  E(UB3LYP) =  -535.735978664     A.U. after   11 cycles
 SCF Done:  E(UB3LYP) =  -535.735978882     A.U. after   10 cycles
 Optimization completed.
    -- Stationary point found.
 Normal termination of Gaussian 16 at Sat Feb 10 12:47:33 2024.

 ----------------------------------------------------------------------
 #P Geom=AllCheck Guess=TCheck SCRF=Check GenChk UB3LYP/6-311++G(d,p) F
 req
 ----------------------------------------------------------------------

 Structure from the checkpoint file:  "095-an.chk"
 -------
 Reduced
 -------
 Charge = -2 Multiplicity = 1

                          Input orientation:
 ---------------------------------------------------------------------
 Center     Atomic      Atomic             Coordinates (Angstroms)
 Number     Number       Type             X           Y           Z
 ---------------------------------------------------------------------
      1          6           0        2.140818    3.798162    5.560589
      2          6           0        3.020778    3.163958    4.656685
      3          6           0        2.583928    2.275552    3.666461
      4          6           0        1.213884    1.934072    3.499033
      5          6           0        0.335272    2.577336    4.420310
      6          6           0        0.756518    3.473014    5.412729
      7          8           0        2.564783    4.644777    6.505577
      8          8           0        0.786995    1.096619    2.577344
      9          6           0       -0.225348    4.186180    6.339396
     10          6           0       -1.613015    3.567091    6.452074
     11          8           0        0.323551    4.279584    7.667581
     12          1           0        4.083026    3.387742    4.743650
     13          1           0        3.312435    1.819938    2.997500
     14          1           0       -0.722303    2.344359    4.325926
     15          1           0       -0.354355    5.216982    5.959232
     16          1           0       -2.145347    3.593364    5.498623
     17          1           0       -2.201461    4.130167    7.181851
     18          1           0       -1.552627    2.526826    6.785779
     19          1           0        1.284228    4.509464    7.468668
 ---------------------------------------------------------------------

 SCF Done:  E(UB3LYP) =  -535.735978882     A.U. after    2 cycles

 Alpha  occ. eigenvalues --  -19.07519 -19.02268 -19.01061 -10.19828 -10.16661
 Alpha  occ. eigenvalues --  -10.16627 -10.14436 -10.13138 -10.12397 -10.12066
 Alpha  occ. eigenvalues --  -10.12039  -0.98162  -0.91871  -0.91342  -0.78424
 Alpha  occ. eigenvalues --   -0.73716  -0.69013  -0.65062  -0.59566  -0.54725
 Alpha  occ. eigenvalues --   -0.52523  -0.46914  -0.43982  -0.42995  -0.42420
 Alpha  occ. eigenvalues --   -0.39531  -0.37037  -0.36403  -0.36017  -0.35192
 Alpha  occ. eigenvalues --   -0.34657  -0.33225  -0.31438  -0.31286  -0.29975
 Alpha  occ. eigenvalues --   -0.24546  -0.22244  -0.21269  -0.20142  -0.19047
 Alpha  occ. eigenvalues --   -0.12342
 Alpha virt. eigenvalues --    0.00180   0.01280   0.01688   0.02265   0.03120
 Alpha virt. eigenvalues --    0.03453   0.03859   0.05113   0.06061   0.06200
 Alpha virt. eigenvalues --    0.07266   0.07473   0.08389   0.08963   0.10273

  Beta  occ. eigenvalues --  -19.07519 -19.02268 -19.01061 -10.19828 -10.16661
  Beta  occ. eigenvalues --  -10.16627 -10.14436 -10.13138 -10.12397 -10.12066
  Beta  occ. eigenvalues --  -10.12039  -0.98162  -0.91871  -0.91342  -0.78424
  Beta  occ. eigenvalues --   -0.73716  -0.69013  -0.65062  -0.59566  -0.54725
  Beta  occ. eigenvalues --   -0.52523  -0.46914  -0.43982  -0.42995  -0.42420
  Beta  occ. eigenvalues --   -0.39531  -0.37037  -0.36403  -0.36017  -0.35192
  Beta  occ. eigenvalues --   -0.34657  -0.33225  -0.31438  -0.31286  -0.29975
  Beta  occ. eigenvalues --   -0.24546  -0.22244  -0.21269  -0.20142  -0.19047
  Beta  occ. eigenvalues --   -0.12342
  Beta virt. eigenvalues --    0.00180   0.01280   0.01688   0.02265   0.03120
  Beta virt. eigenvalues --    0.03453   0.03859   0.05113   0.06061   0.06200
  Beta virt. eigenvalues --    0.07266   0.07473   0.08389   0.08963   0.10273

 Mulliken charges and spin densities:
               1          2
     1  C   -0.694835  -0.000000
     2  C    0.036010   0.000000
     3  C    0.011335   0.000000
     4  C   -0.442739  -0.000000
     5  C   -1.113644   0.000000
     6  C    1.547220  -0.000000
     7  O   -0.708872   0.000000
     8  O   -0.757616   0.000000
     9  C   -0.273070  -0.000000
    10  C   -0.489414  -0.000000
    11  O   -0.384956   0.000000
    12  H    0.135102   0.000000
    13  H    0.132054   0.000000
    14  H    0.102067   0.000000
    15  H    0.137404  -0.000000
    16  H    0.147131  -0.000000
    17  H    0.147101   0.000000
    18  H    0.147576  -0.000000
    19  H    0.322147   0.000000
 Sum of Mulliken charges =  -2.00000   0.00000

 Dipole moment (field-independent basis, Debye):
    X=            -14.0659    Y=            -27.5661    Z=            -46.6791  Tot=             56.0060
 Quadrupole moment (field-independent basis, Debye-Ang):
   XX=           -102.4764   YY=           -179.4401   ZZ=           -347.0378
   XY=            -50.3961   XZ=            -74.1322   YZ=           -165.6106

  Exact polarizability: 198.968   7.118 164.105  -5.864  52.361 183.358
 Approx polarizability: 214.361  10.900 176.509  -1.314  57.227 196.421

                      1                      2                      3
                      A                      A                      A
 Frequencies --     63.3240               129.4413               155.5107
 Red. masses --      4.1217                 5.2679                 5.3723
 Frc consts  --      0.0097                 0.0520                 0.0765
 IR Inten    --      7.8204                 9.5805                 7.2332

                      4                      5                      6
                      A                      A                      A
 Frequencies --    214.7650               264.1935               339.5470
 Red. masses --      3.5969                 1.1742                 7.1117
 Frc consts  --      0.0977                 0.0483                 0.4831
 IR Inten    --      3.3136                 0.3451                 7.4922

                      7                      8                      9
                      A                      A                      A
 Frequencies --    354.4673               380.1374               411.2241
 Red. masses --      5.2587                 4.8795                 6.5356
 Frc consts  --      0.3893                 0.4154                 0.6512
 IR Inten    --     57.1686                 2.7539                23.6043

                     10                     11                     12
                      A                      A                      A
 Frequencies --    438.2268               460.9290               494.8616
 Red. masses --      3.3320                 4.6985                 5.7055
 Frc consts  --      0.3770                 0.5881                 0.8232
 IR Inten    --     12.9911                 3.1098                 0.8415

                     13                     14                     15
                      A                      A                      A
 Frequencies --    541.8738               590.2208               665.1440
 Red. masses --      2.9234                 3.4738                 3.7293
 Frc consts  --      0.5058                 0.7130                 0.9721
 IR Inten    --     19.8129                13.1459                 2.8484

                     16                     17                     18
                      A                      A                      A
 Frequencies --    714.6136               749.0189               798.7450
 Red. masses --      4.8160                 2.4501                 6.0036
 Frc consts  --      1.4490                 0.8099                 2.2567
 IR Inten    --     17.7017                 6.7082               253.9712

                     19                     20                     21
                      A                      A                      A
 Frequencies --    807.6930               847.2307               871.2892
 Red. masses --      1.9677                 1.7726                 2.7998
 Frc consts  --      0.7563                 0.7496                 1.2523
 IR Inten    --     47.7749                59.6362                69.8519

                     22                     23                     24
                      A                      A                      A
 Frequencies --    895.6761               932.7646               965.7773
 Red. masses --      1.3203                 2.8041                 1.0661
 Frc consts  --      0.6241                 1.4374                 0.5859
 IR Inten    --      1.8235                 6.3561               196.7498

                     25                     26                     27
                      A                      A                      A
 Frequencies --   1015.7367              1077.8141              1099.0143
 Red. masses --      2.0795                 2.0166                 2.0983
 Frc consts  --      1.2641                 1.3803                 1.4933
 IR Inten    --     16.9542                11.1385                53.0728

                     28                     29                     30
                      A                      A                      A
 Frequencies --   1112.5728              1155.9332              1207.5164
 Red. masses --      1.7571                 1.9658                 6.1777
 Frc consts  --      1.2815                 1.5476                 5.3072
 IR Inten    --     44.9249               137.5574               298.0477

                     31                     32                     33
                      A                      A                      A
 Frequencies --   1234.0371              1261.7485              1302.5204
 Red. masses --      2.5278                 1.7715                 4.5724
 Frc consts  --      2.2680                 1.6617                 4.5705
 IR Inten    --    491.7139               149.8204               341.9940

                     34                     35                     36
                      A                      A                      A
 Frequencies --   1331.8983              1340.3833              1390.0276
 Red. masses --      1.2505                 1.3994                 1.3252
 Frc consts  --      1.3070                 1.4813                 1.5086
 IR Inten    --     38.2980                45.1914                31.6390

                     37                     38                     39
                      A                      A                      A
 Frequencies --   1401.1829              1452.9297              1479.8630
 Red. masses --      3.2110                 2.3871                 1.0791
 Frc consts  --      3.7144                 2.9689                 1.3923
 IR Inten    --    607.7981               543.9528                24.1673

                     40                     41                     42
                      A                      A                      A
 Frequencies --   1481.9527              1519.5859              1544.5883
 Red. masses --      1.0504                 5.0105                 1.4215
 Frc consts  --      1.3591                 6.8168                 1.9982
 IR Inten    --     13.7237                73.4829               237.9579

                     43                     44                     45
                      A                      A                      A
 Frequencies --   1614.6447              2875.5753              2939.1146
 Red. masses --      5.6876                 1.0797                 1.0738
 Frc consts  --      8.7364                 5.2601                 5.4650
 IR Inten    --     35.8817               249.2454              1232.6776

                     46                     47                     48
                      A                      A                      A
 Frequencies --   3021.8351              3082.9547              3096.4246
 Red. masses --      1.0361                 1.1019                 1.1001
 Frc consts  --      5.5744                 6.1708                 6.2142
 IR Inten    --     27.6868                75.2475                56.1613

                     49                     50                     51
                      A                      A                      A
 Frequencies --   3101.0365              3123.2507              3134.7361
 Red. masses --      1.0842                 1.0922                 1.0867
 Frc consts  --      6.1427                 6.2775                 6.2919
 IR Inten    --     77.4247               129.7703                52.7750

 - Thermochemistry -
 -------------------
 Temperature   298.150 Kelvin.  Pressure   1.00000 Atm.
 Atom     1 has atomic number  6 and mass  12.00000

 Molecular mass:   152.04734 amu.
 Principal axes and moments of inertia in atomic units:
                           1         2         3
     Eigenvalues --  1019.371652025.939202978.51473
           X           -0.30448   0.93794  -0.16599
           Y            0.52354   0.31038   0.79346
           Z            0.79574   0.15469  -0.58555
 This molecule is an asymmetric top.
 Rotational symmetry number  1.
 Warning -- assumption of classical behavior for rotation
           may cause significant error
 Rotational temperatures (Kelvin)      0.08497     0.04275     0.02908
 Rotational constants (GHZ):           1.77044     0.89082     0.60592
 Zero-point vibrational energy     373746.6 (Joules/Mol)
                                   89.32758 (Kcal/Mol)
 Warning -- explicit consideration of  14 degrees of freedom as
           vibrations may cause significant error
 Vibrational temperatures:     91.11   186.24   223.75   309.00   380.12
          (Kelvin)            488.53   510.00   546.93   591.66   630.51
                              663.17   712.00   779.64   849.20   956.99
                             1028.17  1077.67  1149.22  1162.09  1218.98
                             1253.59  1288.68  1342.04  1389.54  1461.42
                             1550.73  1581.24  1600.74  1663.13  1737.35
                             1775.50  1815.37  1874.04  1916.30  1928.51
                             1999.94  2015.99  2090.44  2129.19  2132.20
                             2186.35  2222.32  2323.11  4137.31  4228.73
                             4347.75  4435.68  4455.06  4461.70  4493.66
                             4510.19

 Zero-point correction=                           0.142353 (Hartree/Particle)
 Thermal correction to Energy=                    0.151788
 Thermal correction to Enthalpy=                  0.152732
 Thermal correction to Gibbs Free Energy=         0.107621
 Sum of electronic and zero-point Energies=           -535.593626
 Sum of electronic and thermal Energies=              -535.584191
 Sum of electronic and thermal Enthalpies=            -535.583247
 Sum of electronic and thermal Free Energies=         -535.628358

                     E (Thermal)             CV                S
                      KCal/Mol        Cal/Mol-Kelvin    Cal/Mol-Kelvin
 Total                   95.248             36.906             94.944
 Electronic               0.000              0.000              0.000
 Translational            0.889              2.981             40.967
 Rotational               0.889              2.981             30.199
 Vibrational             93.471             30.944             23.778
 Vibration     1          0.597              1.972              4.351
 Vibration     2          0.612              1.924              2.954
 Vibration     3          0.620              1.897              2.604
 Vibration     4          0.645              1.818              2.003
 Vibration     5          0.671              1.739              1.634
 Vibration     6          0.719              1.596              1.214
 Vibration     7          0.730              1.566              1.146
 Vibration     8          0.750              1.513              1.039
 Vibration     9          0.775              1.446              0.922
 Vibration    10          0.798              1.387              0.832
 Vibration    11          0.819              1.337              0.763
 Vibration    12          0.850              1.261              0.671
 Vibration    13          0.897              1.157              0.561
 Vibration    14          0.948              1.053              0.467

 Optimization completed.
    -- Stationary point found.
 Normal termination of Gaussian 16 at Sat Feb 10 13:09:03 2024.
