 Q-Chem 5.4, Q-Chem, Inc., Pleasanton, CA (2021)
 Q-Chem 5.4.0 for Intel X86 EM64T Linux

User input:
--------------------------------------------------------------
$molecule
0 1
C                 -2.4346470000      1.9208130000     -0.0221870000
C                 -1.3162150000      0.9166000000     -0.0006920000
C                 -1.5437490000     -0.4133320000      0.1364030000
C                 -2.9304280000     -0.9766280000      0.2763930000
C                 -0.4163080000     -1.3949710000      0.1546290000
O                 -0.6325150000     -2.5911040000      0.2782180000
C                  0.9752860000     -0.8797150000      0.0186610000
C                  2.0498290000     -1.7724000000      0.0317770000
C                  3.3504210000     -1.2953720000     -0.0946960000
C                  3.5848780000      0.0748070000     -0.2348190000
C                  2.5188180000      0.9683420000     -0.2485640000
C                  1.2105150000      0.4950150000     -0.1219970000
C                  0.0714980000      1.4556710000     -0.1375380000
O                  0.2653830000      2.6558200000     -0.2592580000
H                 -3.1357920000      1.7076890000     -0.8353120000
H                 -3.0084600000      1.8860790000      0.9095750000
H                 -2.0413070000      2.9270240000     -0.1526680000
H                 -2.8934230000     -2.0588040000      0.3847320000
H                 -3.5414250000     -0.7317720000     -0.5984490000
H                 -3.4386860000     -0.5519430000      1.1479090000
H                  1.8454570000     -2.8301970000      0.1415180000
H                  4.1834110000     -1.9891170000     -0.0843980000
H                  4.5996510000      0.4433650000     -0.3331220000
H                  2.6778080000      2.0341270000     -0.3561170000
$end
$rem
MAX_SCF_CYCLES=200
BASIS  =  6-311++G(d,p)
GUI  =  2
JOB_TYPE  =  SP
METHOD  =  B3LYP
SOLVENT_METHOD = PCM
$end
$pcm
theory = CPCM
$end
$solvent
dielectric 37.219
opticaldielectric 1.43
$end

--------------------------------------------------------------

             Standard Nuclear Orientation (Angstroms)
    I     Atom           X                Y                Z
 ----------------------------------------------------------------
    1      C      -2.4346470000     1.9208130000    -0.0221870000
    2      C      -1.3162150000     0.9166000000    -0.0006920000
    3      C      -1.5437490000    -0.4133320000     0.1364030000
    4      C      -2.9304280000    -0.9766280000     0.2763930000
    5      C      -0.4163080000    -1.3949710000     0.1546290000
    6      O      -0.6325150000    -2.5911040000     0.2782180000
    7      C       0.9752860000    -0.8797150000     0.0186610000
    8      C       2.0498290000    -1.7724000000     0.0317770000
    9      C       3.3504210000    -1.2953720000    -0.0946960000
   10      C       3.5848780000     0.0748070000    -0.2348190000
   11      C       2.5188180000     0.9683420000    -0.2485640000
   12      C       1.2105150000     0.4950150000    -0.1219970000
   13      C       0.0714980000     1.4556710000    -0.1375380000
   14      O       0.2653830000     2.6558200000    -0.2592580000
   15      H      -3.1357920000     1.7076890000    -0.8353120000
   16      H      -3.0084600000     1.8860790000     0.9095750000
   17      H      -2.0413070000     2.9270240000    -0.1526680000
   18      H      -2.8934230000    -2.0588040000     0.3847320000
   19      H      -3.5414250000    -0.7317720000    -0.5984490000
   20      H      -3.4386860000    -0.5519430000     1.1479090000
   21      H       1.8454570000    -2.8301970000     0.1415180000
   22      H       4.1834110000    -1.9891170000    -0.0843980000
   23      H       4.5996510000     0.4433650000    -0.3331220000
   24      H       2.6778080000     2.0341270000    -0.3561170000
 ----------------------------------------------------------------

    9    -613.9295824306      1.58e-06  Convergence criterion met
 Total energy in the final basis set =     -613.9295824306

                    Orbital Energies (a.u.)
 --------------------------------------------------------------

 Alpha MOs
 -- Occupied --
-19.1333 -19.1333 -10.2813 -10.2813 -10.2110 -10.2103 -10.2054 -10.2048
-10.1956 -10.1955 -10.1951 -10.1947 -10.1692 -10.1692  -1.0677  -1.0659
 -0.8886  -0.8495  -0.7866  -0.7761  -0.7463  -0.6990  -0.6762  -0.6302
 -0.6113  -0.5832  -0.5486  -0.5177  -0.4995  -0.4721  -0.4631  -0.4612
 -0.4549  -0.4494  -0.4244  -0.4228  -0.4166  -0.4113  -0.3968  -0.3949
 -0.3852  -0.3763  -0.3681  -0.3658  -0.2904  -0.2895  -0.2771  -0.2734
 -0.2698

          Ground-State Mulliken Net Atomic Charges

     Atom                 Charge (a.u.)
  ----------------------------------------
      1 C                    -0.440418
      2 C                     0.901254
      3 C                     0.900160
      4 C                    -0.444177
      5 C                    -1.181810
      6 O                    -0.295458
      7 C                     0.528125
      8 C                    -0.043279
      9 C                    -0.456682
     10 C                    -0.456877
     11 C                    -0.042746
     12 C                     0.527875
     13 C                    -1.181828
     14 O                    -0.295588
     15 H                     0.184656
     16 H                     0.187437
     17 H                     0.196563
     18 H                     0.196571
     19 H                     0.187203
     20 H                     0.185375
     21 H                     0.198911
     22 H                     0.223092
     23 H                     0.223077
     24 H                     0.198565
  ----------------------------------------
  Sum of atomic charges =     0.000000

                    Cartesian Multipole Moments
 -----------------------------------------------------------------
    Charge (ESU x 10^10)
                 0.0000
    Dipole Moment (Debye)
         X       0.4802      Y      -0.0866      Z      -0.0225
       Tot       0.4884
    Quadrupole Moments (Debye-Ang)
        XX     -59.5363     XY      -6.8510     YY     -97.7084
        XZ      -0.8450     YZ       1.8198     ZZ     -82.7820

 Total job time:  36.09s(wall), 228.53s(cpu)
        *  Thank you very much for using Q-Chem.  Have a nice day.  *
