 Gaussian 16, Revision A.03,
 Gaussian 16:  ES64L-G16RevA.03 25-Dec-2016

 ----------------------------------------------------------------------
 #P UB3LYP/6-311++G(d,p) nosym opt freq SCRF=(PCM,Solvent=n,n-DiMethylF
 ormamide)
 ----------------------------------------------------------------------

 -------
 Radical
 -------
 Symbolic Z-matrix:
 Charge = -1 Multiplicity = 2

 SCF Done:  E(UB3LYP) =  -614.058794607     A.U. after   18 cycles
 SCF Done:  E(UB3LYP) =  -614.059026658     A.U. after   15 cycles
 SCF Done:  E(UB3LYP) =  -614.059074427     A.U. after   15 cycles
 SCF Done:  E(UB3LYP) =  -614.059080268     A.U. after   11 cycles
 SCF Done:  E(UB3LYP) =  -614.059080247     A.U. after   11 cycles
 SCF Done:  E(UB3LYP) =  -614.059081587     A.U. after   10 cycles
 SCF Done:  E(UB3LYP) =  -614.059082067     A.U. after   10 cycles
 SCF Done:  E(UB3LYP) =  -614.059082368     A.U. after    9 cycles
 SCF Done:  E(UB3LYP) =  -614.059082456     A.U. after    9 cycles
 SCF Done:  E(UB3LYP) =  -614.059082484     A.U. after    9 cycles
 Optimization completed.
    -- Stationary point found.
 Normal termination of Gaussian 16 at Sun Feb 11 01:35:10 2024.

 ----------------------------------------------------------------------
 #P Geom=AllCheck Guess=TCheck SCRF=Check GenChk UB3LYP/6-311++G(d,p) F
 req
 ----------------------------------------------------------------------

 Structure from the checkpoint file:  "244-rad.chk"
 -------
 Radical
 -------
 Charge = -1 Multiplicity = 2

                          Input orientation:
 ---------------------------------------------------------------------
 Center     Atomic      Atomic             Coordinates (Angstroms)
 Number     Number       Type             X           Y           Z
 ---------------------------------------------------------------------
      1          6           0        5.760816   -5.298117    1.263013
      2          6           0        6.694523   -5.148242    0.241089
      3          6           0        6.575649   -4.152295   -0.739213
      4          6           0        4.642845   -4.407207    1.315844
      5          6           0        4.529927   -3.394847    0.312468
      6          6           0        5.502084   -3.286512   -0.699665
      7          6           0        3.609655   -4.501644    2.367563
      8          6           0        2.518858   -3.548609    2.327115
      9          6           0        2.441390   -2.585319    1.344041
     10          6           0        3.406685   -2.442024    0.302147
     11          8           0        3.651000   -5.375583    3.284403
     12          8           0        3.308939   -1.542523   -0.590477
     13          6           0        5.999870   -6.411464    2.259195
     14          1           0        7.540839   -5.826920    0.205754
     15          6           0        1.467030   -3.643806    3.400079
     16          1           0        1.610875   -1.883848    1.339288
     17          1           0        5.379414   -2.506446   -1.440753
     18          1           0        7.324684   -4.068259   -1.519582
     19          1           0        6.919740   -6.942668    2.001200
     20          1           0        5.174493   -7.125436    2.274556
     21          1           0        6.086536   -6.032221    3.278840
     22          1           0        1.007057   -4.636817    3.417800
     23          1           0        0.682821   -2.899845    3.244919
     24          1           0        1.897913   -3.488339    4.394777
 ---------------------------------------------------------------------

 SCF Done:  E(UB3LYP) =  -614.059082484     A.U. after    1 cycles

 Alpha  occ. eigenvalues --  -19.06978 -19.06926 -10.21671 -10.21551 -10.18200
 Alpha  occ. eigenvalues --  -10.17371 -10.16958 -10.16840 -10.16838 -10.16510
 Alpha  occ. eigenvalues --  -10.16360 -10.15539 -10.15339 -10.15302  -0.99304
 Alpha  occ. eigenvalues --   -0.98879  -0.85533  -0.80847  -0.76754  -0.75032
 Alpha  occ. eigenvalues --   -0.69748  -0.68501  -0.64814  -0.60686  -0.58810
 Alpha  occ. eigenvalues --   -0.53642  -0.50416  -0.49078  -0.46623  -0.44478
 Alpha  occ. eigenvalues --   -0.42797  -0.42725  -0.40985  -0.40710  -0.40028
 Alpha  occ. eigenvalues --   -0.38805  -0.38678  -0.38099  -0.37351  -0.36107
 Alpha  occ. eigenvalues --   -0.35986  -0.34312  -0.34064  -0.33324  -0.26824
 Alpha  occ. eigenvalues --   -0.24564  -0.24404  -0.23773  -0.22985  -0.14773
 Alpha virt. eigenvalues --   -0.02779  -0.01324  -0.00341   0.00668   0.01135
 Alpha virt. eigenvalues --    0.02456   0.02750   0.03049   0.04195   0.04843
 Alpha virt. eigenvalues --    0.04867   0.05385   0.05565   0.06097   0.06851

  Beta  occ. eigenvalues --  -19.06372 -19.06279 -10.21511 -10.21384 -10.18192
  Beta  occ. eigenvalues --  -10.17336 -10.16902 -10.16802 -10.16651 -10.16468
  Beta  occ. eigenvalues --  -10.16350 -10.15552 -10.15302 -10.15242  -0.98182
  Beta  occ. eigenvalues --   -0.97786  -0.85342  -0.80339  -0.76629  -0.74836
  Beta  occ. eigenvalues --   -0.69356  -0.68304  -0.64257  -0.60399  -0.58575
  Beta  occ. eigenvalues --   -0.53368  -0.50222  -0.48845  -0.46382  -0.44348
  Beta  occ. eigenvalues --   -0.42510  -0.41989  -0.40564  -0.40551  -0.39864
  Beta  occ. eigenvalues --   -0.38428  -0.37950  -0.37680  -0.37278  -0.35806
  Beta  occ. eigenvalues --   -0.34153  -0.33761  -0.33187  -0.33149  -0.24292
  Beta  occ. eigenvalues --   -0.23957  -0.23529  -0.23206  -0.22407
  Beta virt. eigenvalues --   -0.08153  -0.01981  -0.00322  -0.00216   0.00672
  Beta virt. eigenvalues --    0.01149   0.02466   0.02761   0.03149   0.04215
  Beta virt. eigenvalues --    0.04862   0.05293   0.05576   0.05988   0.06678

 Mulliken charges and spin densities:
               1          2
     1  C    0.586924   0.017837
     2  C   -0.525625   0.025606
     3  C   -0.404576   0.028112
     4  C    0.567511   0.014362
     5  C    0.580449   0.049036
     6  C   -0.101517   0.027877
     7  C   -0.894256   0.110687
     8  C    0.542516   0.110687
     9  C   -0.372752   0.059891
    10  C   -0.818178   0.095050
    11  O   -0.439462   0.238172
    12  O   -0.507875   0.217892
    13  C   -0.457881   0.004969
    14  H    0.123509  -0.002934
    15  C   -0.318128   0.002638
    16  H    0.144560  -0.007925
    17  H    0.161024  -0.002573
    18  H    0.188524  -0.001986
    19  H    0.144924  -0.000318
    20  H    0.158287   0.000043
    21  H    0.158249   0.000007
    22  H    0.164389   0.006110
    23  H    0.153142  -0.000037
    24  H    0.166243   0.006801
 Sum of Mulliken charges =  -1.00000   1.00000

 Dipole moment (field-independent basis, Debye):
    X=            -17.1248    Y=             15.8496    Z=             -5.2534  Tot=             23.9179
 Quadrupole moment (field-independent basis, Debye-Ang):
   XX=           -145.1363   YY=           -156.5927   ZZ=           -110.1885
   XY=             56.2787   XZ=            -22.2198   YZ=             35.2103

  Exact polarizability: 249.487 -56.053 234.311 -56.745 -72.095 252.279
 Approx polarizability: 263.859 -55.514 266.421 -54.880 -89.188 286.308

                      1                      2                      3
                      A                      A                      A
 Frequencies --     60.1005                73.6896               144.3564
 Red. masses --      4.1040                 4.4898                 1.1582
 Frc consts  --      0.0087                 0.0144                 0.0142
 IR Inten    --      7.1277                10.8271                 0.4541

                      4                      5                      6
                      A                      A                      A
 Frequencies --    169.7724               196.8370               217.0566
 Red. masses --      3.8921                 1.6369                 1.5916
 Frc consts  --      0.0661                 0.0374                 0.0442
 IR Inten    --      2.6183                 2.4412                 0.0267

                      7                      8                      9
                      A                      A                      A
 Frequencies --    242.6439               249.7731               311.3687
 Red. masses --      3.3770                 3.7143                 4.3895
 Frc consts  --      0.1171                 0.1365                 0.2507
 IR Inten    --      7.6972                 1.6103                 0.0713

                     10                     11                     12
                      A                      A                      A
 Frequencies --    361.3404               373.1615               377.6783
 Red. masses --      3.8267                 4.7271                10.1923
 Frc consts  --      0.2944                 0.3878                 0.8566
 IR Inten    --      9.2487                 0.1813                21.0790

                     13                     14                     15
                      A                      A                      A
 Frequencies --    412.7152               473.6371               488.1794
 Red. masses --      5.6506                 6.0899                 3.7782
 Frc consts  --      0.5671                 0.8049                 0.5305
 IR Inten    --      3.4006                 2.2148                 0.0707

                     16                     17                     18
                      A                      A                      A
 Frequencies --    517.6864               525.1965               565.4393
 Red. masses --      3.6789                 6.8368                 5.0870
 Frc consts  --      0.5809                 1.1111                 0.9583
 IR Inten    --      4.1497                 4.2430                 8.2065

                     19                     20                     21
                      A                      A                      A
 Frequencies --    664.2060               676.0195               697.4383
 Red. masses --      4.3728                 3.7555                 3.2239
 Frc consts  --      1.1366                 1.0112                 0.9239
 IR Inten    --      1.1487                 0.5366                26.8186

                     22                     23                     24
                      A                      A                      A
 Frequencies --    707.6231               782.9433               797.6364
 Red. masses --      6.2963                 2.0668                 4.6346
 Frc consts  --      1.8576                 0.7465                 1.7373
 IR Inten    --     48.3106                37.1316                 5.4729

                     25                     26                     27
                      A                      A                      A
 Frequencies --    807.0052               872.3284               886.8279
 Red. masses --      2.4321                 1.4958                 4.7766
 Frc consts  --      0.9332                 0.6706                 2.2133
 IR Inten    --     36.2930                33.0213                17.2800

                     28                     29                     30
                      A                      A                      A
 Frequencies --    918.7304               966.4303               994.3589
 Red. masses --      1.3545                 3.0120                 1.3096
 Frc consts  --      0.6736                 1.6575                 0.7629
 IR Inten    --      0.1575                44.5255                 1.1945

                     31                     32                     33
                      A                      A                      A
 Frequencies --   1020.9946              1029.5011              1045.8036
 Red. masses --      1.7035                 1.7287                 1.4991
 Frc consts  --      1.0462                 1.0795                 0.9660
 IR Inten    --     21.7493                23.8176                 3.1306

                     34                     35                     36
                      A                      A                      A
 Frequencies --   1053.2042              1098.2412              1160.9231
 Red. masses --      1.5493                 2.1742                 1.6820
 Frc consts  --      1.0126                 1.5451                 1.3356
 IR Inten    --      4.1311                24.9372                 3.8073

                     37                     38                     39
                      A                      A                      A
 Frequencies --   1167.0909              1187.1151              1222.9278
 Red. masses --      2.0533                 2.4308                 3.9719
 Frc consts  --      1.6478                 2.0183                 3.4999
 IR Inten    --      5.2299                75.2827                55.4754

                     40                     41                     42
                      A                      A                      A
 Frequencies --   1255.4904              1291.4044              1331.6891
 Red. masses --      2.2535                 2.0441                 7.2731
 Frc consts  --      2.0928                 2.0085                 7.5993
 IR Inten    --     23.8674                10.4724                 3.2838

                     43                     44                     45
                      A                      A                      A
 Frequencies --   1395.6638              1408.1060              1410.9280
 Red. masses --      1.3941                 1.6304                 1.8458
 Frc consts  --      1.5999                 1.9047                 2.1650
 IR Inten    --     59.8738                70.3493                49.2862

                     46                     47                     48
                      A                      A                      A
 Frequencies --   1413.8075              1448.4675              1459.2446
 Red. masses --      2.7667                 3.4233                 1.0516
 Frc consts  --      3.2583                 4.2317                 1.3194
 IR Inten    --     47.9197               751.9921                12.6067

                     49                     50                     51
                      A                      A                      A
 Frequencies --   1460.4154              1469.6390              1481.1375
 Red. masses --      1.0473                 1.4092                 1.2211
 Frc consts  --      1.3161                 1.7932                 1.5783
 IR Inten    --      9.6342                17.3261                35.3460

                     52                     53                     54
                      A                      A                      A
 Frequencies --   1497.2488              1516.9130              1562.7797
 Red. masses --      3.6071                 3.8913                 5.1690
 Frc consts  --      4.7642                 5.2755                 7.4379
 IR Inten    --     13.0633               860.3524               137.8139

                     55                     56                     57
                      A                      A                      A
 Frequencies --   1615.9879              1624.4086              3016.9562
 Red. masses --      5.6048                 6.7537                 1.0366
 Frc consts  --      8.6236                10.4998                 5.5590
 IR Inten    --      2.3145                 9.2591                83.8296

                     58                     59                     60
                      A                      A                      A
 Frequencies --   3031.3725              3059.7046              3095.3235
 Red. masses --      1.0371                 1.0986                 1.0995
 Frc consts  --      5.6151                 6.0599                 6.2069
 IR Inten    --     65.5371                38.3140                24.6703

                     61                     62                     63
                      A                      A                      A
 Frequencies --   3096.4012              3096.5927              3138.5047
 Red. masses --      1.1010                 1.1012                 1.0893
 Frc consts  --      6.2194                 6.2214                 6.3216
 IR Inten    --     64.8544                10.4261                59.1210

                     64                     65                     66
                      A                      A                      A
 Frequencies --   3150.9761              3168.0951              3190.4217
 Red. masses --      1.0866                 1.0918                 1.0932
 Frc consts  --      6.3566                 6.4563                 6.5561
 IR Inten    --     24.6823                41.0875                25.1322

 - Thermochemistry -
 -------------------
 Temperature   298.150 Kelvin.  Pressure   1.00000 Atm.
 Atom     1 has atomic number  6 and mass  12.00000

 Molecular mass:   186.06808 amu.
 Principal axes and moments of inertia in atomic units:
                           1         2         3
     Eigenvalues --  1910.233052448.271354336.54107
           X            0.84680  -0.07217   0.52700
           Y           -0.33015   0.70551   0.62710
           Z           -0.41706  -0.70502   0.57360
 This molecule is an asymmetric top.
 Rotational symmetry number  1.
 Warning -- assumption of classical behavior for rotation
           may cause significant error
 Rotational temperatures (Kelvin)      0.04534     0.03538     0.01997
 Rotational constants (GHZ):           0.94478     0.73715     0.41617
 Zero-point vibrational energy     485717.7 (Joules/Mol)
                                  116.08932 (Kcal/Mol)
 Warning -- explicit consideration of  18 degrees of freedom as
           vibrations may cause significant error
 Vibrational temperatures:     86.47   106.02   207.70   244.26   283.20
          (Kelvin)            312.30   349.11   359.37   447.99   519.89
                              536.90   543.39   593.81   681.46   702.38
                              744.84   755.64   813.54   955.64   972.64
                             1003.46  1018.11  1126.48  1147.62  1161.10
                             1255.09  1275.95  1321.85  1390.48  1430.66
                             1468.98  1481.22  1504.68  1515.33  1580.12
                             1670.31  1679.18  1707.99  1759.52  1806.37
                             1858.04  1916.00  2008.05  2025.95  2030.01
                             2034.15  2084.02  2099.53  2101.21  2114.48
                             2131.03  2154.21  2182.50  2248.49  2325.05
                             2337.16  4340.73  4361.47  4402.23  4453.48
                             4455.03  4455.31  4515.61  4533.55  4558.18
                             4590.31

 Zero-point correction=                           0.185000 (Hartree/Particle)
 Thermal correction to Energy=                    0.196870
 Thermal correction to Enthalpy=                  0.197814
 Thermal correction to Gibbs Free Energy=         0.146633
 Sum of electronic and zero-point Energies=           -613.874082
 Sum of electronic and thermal Energies=              -613.862212
 Sum of electronic and thermal Enthalpies=            -613.861268
 Sum of electronic and thermal Free Energies=         -613.912450

                     E (Thermal)             CV                S
                      KCal/Mol        Cal/Mol-Kelvin    Cal/Mol-Kelvin
 Total                  123.538             46.501            107.720
 Electronic               0.000              0.000              1.377
 Translational            0.889              2.981             41.569
 Rotational               0.889              2.981             31.384
 Vibrational            121.760             40.539             33.390
 Vibration     1          0.597              1.973              4.454
 Vibration     2          0.599              1.966              4.052
 Vibration     3          0.616              1.909              2.745
 Vibration     4          0.625              1.880              2.438
 Vibration     5          0.636              1.844              2.162
 Vibration     6          0.646              1.815              1.984
 Vibration     7          0.659              1.775              1.783
 Vibration     8          0.663              1.763              1.732
 Vibration     9          0.700              1.652              1.355
 Vibration    10          0.736              1.552              1.116
 Vibration    11          0.745              1.527              1.067
 Vibration    12          0.748              1.518              1.048
 Vibration    13          0.776              1.443              0.917
 Vibration    14          0.830              1.309              0.727
 Vibration    15          0.844              1.276              0.688
 Vibration    16          0.873              1.211              0.615
 Vibration    17          0.880              1.194              0.598
 Vibration    18          0.921              1.106              0.513

 Optimization completed.
    -- Stationary point found.
 Normal termination of Gaussian 16 at Sun Feb 11 02:22:37 2024.
