 Gaussian 16, Revision A.03,
 Gaussian 16:  ES64L-G16RevA.03 25-Dec-2016

 ----------------------------------------------------------------
 #P UB3LYP/6-311++G(d,p) SCRF=(PCM,Solvent=n,n-DiMethylFormamide)
 ----------------------------------------------------------------

 ------------------
 Quinone PCM in DMF
 ------------------
 Symbolic Z-matrix:
 Charge =  0 Multiplicity = 1

                         Standard orientation:
 ---------------------------------------------------------------------
 Center     Atomic      Atomic             Coordinates (Angstroms)
 Number     Number       Type             X           Y           Z
 ---------------------------------------------------------------------
      1          6           0       -3.506769    1.225865    0.000698
      2          6           0       -2.689147   -0.079499    0.000144
      3          6           0       -3.072557   -0.882262    1.269057
      4          6           0       -3.073083   -0.881645   -1.268984
      5          6           0       -1.181227    0.201669   -0.000060
      6          6           0       -0.669555    1.449926   -0.000039
      7          6           0        0.771687    1.778668   -0.000087
      8          8           0        1.135950    2.945352   -0.000502
      9          6           0        1.735775    0.648155    0.000006
     10          6           0        3.110921    0.891373    0.000123
     11          6           0        4.002642   -0.175728    0.000275
     12          6           0        3.523423   -1.488461    0.000286
     13          6           0        2.154562   -1.734988    0.000104
     14          6           0        1.251285   -0.667947   -0.000027
     15          6           0       -0.217594   -0.958109   -0.000168
     16          8           0       -0.607246   -2.114608   -0.000969
     17          1           0       -3.311433    1.834655   -0.886477
     18          1           0       -4.571168    0.979087    0.001213
     19          1           0       -3.310418    1.834403    0.887806
     20          1           0       -2.580803   -1.853013    1.295733
     21          1           0       -4.154536   -1.042822    1.281799
     22          1           0       -2.806969   -0.328636    2.174612
     23          1           0       -4.155013   -1.042626   -1.281054
     24          1           0       -2.580895   -1.852158   -1.296557
     25          1           0       -2.808347   -0.327372   -2.174392
     26          1           0       -1.305657    2.325784    0.000034
     27          1           0        3.456799    1.917843    0.000107
     28          1           0        5.070480    0.011157    0.000425
     29          1           0        4.220451   -2.318780    0.000457
     30          1           0        1.765714   -2.745573    0.000095
 ---------------------------------------------------------------------

 SCF Done:  E(UB3LYP) =  -692.564273525     A.U. after   14 cycles

 The electronic state is 1-A.
 Alpha  occ. eigenvalues --  -19.13653 -19.13519 -10.28727 -10.28278 -10.21967
 Alpha  occ. eigenvalues --  -10.20904 -10.20744 -10.20446 -10.20328 -10.19952
 Alpha  occ. eigenvalues --  -10.19919 -10.19879 -10.19845 -10.16282 -10.16049
 Alpha  occ. eigenvalues --  -10.16049  -1.07137  -1.06692  -0.89181  -0.85737
 Alpha  occ. eigenvalues --   -0.81093  -0.77942  -0.76845  -0.70189  -0.69050
 Alpha  occ. eigenvalues --   -0.68923  -0.65121  -0.64260  -0.59399  -0.56538
 Alpha  occ. eigenvalues --   -0.54233  -0.52632  -0.50004  -0.48807  -0.46525
 Alpha  occ. eigenvalues --   -0.46188  -0.45796  -0.45299  -0.44704  -0.44326
 Alpha  occ. eigenvalues --   -0.43708  -0.42399  -0.41738  -0.39344  -0.38456
 Alpha  occ. eigenvalues --   -0.38406  -0.37947  -0.37131  -0.36878  -0.35852
 Alpha  occ. eigenvalues --   -0.34393  -0.33921  -0.29891  -0.28668  -0.28029
 Alpha  occ. eigenvalues --   -0.27956  -0.27373
 Alpha virt. eigenvalues --   -0.12629  -0.05843  -0.03302  -0.00809   0.00104
 Alpha virt. eigenvalues --    0.01018   0.01723   0.01810   0.02159   0.02270
 Alpha virt. eigenvalues --    0.03396   0.03568   0.03873   0.04222   0.04823

  Beta  occ. eigenvalues --  -19.13653 -19.13519 -10.28727 -10.28278 -10.21967
  Beta  occ. eigenvalues --  -10.20904 -10.20744 -10.20446 -10.20328 -10.19952
  Beta  occ. eigenvalues --  -10.19919 -10.19879 -10.19845 -10.16282 -10.16049
  Beta  occ. eigenvalues --  -10.16049  -1.07137  -1.06692  -0.89181  -0.85737
  Beta  occ. eigenvalues --   -0.81093  -0.77942  -0.76845  -0.70189  -0.69050
  Beta  occ. eigenvalues --   -0.68923  -0.65121  -0.64260  -0.59399  -0.56538
  Beta  occ. eigenvalues --   -0.54233  -0.52632  -0.50004  -0.48807  -0.46525
  Beta  occ. eigenvalues --   -0.46188  -0.45796  -0.45299  -0.44704  -0.44326
  Beta  occ. eigenvalues --   -0.43708  -0.42399  -0.41738  -0.39344  -0.38456
  Beta  occ. eigenvalues --   -0.38406  -0.37947  -0.37131  -0.36878  -0.35852
  Beta  occ. eigenvalues --   -0.34393  -0.33921  -0.29891  -0.28668  -0.28029
  Beta  occ. eigenvalues --   -0.27956  -0.27373
  Beta virt. eigenvalues --   -0.12629  -0.05843  -0.03302  -0.00809   0.00104
  Beta virt. eigenvalues --    0.01018   0.01723   0.01810   0.02159   0.02270
  Beta virt. eigenvalues --    0.03396   0.03568   0.03873   0.04222   0.04823

 Mulliken charges and spin densities:
               1          2
     1  C   -0.480480   0.000000
     2  C    0.646037  -0.000000
     3  C   -0.697309   0.000000
     4  C   -0.697269   0.000000
     5  C    0.885750   0.000000
     6  C   -0.212626   0.000000
     7  C   -0.736446  -0.000000
     8  O   -0.293532   0.000000
     9  C    0.646131   0.000000
    10  C   -0.094193  -0.000000
    11  C   -0.399828   0.000000
    12  C   -0.375595  -0.000000
    13  C    0.213434   0.000000
    14  C    0.368279  -0.000000
    15  C   -1.038911   0.000000
    16  O   -0.224282  -0.000000
    17  H    0.142631   0.000000
    18  H    0.185457   0.000000
    19  H    0.142588   0.000000
    20  H    0.182698  -0.000000
    21  H    0.168524  -0.000000
    22  H    0.148370  -0.000000
    23  H    0.168521  -0.000000
    24  H    0.182702  -0.000000
    25  H    0.148354  -0.000000
    26  H    0.235856   0.000000
    27  H    0.179241  -0.000000
    28  H    0.210356   0.000000
    29  H    0.207731  -0.000000
    30  H    0.187812  -0.000000
 Sum of Mulliken charges =  -0.00000  -0.00000

 Dipole moment (field-independent basis, Debye):
    X=              0.5574    Y=             -1.4155    Z=              0.0033  Tot=              1.5213
 Quadrupole moment (field-independent basis, Debye-Ang):
   XX=            -75.6200   YY=           -109.6797   ZZ=            -96.7476
   XY=            -10.3009   XZ=              0.0009   YZ=             -0.0015

 Normal termination of Gaussian 16 at Sun Jan 21 07:53:30 2024.
