 Q-Chem 5.4, Q-Chem, Inc., Pleasanton, CA (2021)
 Q-Chem 5.4.0 for Intel X86 EM64T Linux

User input:
--------------------------------------------------------------
$molecule
-3 1
O                 -2.5807160000     -2.8115590000     -1.6731710000
S                 -3.0294080000     -2.3495850000     -0.3340160000
O                 -2.6099560000     -3.1802220000      0.8243300000
O                 -4.5217510000     -2.1254110000     -0.3184870000
C                 -2.3300320000     -0.6162030000     -0.0703910000
C                 -3.3435440000      0.3230190000      0.0454780000
C                 -3.0645870000      1.6899010000      0.2487680000
C                 -1.7602960000      2.1121360000      0.3431900000
C                 -0.6842280000      1.2019080000      0.2345080000
C                  0.6540600000      1.7820930000      0.3534320000
O                  0.8277720000      3.0347410000      0.5501860000
C                  1.7595100000      0.8625720000      0.2159300000
C                  3.0966840000      1.3390390000      0.2735060000
C                  4.1783390000      0.4875060000      0.1726700000
C                  3.9571570000     -0.9022360000      0.0010490000
C                  2.6613110000     -1.3840330000     -0.0833050000
C                  1.5357810000     -0.5360020000      0.0033390000
C                  0.1903870000     -1.1354720000     -0.1130640000
O                  0.0617700000     -2.3635400000     -0.3003060000
C                 -0.9501070000     -0.2109320000      0.0134740000
H                 -4.3634940000     -0.0304030000     -0.0245900000
H                 -3.8866780000      2.4006430000      0.3328190000
H                 -1.4965060000      3.1522210000      0.5027030000
H                  3.2325220000      2.4072030000      0.4072630000
H                  5.1969090000      0.8735890000      0.2265670000
H                  4.8067930000     -1.5794740000     -0.0713000000
H                  2.4623100000     -2.4414990000     -0.2227220000
$end
$rem
MAX_SCF_CYCLES=200
BASIS  =  6-311++G(d,p)
GUI  =  2
JOB_TYPE  =  SP
METHOD  =  B3LYP
SOLVENT_METHOD = COSMO
$end
$solvent
dielectric 37.219
opticaldielectric 1.43
$end

--------------------------------------------------------------

             Standard Nuclear Orientation (Angstroms)
    I     Atom           X                Y                Z
 ----------------------------------------------------------------
    1      O      -2.9075130493     1.6204098914     1.2626298016
    2      S      -3.0559881713     0.8530814218    -0.0011908975
    3      O      -2.8984979905     1.6231487279    -1.2620859958
    4      O      -4.3507587526     0.0777601917    -0.0065661774
    5      C      -1.7417826181    -0.5019420195     0.0024595387
    6      C      -2.3190332591    -1.7626948483     0.0098193459
    7      C      -1.5350127691    -2.9343652419     0.0130741757
    8      C      -0.1643547658    -2.8367230296     0.0014312177
    9      C       0.4820946806    -1.5796365778    -0.0078367637
   10      C       1.9450498750    -1.6168469477    -0.0200764824
   11      O       2.5885228244    -2.7231396021    -0.0286865650
   12      C       2.6131760273    -0.3363326292    -0.0017489993
   13      C       4.0319796014    -0.2710528080     0.0314935512
   14      C       4.7061242532     0.9334027195     0.0231413846
   15      C       3.9691685421     2.1438911741    -0.0138998406
   16      C       2.5847134614     2.1026932926    -0.0208039220
   17      C       1.8677012418     0.8865825557     0.0004020461
   18      C       0.3911290142     0.9384185435     0.0072168585
   19      O      -0.2007804998     2.0381384466     0.0107059411
   20      C      -0.3082832767    -0.3586096087    -0.0000674177
   21      H      -3.3993215344    -1.8182644250     0.0117945737
   22      H      -2.0230655253    -3.9089357608     0.0213918909
   23      H       0.4801981240    -3.7092799989    -0.0000774312
   24      H       4.5669493648    -1.2146853359     0.0576131387
   25      H       5.7962413893     0.9606385685     0.0419204318
   26      H       4.4960530189     3.0967540002    -0.0284669876
   27      H       1.9949555971     3.0132215093    -0.0407254491
 ----------------------------------------------------------------

   31   -1312.1101531633      8.54e-06  Convergence criterion met
 Total energy in the final basis set =    -1312.1101531633
    6   -1312.6466089504      6.41e-06  Convergence criterion met
 Total energy in the final basis set =    -1312.6466089504

                    Orbital Energies (a.u.)
 --------------------------------------------------------------

 Alpha MOs
 -- Occupied --
-89.0310 -19.0773 -19.0773 -19.0729 -19.0212 -19.0182 -10.1804 -10.1792
-10.1725 -10.1489 -10.1486 -10.1472 -10.1467 -10.1465 -10.1455 -10.1454
-10.1453 -10.1385 -10.1350 -10.1346  -8.0895  -6.0523  -6.0523  -6.0510
 -1.0910  -0.9615  -0.9562  -0.9494  -0.9434  -0.8295  -0.8228  -0.7503
 -0.7319  -0.7210  -0.7075  -0.6333  -0.6173  -0.5920  -0.5853  -0.5465
 -0.5191  -0.5044  -0.4967  -0.4572  -0.4450  -0.4397  -0.4370  -0.4316
 -0.4266  -0.4199  -0.3979  -0.3831  -0.3767  -0.3726  -0.3707  -0.3489
 -0.3439  -0.3398  -0.3331  -0.3237  -0.3189  -0.3146  -0.3073  -0.3060
 -0.2896  -0.2759  -0.2692  -0.2433  -0.2345  -0.2277  -0.2259  -0.2188
 -0.2034  -0.1932  -0.1013

          Ground-State Mulliken Net Atomic Charges

     Atom                 Charge (a.u.)
  ----------------------------------------
      1 O                    -0.454791
      2 S                     0.709818
      3 O                    -0.453468
      4 O                    -0.505283
      5 C                    -0.844809
      6 C                     0.527133
      7 C                    -0.402224
      8 C                    -0.458205
      9 C                     0.636076
     10 C                    -0.402410
     11 O                    -0.694380
     12 C                     0.031639
     13 C                    -0.037517
     14 C                    -0.525173
     15 C                    -0.542482
     16 C                     0.064537
     17 C                     0.344562
     18 C                    -0.767932
     19 O                    -0.561744
     20 C                     0.103446
     21 H                     0.231788
     22 H                     0.192322
     23 H                     0.145573
     24 H                     0.156184
     25 H                     0.177858
     26 H                     0.178173
     27 H                     0.151310
  ----------------------------------------
  Sum of atomic charges =    -3.000000

                    Cartesian Multipole Moments
 -----------------------------------------------------------------
    Charge (ESU x 10^10)
               -14.4096
    Dipole Moment (Debye)
         X       7.6844      Y      -3.2286      Z       0.0828
       Tot       8.3355
    Quadrupole Moments (Debye-Ang)
        XX    -245.3540     XY      42.3304     YY    -186.8434
        XZ       0.3170     YZ      -0.5071     ZZ    -145.8974

 Total job time:  176.34s(wall), 1377.03s(cpu)
        *  Thank you very much for using Q-Chem.  Have a nice day.  *
