 Gaussian 16, Revision A.03,
 Gaussian 16:  ES64L-G16RevA.03 25-Dec-2016

 ----------------------------------------------------------------
 #P UB3LYP/6-311++G(d,p) SCRF=(PCM,Solvent=n,n-DiMethylFormamide)
 ----------------------------------------------------------------

 -------
 Reduced
 -------
 Symbolic Z-matrix:
 Charge = -3 Multiplicity = 1

                         Standard orientation:
 ---------------------------------------------------------------------
 Center     Atomic      Atomic             Coordinates (Angstroms)
 Number     Number       Type             X           Y           Z
 ---------------------------------------------------------------------
      1          6           0        3.903074   -2.241537   -0.165682
      2          6           0        5.207928   -1.790082   -0.119809
      3          6           0        5.462905   -0.405092    0.055555
      4          6           0        2.799133   -1.360286   -0.045837
      5          6           0        3.055738    0.038926    0.098882
      6          6           0        4.403106    0.473845    0.166189
      7          6           0        1.450878   -1.892362   -0.068062
      8          6           0        1.985553    1.019276    0.200095
      9          6           0        0.357328   -0.933086    0.007886
     10          6           0        0.622610    0.503046    0.071864
     11          6           0       -1.017355   -1.415669    0.009521
     12          6           0       -2.081419   -0.494610   -0.012676
     13          6           0       -1.812714    0.883262   -0.037730
     14          6           0       -0.522671    1.351084    0.013410
     15          8           0        1.282327   -3.168100   -0.170430
     16          8           0        2.252496    2.244654    0.400358
     17          1           0        3.676364   -3.294695   -0.290320
     18          1           0        6.040473   -2.486822   -0.212424
     19          1           0        6.490423   -0.045195    0.098719
     20          1           0        4.564223    1.537902    0.302365
     21         35           0       -0.421482    3.314656   -0.148400
     22          7           0       -1.260342   -2.759488    0.045174
     23         16           0       -3.834672   -0.993895    0.058921
     24          8           0       -3.940330   -2.258127   -0.750063
     25          8           0       -4.175815   -1.221565    1.494941
     26          8           0       -4.602354    0.137951   -0.540846
     27          1           0       -2.648060    1.564753   -0.117033
     28          1           0       -0.420635   -3.324913   -0.113916
     29          1           0       -2.188928   -3.044035   -0.245682
 ---------------------------------------------------------------------

 SCF Done:  E(UB3LYP) =  -3941.57138648     A.U. after   19 cycles

 The electronic state is 1-A.
 Alpha  occ. eigenvalues -- -482.79918 -89.03190 -62.45193 -56.27212 -56.26862
 Alpha  occ. eigenvalues --  -56.26829 -19.07775 -19.07774 -19.07640 -19.02748
 Alpha  occ. eigenvalues --  -19.01479 -14.27910 -10.20370 -10.19254 -10.18275
 Alpha  occ. eigenvalues --  -10.17802 -10.15837 -10.15272 -10.15090 -10.15029
 Alpha  occ. eigenvalues --  -10.14926 -10.14882 -10.14728 -10.14642 -10.13768
 Alpha  occ. eigenvalues --  -10.13676  -8.66148  -8.09054  -6.49223  -6.48070
 Alpha  occ. eigenvalues --   -6.47969  -6.05352  -6.05325  -6.05192  -2.60324
 Alpha  occ. eigenvalues --   -2.60017  -2.59940  -2.59023  -2.59021  -1.09193
 Alpha  occ. eigenvalues --   -0.95770  -0.95505  -0.95247  -0.94353  -0.89306
 Alpha  occ. eigenvalues --   -0.82931  -0.82315  -0.76478  -0.75469  -0.72292
 Alpha  occ. eigenvalues --   -0.71552  -0.68674  -0.64331  -0.62024  -0.60102
 Alpha  occ. eigenvalues --   -0.57648  -0.54913  -0.52882  -0.52274  -0.49443
 Alpha  occ. eigenvalues --   -0.48000  -0.46400  -0.45100  -0.44330  -0.43834
 Alpha  occ. eigenvalues --   -0.43309  -0.41842  -0.41365  -0.39860  -0.39159
 Alpha  occ. eigenvalues --   -0.38951  -0.37839  -0.36627  -0.35956  -0.35736
 Alpha  occ. eigenvalues --   -0.34016  -0.33608  -0.32738  -0.32213  -0.32059
 Alpha  occ. eigenvalues --   -0.31452  -0.30764  -0.30240  -0.28457  -0.28289
 Alpha  occ. eigenvalues --   -0.27565  -0.26662  -0.26197  -0.24370  -0.22997
 Alpha  occ. eigenvalues --   -0.22668  -0.22012  -0.20668  -0.18758  -0.18438
 Alpha  occ. eigenvalues --   -0.10334
 Alpha virt. eigenvalues --   -0.02323  -0.00521   0.00005   0.00337   0.01173
 Alpha virt. eigenvalues --    0.01834   0.02177   0.02669   0.03019   0.04429
 Alpha virt. eigenvalues --    0.04732   0.04873   0.05157   0.05769   0.05888

  Beta  occ. eigenvalues -- -482.79918 -89.03190 -62.45193 -56.27212 -56.26862
  Beta  occ. eigenvalues --  -56.26829 -19.07775 -19.07774 -19.07640 -19.02748
  Beta  occ. eigenvalues --  -19.01479 -14.27910 -10.20370 -10.19254 -10.18275
  Beta  occ. eigenvalues --  -10.17802 -10.15837 -10.15272 -10.15090 -10.15029
  Beta  occ. eigenvalues --  -10.14926 -10.14882 -10.14728 -10.14642 -10.13768
  Beta  occ. eigenvalues --  -10.13676  -8.66148  -8.09054  -6.49223  -6.48070
  Beta  occ. eigenvalues --   -6.47969  -6.05352  -6.05325  -6.05192  -2.60324
  Beta  occ. eigenvalues --   -2.60017  -2.59940  -2.59023  -2.59021  -1.09193
  Beta  occ. eigenvalues --   -0.95770  -0.95505  -0.95247  -0.94353  -0.89306
  Beta  occ. eigenvalues --   -0.82931  -0.82315  -0.76478  -0.75469  -0.72292
  Beta  occ. eigenvalues --   -0.71552  -0.68674  -0.64331  -0.62024  -0.60102
  Beta  occ. eigenvalues --   -0.57648  -0.54913  -0.52882  -0.52274  -0.49443
  Beta  occ. eigenvalues --   -0.48000  -0.46400  -0.45100  -0.44330  -0.43834
  Beta  occ. eigenvalues --   -0.43309  -0.41842  -0.41365  -0.39860  -0.39159
  Beta  occ. eigenvalues --   -0.38951  -0.37839  -0.36627  -0.35956  -0.35736
  Beta  occ. eigenvalues --   -0.34016  -0.33608  -0.32738  -0.32213  -0.32059
  Beta  occ. eigenvalues --   -0.31452  -0.30764  -0.30240  -0.28457  -0.28289
  Beta  occ. eigenvalues --   -0.27565  -0.26662  -0.26197  -0.24370  -0.22997
  Beta  occ. eigenvalues --   -0.22668  -0.22012  -0.20668  -0.18758  -0.18438
  Beta  occ. eigenvalues --   -0.10334
  Beta virt. eigenvalues --   -0.02323  -0.00521   0.00005   0.00337   0.01173
  Beta virt. eigenvalues --    0.01834   0.02177   0.02669   0.03019   0.04429
  Beta virt. eigenvalues --    0.04732   0.04873   0.05157   0.05769   0.05888

 Mulliken charges and spin densities:
               1          2
     1  C    0.028683  -0.000000
     2  C   -0.575348  -0.000000
     3  C   -0.444254  -0.000000
     4  C   -0.054482  -0.000000
     5  C    0.078783  -0.000000
     6  C    0.026392   0.000000
     7  C   -0.426104  -0.000000
     8  C   -1.110829  -0.000000
     9  C    0.323914  -0.000000
    10  C    0.852317   0.000000
    11  C    0.341715   0.000000
    12  C   -1.048450  -0.000000
    13  C   -0.311054   0.000000
    14  C    0.205494   0.000000
    15  O   -0.591382   0.000000
    16  O   -0.531466   0.000000
    17  H    0.149050  -0.000000
    18  H    0.159836   0.000000
    19  H    0.159352   0.000000
    20  H    0.150689  -0.000000
    21  Br  -0.245111   0.000000
    22  N   -0.477021  -0.000000
    23  S    0.701687   0.000000
    24  O   -0.460429   0.000000
    25  O   -0.365422   0.000000
    26  O   -0.395551   0.000000
    27  H    0.239675  -0.000000
    28  H    0.348648   0.000000
    29  H    0.270668  -0.000000
 Sum of Mulliken charges =  -3.00000   0.00000

 Dipole moment (field-independent basis, Debye):
    X=              9.1359    Y=              4.9364    Z=             -1.7637  Tot=             10.5330
 Quadrupole moment (field-independent basis, Debye-Ang):
   XX=           -305.0810   YY=           -226.6917   ZZ=           -171.1044
   XY=            -22.0808   XZ=              0.6053   YZ=             -0.8316

 Normal termination of Gaussian 16 at Sun Jan 14 01:35:14 2024.
