 Q-Chem 5.4, Q-Chem, Inc., Pleasanton, CA (2021)
 Q-Chem 5.4.0 for Intel X86 EM64T Linux

User input:
--------------------------------------------------------------
$molecule
-2 1
C                  0.0778990000      1.7571840000      0.0001870000
C                 -1.1243860000      0.9211170000     -0.0007070000
C                 -1.1124890000     -0.4549000000      0.0002200000
C                  0.1040730000     -1.2700490000      0.0018790000
C                  1.2955990000     -0.4703430000      0.0028020000
C                  1.2830750000      0.9782040000      0.0018770000
O                  0.0231990000      3.0199240000     -0.0014230000
O                  0.0712140000     -2.5335450000      0.0034730000
C                  2.5006280000      1.6997060000      0.0027580000
C                  2.5254350000     -1.1706940000      0.0045870000
N                  3.5048830000      2.2902190000      0.0034350000
N                  3.5397370000     -1.7437790000      0.0061210000
Cl                -2.6572820000      1.8154680000     -0.0029500000
Cl                -2.6296940000     -1.3756220000     -0.0007700000
$end
$rem
MAX_SCF_CYCLES=200
BASIS  =  6-311++G(d,p)
GUI  =  2
JOB_TYPE  =  SP
METHOD  =  B3LYP
SOLVENT_METHOD = COSMO
$end
$solvent
dielectric 37.219
opticaldielectric 1.43
$end

--------------------------------------------------------------

             Standard Nuclear Orientation (Angstroms)
    I     Atom           X                Y                Z
 ----------------------------------------------------------------
    1      C       0.1491302128    -1.5136763133    -0.0002380738
    2      C      -1.0603370565    -0.6880329691    -0.0000335306
    3      C      -1.0603337310     0.6880357698     0.0000568551
    4      C       0.1491377935     1.5136702607     0.0003081718
    5      C       1.3475321995     0.7242935782     0.0000895413
    6      C       1.3475288455    -0.7243078495    -0.0000564708
    7      O       0.1053456165    -2.7768427723     0.0003909598
    8      O       0.1053601595     2.7768358933    -0.0003989710
    9      C       2.5712732276    -1.4352585502    -0.0001478726
   10      C       2.5712696637     1.4352492109     0.0001454037
   11      N       3.5805952203    -2.0170688982    -0.0001702486
   12      N       3.5805811157     2.0170805526     0.0001263427
   13      Cl     -2.5854465898    -1.5956010359    -0.0001006592
   14      Cl     -2.5854409096     1.5956089550     0.0000787348
 ----------------------------------------------------------------

   11   -1485.4097954999      4.51e-06  Convergence criterion met
 Total energy in the final basis set =    -1485.4097954999
    6   -1485.6711044620      3.41e-06  Convergence criterion met
 Total energy in the final basis set =    -1485.6711044620

                    Orbital Energies (a.u.)
 --------------------------------------------------------------

 Alpha MOs
 -- Occupied --
********-101.5517 -19.0609 -19.0609 -14.3024 -14.3024 -10.2347 -10.2341
-10.2329 -10.2329 -10.2090 -10.2090 -10.1901 -10.1897  -9.4659  -9.4659
 -7.2304  -7.2304  -7.2213  -7.2213  -7.2201  -7.2201  -0.9927  -0.9888
 -0.9060  -0.8999  -0.8866  -0.8401  -0.8210  -0.7415  -0.7157  -0.6333
 -0.6026  -0.5085  -0.5073  -0.5004  -0.4459  -0.4283  -0.4110  -0.4034
 -0.3995  -0.3787  -0.3783  -0.3734  -0.3718  -0.3470  -0.3355  -0.3340
 -0.3318  -0.3242  -0.3239  -0.3018  -0.2633  -0.2432  -0.2426  -0.2399
 -0.1654

          Ground-State Mulliken Net Atomic Charges

     Atom                 Charge (a.u.)
  ----------------------------------------
      1 C                    -1.522761
      2 C                     0.748320
      3 C                     0.749201
      4 C                    -1.522792
      5 C                     1.820945
      6 C                     1.821540
      7 O                    -0.565951
      8 O                    -0.565938
      9 C                    -1.459123
     10 C                    -1.459048
     11 N                    -0.385709
     12 N                    -0.385629
     13 Cl                    0.363502
     14 Cl                    0.363444
  ----------------------------------------
  Sum of atomic charges =    -2.000000

                    Cartesian Multipole Moments
 -----------------------------------------------------------------
    Charge (ESU x 10^10)
                -9.6064
    Dipole Moment (Debye)
         X     -11.2486      Y      -0.0000      Z       0.0007
       Tot      11.2486
    Quadrupole Moments (Debye-Ang)
        XX    -161.5944     XY       0.0000     YY    -167.4416
        XZ       0.0004     YZ       0.0055     ZZ     -97.2154

 Total job time:  28.46s(wall), 213.91s(cpu)
        *  Thank you very much for using Q-Chem.  Have a nice day.  *
