 Q-Chem 5.4, Q-Chem, Inc., Pleasanton, CA (2021)
 Q-Chem 5.4.0 for Intel X86 EM64T Linux

User input:
--------------------------------------------------------------
$molecule
0 1
N                 -4.6815940000      0.3903010000      0.3318700000
C                 -3.7041570000     -0.1485860000      0.6343970000
C                 -2.4970910000     -0.8079750000      1.0029970000
C                 -2.6259500000     -1.8998350000      1.9079670000
N                 -2.7257450000     -2.7872720000      2.6426990000
C                 -1.2656700000     -0.4094410000      0.5084000000
C                 -1.1526890000      0.7017260000     -0.4098970000
C                  0.0494580000      1.0905590000     -0.8928770000
C                  1.2655830000      0.4094150000     -0.5084400000
C                  1.1526420000     -0.7015170000      0.4100450000
C                 -0.0494770000     -1.0904270000      0.8930040000
C                  2.4970210000      0.8078750000     -1.0030090000
C                  3.7041120000      0.1484180000     -0.6345700000
N                  4.6815740000     -0.3905130000     -0.3321430000
C                  2.6260050000      1.8996520000     -1.9080990000
N                  2.7259140000      2.7868420000     -2.6429930000
H                 -2.0528800000      1.2245890000     -0.7093420000
H                  0.1141190000      1.9255000000     -1.5799680000
H                  2.0529570000     -1.2240580000      0.7097360000
H                 -0.1141320000     -1.9252510000      1.5802240000
$end
$rem
MAX_SCF_CYCLES=200
BASIS  =  6-311++G(d,p)
GUI  =  2
JOB_TYPE  =  SP
METHOD  =  B3LYP
SOLVENT_METHOD = PCM
$end
$pcm
theory = CPCM
$end
$solvent
dielectric 37.219
opticaldielectric 1.43
$end

--------------------------------------------------------------

             Standard Nuclear Orientation (Angstroms)
    I     Atom           X                Y                Z
 ----------------------------------------------------------------
    1      N      -4.6815940000     0.3903010000     0.3318700000
    2      C      -3.7041570000    -0.1485860000     0.6343970000
    3      C      -2.4970910000    -0.8079750000     1.0029970000
    4      C      -2.6259500000    -1.8998350000     1.9079670000
    5      N      -2.7257450000    -2.7872720000     2.6426990000
    6      C      -1.2656700000    -0.4094410000     0.5084000000
    7      C      -1.1526890000     0.7017260000    -0.4098970000
    8      C       0.0494580000     1.0905590000    -0.8928770000
    9      C       1.2655830000     0.4094150000    -0.5084400000
   10      C       1.1526420000    -0.7015170000     0.4100450000
   11      C      -0.0494770000    -1.0904270000     0.8930040000
   12      C       2.4970210000     0.8078750000    -1.0030090000
   13      C       3.7041120000     0.1484180000    -0.6345700000
   14      N       4.6815740000    -0.3905130000    -0.3321430000
   15      C       2.6260050000     1.8996520000    -1.9080990000
   16      N       2.7259140000     2.7868420000    -2.6429930000
   17      H      -2.0528800000     1.2245890000    -0.7093420000
   18      H       0.1141190000     1.9255000000    -1.5799680000
   19      H       2.0529570000    -1.2240580000     0.7097360000
   20      H      -0.1141320000    -1.9252510000     1.5802240000
 ----------------------------------------------------------------

    8    -678.7771191495      7.05e-06  Convergence criterion met
 Total energy in the final basis set =     -678.7771191495

                    Orbital Energies (a.u.)
 --------------------------------------------------------------

 Alpha MOs
 -- Occupied --
-14.3525 -14.3525 -14.3525 -14.3525 -10.2850 -10.2850 -10.2637 -10.2637
-10.2533 -10.2533 -10.2532 -10.2532 -10.2270 -10.2270 -10.2263 -10.2263
 -0.9612  -0.9591  -0.9460  -0.9460  -0.9220  -0.8822  -0.8330  -0.8057
 -0.7560  -0.6787  -0.6711  -0.6311  -0.5905  -0.5846  -0.5614  -0.4921
 -0.4829  -0.4737  -0.4600  -0.4463  -0.4405  -0.4144  -0.4135  -0.4110
 -0.4084  -0.4007  -0.3887  -0.3871  -0.3832  -0.3830  -0.3821  -0.3726
 -0.3701  -0.3384  -0.3115  -0.2652

          Ground-State Mulliken Net Atomic Charges

     Atom                 Charge (a.u.)
  ----------------------------------------
      1 N                    -0.217468
      2 C                    -1.443349
      3 C                     2.527282
      4 C                    -1.441329
      5 N                    -0.217515
      6 C                     1.696215
      7 C                    -0.654049
      8 C                    -0.651169
      9 C                     1.695201
     10 C                    -0.654610
     11 C                    -0.651411
     12 C                     2.526934
     13 C                    -1.442933
     14 N                    -0.217476
     15 C                    -1.441219
     16 N                    -0.217597
     17 H                     0.201347
     18 H                     0.200930
     19 H                     0.201344
     20 H                     0.200871
  ----------------------------------------
  Sum of atomic charges =     0.000000

                    Cartesian Multipole Moments
 -----------------------------------------------------------------
    Charge (ESU x 10^10)
                -0.0000
    Dipole Moment (Debye)
         X       0.0000      Y       0.0013      Z       0.0010
       Tot       0.0016
    Quadrupole Moments (Debye-Ang)
        XX    -145.1189     XY      -9.3729     YY    -106.9935
        XZ      15.1924     YZ      14.7514     ZZ    -104.5399

 Total job time:  38.57s(wall), 184.53s(cpu)
        *  Thank you very much for using Q-Chem.  Have a nice day.  *
