 Q-Chem 5.4, Q-Chem, Inc., Pleasanton, CA (2021)
 Q-Chem 5.4.0 for Intel X86 EM64T Linux

User input:
--------------------------------------------------------------
$molecule
0 1
C                  5.9533810000     -5.1550410000      1.1116990000
C                  6.8898280000     -4.9632390000      0.0984110000
C                  6.6805030000     -3.9909400000     -0.8819780000
C                  4.7994170000     -4.3740470000      1.1508580000
C                  4.5901620000     -3.3991740000      0.1673340000
C                  5.5317560000     -3.2082840000     -0.8491570000
C                  3.8018690000     -4.5951050000      2.2501770000
C                  2.6030410000     -3.7548840000      2.2560720000
C                  2.3542120000     -2.7867810000      1.3139020000
C                  3.3723190000     -2.5680520000      0.2004460000
O                  4.0067710000     -5.4517320000      3.0971140000
O                  3.1463520000     -1.7065540000     -0.6339710000
H                  6.0970270000     -5.9033440000      1.8808770000
H                  7.7858480000     -5.5730900000      0.0720510000
H                  5.3468520000     -2.4481030000     -1.5978180000
Cl                 1.4999070000     -4.0895220000      3.5786150000
H                  7.4120790000     -3.8455080000     -1.6683250000
N                  1.3153520000     -1.9407690000      1.1791720000
C                  0.1019990000     -1.7564220000      1.9770210000
C                 -0.7492520000     -0.6434040000      1.3655670000
C                 -2.0363590000     -0.4014020000      2.1575270000
H                  1.4252970000     -1.3374800000      0.3701270000
H                  0.3662290000     -1.5012670000      3.0061970000
H                 -0.4690780000     -2.6874680000      2.0098830000
H                 -0.9958490000     -0.9062750000      0.3303730000
H                 -0.1600640000      0.2801070000      1.3263180000
H                 -2.6586360000     -1.3005020000      2.1893250000
H                 -2.6288750000      0.3964810000      1.7041220000
H                 -1.8194300000     -0.1091790000      3.1891090000
$end
$rem
MAX_SCF_CYCLES=200
BASIS  =  6-311++G(d,p)
GUI  =  2
JOB_TYPE  =  SP
METHOD  =  B3LYP
SOLVENT_METHOD = PCM
$end
$pcm
theory = CPCM
$end
$solvent
dielectric 37.219
opticaldielectric 1.43
$end

--------------------------------------------------------------

             Standard Nuclear Orientation (Angstroms)
    I     Atom           X                Y                Z
 ----------------------------------------------------------------
    1      C       5.9533810000    -5.1550410000     1.1116990000
    2      C       6.8898280000    -4.9632390000     0.0984110000
    3      C       6.6805030000    -3.9909400000    -0.8819780000
    4      C       4.7994170000    -4.3740470000     1.1508580000
    5      C       4.5901620000    -3.3991740000     0.1673340000
    6      C       5.5317560000    -3.2082840000    -0.8491570000
    7      C       3.8018690000    -4.5951050000     2.2501770000
    8      C       2.6030410000    -3.7548840000     2.2560720000
    9      C       2.3542120000    -2.7867810000     1.3139020000
   10      C       3.3723190000    -2.5680520000     0.2004460000
   11      O       4.0067710000    -5.4517320000     3.0971140000
   12      O       3.1463520000    -1.7065540000    -0.6339710000
   13      H       6.0970270000    -5.9033440000     1.8808770000
   14      H       7.7858480000    -5.5730900000     0.0720510000
   15      H       5.3468520000    -2.4481030000    -1.5978180000
   16      Cl      1.4999070000    -4.0895220000     3.5786150000
   17      H       7.4120790000    -3.8455080000    -1.6683250000
   18      N       1.3153520000    -1.9407690000     1.1791720000
   19      C       0.1019990000    -1.7564220000     1.9770210000
   20      C      -0.7492520000    -0.6434040000     1.3655670000
   21      C      -2.0363590000    -0.4014020000     2.1575270000
   22      H       1.4252970000    -1.3374800000     0.3701270000
   23      H       0.3662290000    -1.5012670000     3.0061970000
   24      H      -0.4690780000    -2.6874680000     2.0098830000
   25      H      -0.9958490000    -0.9062750000     0.3303730000
   26      H      -0.1600640000     0.2801070000     1.3263180000
   27      H      -2.6586360000    -1.3005020000     2.1893250000
   28      H      -2.6288750000     0.3964810000     1.7041220000
   29      H      -1.8194300000    -0.1091790000     3.1891090000
 ----------------------------------------------------------------

    9   -1168.2469204504      3.80e-06  Convergence criterion met
 Total energy in the final basis set =    -1168.2469204504

                    Orbital Energies (a.u.)
 --------------------------------------------------------------

 Alpha MOs
 -- Occupied --
******** -19.1485 -19.1211 -14.3603 -10.2989 -10.2786 -10.2628 -10.2406
-10.2110 -10.2099 -10.2094 -10.1997 -10.1982 -10.1956 -10.1954 -10.1731
-10.1594  -9.4754  -7.2401  -7.2303  -7.2297  -1.0861  -1.0593  -0.9686
 -0.8926  -0.8781  -0.8193  -0.7937  -0.7792  -0.7537  -0.7074  -0.6811
 -0.6488  -0.6246  -0.6126  -0.5914  -0.5587  -0.5437  -0.5205  -0.4962
 -0.4882  -0.4855  -0.4689  -0.4622  -0.4522  -0.4502  -0.4501  -0.4309
 -0.4253  -0.4158  -0.4121  -0.3872  -0.3835  -0.3704  -0.3691  -0.3613
 -0.3541  -0.3429  -0.3297  -0.3190  -0.3021  -0.2868  -0.2793  -0.2789
 -0.2304

          Ground-State Mulliken Net Atomic Charges

     Atom                 Charge (a.u.)
  ----------------------------------------
      1 C                     0.108060
      2 C                    -0.401565
      3 C                    -0.537350
      4 C                     0.274933
      5 C                     0.457710
      6 C                     0.036977
      7 C                    -0.556864
      8 C                    -0.121390
      9 C                     0.084202
     10 C                    -0.337831
     11 O                    -0.316979
     12 O                    -0.274002
     13 H                     0.205646
     14 H                     0.221715
     15 H                     0.208824
     16 Cl                    0.489514
     17 H                     0.223650
     18 N                    -0.071217
     19 C                    -0.256655
     20 C                    -0.307084
     21 C                    -0.685228
     22 H                     0.375059
     23 H                     0.197989
     24 H                     0.198055
     25 H                     0.160467
     26 H                     0.160343
     27 H                     0.150242
     28 H                     0.162565
     29 H                     0.150217
  ----------------------------------------
  Sum of atomic charges =     0.000000

                    Cartesian Multipole Moments
 -----------------------------------------------------------------
    Charge (ESU x 10^10)
                -0.0000
    Dipole Moment (Debye)
         X      -0.5030      Y       3.6839      Z      -3.9605
       Tot       5.4323
    Quadrupole Moments (Debye-Ang)
        XX     -84.2406     XY       1.5396     YY    -134.3837
        XZ     -21.9150     YZ      29.7353     ZZ    -125.0900

 Total job time:  53.82s(wall), 333.87s(cpu)
        *  Thank you very much for using Q-Chem.  Have a nice day.  *
