 Q-Chem 5.4, Q-Chem, Inc., Pleasanton, CA (2021)
 Q-Chem 5.4.0 for Intel X86 EM64T Linux

User input:
--------------------------------------------------------------
$molecule
-1 2
C                  6.8973820000     -1.6411380000     -0.2542620000
C                  7.4565760000     -0.6827710000     -1.0754740000
C                  6.6420210000      0.3225810000     -1.6407480000
C                  5.2883920000      0.3442170000     -1.3704980000
C                  4.6933610000     -0.6251160000     -0.5336990000
C                  5.5153660000     -1.6396560000      0.0367640000
C                  4.9713140000     -2.6794310000      0.9144020000
C                  3.5317240000     -2.6110390000      1.1685930000
C                  2.7084270000     -1.5961630000      0.5981940000
C                  3.2518670000     -0.5587380000     -0.2776470000
C                  2.9443270000     -3.5862760000      2.0081190000
C                  1.5945310000     -3.5473360000      2.2649750000
C                  0.7600010000     -2.5522900000      1.7115540000
C                  1.3280010000     -1.5982890000      0.8916290000
O                  5.6941400000     -3.5736440000      1.4175140000
O                  2.5263380000      0.3345370000     -0.7794970000
H                  7.4984060000     -2.4243750000      0.1931900000
H                  4.6389450000      1.1037910000     -1.7903060000
H                  3.5965230000     -4.3428830000      2.4251170000
H                  0.7217540000     -0.8171690000      0.4468730000
I                  0.7174170000     -5.0197540000      3.5304570000
H                  8.5215160000     -0.7009850000     -1.2872490000
H                  7.0809370000      1.0770020000     -2.2868600000
H                 -0.3012680000     -2.5390850000      1.9263180000
$end

$rem
BASIS  =  6-311++G(d,p)
GUI  =  2
JOB_TYPE  =  SP
METHOD  =  B3LYP
SCF_CONVERGENCE  = 8
SOLVENT_METHOD = sm12
$end

$smx
solvent dimethylformamide
charges CM5
$end

--------------------------------------------------------------

             Standard Nuclear Orientation (Angstroms)
    I     Atom           X                Y                Z
 ----------------------------------------------------------------
    1      C       6.8973820000    -1.6411380000    -0.2542620000
    2      C       7.4565760000    -0.6827710000    -1.0754740000
    3      C       6.6420210000     0.3225810000    -1.6407480000
    4      C       5.2883920000     0.3442170000    -1.3704980000
    5      C       4.6933610000    -0.6251160000    -0.5336990000
    6      C       5.5153660000    -1.6396560000     0.0367640000
    7      C       4.9713140000    -2.6794310000     0.9144020000
    8      C       3.5317240000    -2.6110390000     1.1685930000
    9      C       2.7084270000    -1.5961630000     0.5981940000
   10      C       3.2518670000    -0.5587380000    -0.2776470000
   11      C       2.9443270000    -3.5862760000     2.0081190000
   12      C       1.5945310000    -3.5473360000     2.2649750000
   13      C       0.7600010000    -2.5522900000     1.7115540000
   14      C       1.3280010000    -1.5982890000     0.8916290000
   15      O       5.6941400000    -3.5736440000     1.4175140000
   16      O       2.5263380000     0.3345370000    -0.7794970000
   17      H       7.4984060000    -2.4243750000     0.1931900000
   18      H       4.6389450000     1.1037910000    -1.7903060000
   19      H       3.5965230000    -4.3428830000     2.4251170000
   20      H       0.7217540000    -0.8171690000     0.4468730000
   21      I       0.7174170000    -5.0197540000     3.5304570000
   22      H       8.5215160000    -0.7009850000    -1.2872490000
   23      H       7.0809370000     1.0770020000    -2.2868600000
   24      H      -0.3012680000    -2.5390850000     1.9263180000
 ----------------------------------------------------------------

   18   -7607.9368313301      9.09e-09  Convergence criterion met
 Total energy in the final basis set =    -7608.0243194275

                    Orbital Energies (a.u.)
 --------------------------------------------------------------

 Alpha MOs
 -- Occupied --
********-176.3081-165.7118-165.7098-165.7098 -35.8045 -31.2972 -31.2918
-31.2918 -22.9479 -22.9466 -22.9466 -22.9428 -22.9428 -19.0856 -19.0854
-10.2351 -10.2349 -10.2342 -10.1979 -10.1952 -10.1921 -10.1919 -10.1891
-10.1868 -10.1867 -10.1863 -10.1862 -10.1833 -10.1832  -6.3536  -4.7648
 -4.7516  -4.7515  -2.0306  -2.0265  -2.0263  -2.0150  -2.0149  -1.0129
 -1.0106  -0.8820  -0.8676  -0.8047  -0.7754  -0.7631  -0.7583  -0.6887
 -0.6706  -0.6452  -0.6188  -0.6045  -0.5715  -0.5479  -0.5302  -0.4867
 -0.4811  -0.4723  -0.4562  -0.4449  -0.4363  -0.4362  -0.4241  -0.4197
 -0.4119  -0.3903  -0.3889  -0.3826  -0.3647  -0.3571  -0.3526  -0.3455
 -0.3032  -0.2798  -0.2777  -0.2705  -0.2681  -0.2550  -0.2519  -0.2461
 -0.1536

 Beta MOs
 -- Occupied --
********-176.3081-165.7118-165.7098-165.7098 -35.8045 -31.2973 -31.2918
-31.2918 -22.9479 -22.9466 -22.9466 -22.9428 -22.9428 -19.0795 -19.0795
-10.2337 -10.2336 -10.2335 -10.1972 -10.1953 -10.1923 -10.1908 -10.1880
-10.1864 -10.1860 -10.1859 -10.1855 -10.1833 -10.1832  -6.3536  -4.7648
 -4.7516  -4.7515  -2.0306  -2.0266  -2.0263  -2.0150  -2.0149  -1.0027
 -1.0002  -0.8797  -0.8662  -0.8006  -0.7734  -0.7612  -0.7564  -0.6839
 -0.6672  -0.6434  -0.6169  -0.6039  -0.5692  -0.5459  -0.5284  -0.4841
 -0.4798  -0.4709  -0.4552  -0.4442  -0.4359  -0.4243  -0.4225  -0.4143
 -0.4082  -0.3855  -0.3814  -0.3666  -0.3639  -0.3517  -0.3468  -0.3439
 -0.2959  -0.2776  -0.2707  -0.2599  -0.2566  -0.2495  -0.2464  -0.2407

          Ground-State Mulliken Net Atomic Charges

     Atom                 Charge (a.u.)    Spin (a.u.)
  --------------------------------------------------------
      1 C                     0.144855       0.029165
      2 C                     1.073534       0.030720
      3 C                     1.048132       0.036070
      4 C                     0.222284       0.024825
      5 C                    -0.586079       0.034392
      6 C                    -0.709892       0.030567
      7 C                    -1.657013       0.065605
      8 C                    -1.049271       0.074018
      9 C                    -0.774967       0.056400
     10 C                    -1.735641       0.061085
     11 C                    -0.196984       0.019806
     12 C                     0.954752       0.034835
     13 C                     0.857479       0.053249
     14 C                     0.124203       0.016367
     15 O                    -0.300396       0.225957
     16 O                    -0.288694       0.220465
     17 H                     0.169307      -0.001749
     18 H                     0.171966      -0.001392
     19 H                     0.127443      -0.001197
     20 H                     0.197041      -0.000588
     21 I                     0.114013       0.000708
     22 H                     0.368605      -0.002437
     23 H                     0.371333      -0.002785
     24 H                     0.353989      -0.004085
  --------------------------------------------------------
  Sum of atomic charges =    -1.000000

                    Cartesian Multipole Moments
 -----------------------------------------------------------------
    Charge (ESU x 10^10)
                -4.8032
    Dipole Moment (Debye)
         X     -17.9733      Y       9.7779      Z      -3.3707
       Tot      20.7366
    Quadrupole Moments (Debye-Ang)
        XX    -204.7730     XY      42.7765     YY    -165.3510
        XZ     -15.2464     YZ      17.9990     ZZ    -138.4410

 Total job time:  609.16s(wall), 4405.32s(cpu)
        *  Thank you very much for using Q-Chem.  Have a nice day.  *
