 Gaussian 16, Revision A.03,
 Gaussian 16:  ES64L-G16RevA.03 25-Dec-2016

 ----------------------------------------------------------------
 #P UB3LYP/6-311++G(d,p) SCRF=(PCM,Solvent=n,n-DiMethylFormamide)
 ----------------------------------------------------------------

 ------------------
 Radical PCM in DMF
 ------------------
 Symbolic Z-matrix:
 Charge = -1 Multiplicity = 2

                         Standard orientation:
 ---------------------------------------------------------------------
 Center     Atomic      Atomic             Coordinates (Angstroms)
 Number     Number       Type             X           Y           Z
 ---------------------------------------------------------------------
      1          6           0       -2.849341    1.356536   -0.000070
      2          6           0       -3.854533    0.412265   -0.000071
      3          6           0       -3.524595   -0.949691   -0.000036
      4          6           0       -2.196229   -1.363605    0.000009
      5          6           0       -1.133561   -0.417469   -0.000031
      6          6           0       -1.497807    0.963686   -0.000059
      7          6           0       -0.478332    2.031740   -0.000045
      8          6           0        0.888673    1.597449    0.000066
      9          6           0        1.224612    0.269068    0.000036
     10          6           0        0.290276   -0.840902   -0.000083
     11          8           0       -0.794472    3.250697    0.000132
     12          8           0        0.657644   -2.031439   -0.000030
     13          1           0       -3.057503    2.419188   -0.000071
     14          1           0       -4.310003   -1.703250    0.000020
     15          8           0       -1.917945   -2.705856    0.000127
     16         35           0        3.102878   -0.202494   -0.000015
     17          1           0       -4.897888    0.712540   -0.000056
     18          1           0        1.648950    2.368774    0.000144
     19          1           0       -2.761093   -3.171644    0.000336
 ---------------------------------------------------------------------

 SCF Done:  E(UB3LYP) =  -3184.19945929     A.U. after   20 cycles

 The electronic state is 2-A.
 Alpha  occ. eigenvalues -- -482.82317 -62.47595 -56.29612 -56.29263 -56.29234
 Alpha  occ. eigenvalues --  -19.15547 -19.08153 -19.08079 -10.24523 -10.23883
 Alpha  occ. eigenvalues --  -10.22872 -10.21947 -10.18681 -10.18165 -10.17951
 Alpha  occ. eigenvalues --  -10.17608 -10.17221 -10.16732  -8.68556  -6.51634
 Alpha  occ. eigenvalues --   -6.50465  -6.50385  -2.62739  -2.62417  -2.62358
 Alpha  occ. eigenvalues --   -2.61426  -2.61426  -1.06869  -1.01308  -1.00517
 Alpha  occ. eigenvalues --   -0.86277  -0.83161  -0.77980  -0.74988  -0.73532
 Alpha  occ. eigenvalues --   -0.67832  -0.63681  -0.61066  -0.57932  -0.53191
 Alpha  occ. eigenvalues --   -0.51568  -0.48433  -0.47577  -0.45861  -0.43972
 Alpha  occ. eigenvalues --   -0.43499  -0.41991  -0.40404  -0.40136  -0.39687
 Alpha  occ. eigenvalues --   -0.38562  -0.37717  -0.36084  -0.35682  -0.33900
 Alpha  occ. eigenvalues --   -0.32099  -0.28789  -0.27418  -0.25180  -0.24905
 Alpha  occ. eigenvalues --   -0.24140  -0.23793  -0.15802
 Alpha virt. eigenvalues --   -0.02955  -0.02608  -0.01164  -0.00281   0.00802
 Alpha virt. eigenvalues --    0.01231   0.02851   0.03199   0.04078   0.04482
 Alpha virt. eigenvalues --    0.04774   0.05599   0.05904   0.06165   0.07031

  Beta  occ. eigenvalues -- -482.82316 -62.47594 -56.29615 -56.29257 -56.29234
  Beta  occ. eigenvalues --  -19.15535 -19.07541 -19.07452 -10.24520 -10.23761
  Beta  occ. eigenvalues --  -10.22725 -10.21732 -10.18666 -10.18119 -10.17921
  Beta  occ. eigenvalues --  -10.17557 -10.17073 -10.16710  -8.68555  -6.51640
  Beta  occ. eigenvalues --   -6.50455  -6.50385  -2.62742  -2.62413  -2.62361
  Beta  occ. eigenvalues --   -2.61420  -2.61420  -1.06838  -1.00258  -0.99419
  Beta  occ. eigenvalues --   -0.86043  -0.82769  -0.77768  -0.74784  -0.73314
  Beta  occ. eigenvalues --   -0.66983  -0.63478  -0.60804  -0.57718  -0.52923
  Beta  occ. eigenvalues --   -0.51353  -0.48223  -0.47407  -0.45720  -0.43733
  Beta  occ. eigenvalues --   -0.42712  -0.41433  -0.40165  -0.39527  -0.39027
  Beta  occ. eigenvalues --   -0.37518  -0.36265  -0.35954  -0.35535  -0.33237
  Beta  occ. eigenvalues --   -0.30992  -0.28753  -0.25433  -0.24409  -0.24324
  Beta  occ. eigenvalues --   -0.23587  -0.23089
  Beta virt. eigenvalues --   -0.09246  -0.02004  -0.01467  -0.00984  -0.00265
  Beta virt. eigenvalues --    0.00819   0.01243   0.02863   0.03231   0.04178
  Beta virt. eigenvalues --    0.04517   0.05611   0.05913   0.06179   0.06446

 Mulliken charges and spin densities:
               1          2
     1  C    0.195075   0.045123
     2  C   -0.415802   0.024299
     3  C   -0.175256   0.041563
     4  C    0.069792   0.033002
     5  C    0.061553  -0.014493
     6  C    0.291957   0.038750
     7  C   -0.699888   0.074545
     8  C    0.115057   0.121931
     9  C    0.483980   0.127269
    10  C   -0.677375   0.064177
    11  O   -0.472870   0.226171
    12  O   -0.406664   0.230025
    13  H    0.158629  -0.003501
    14  H    0.159851  -0.003444
    15  O   -0.224311   0.001172
    16  Br  -0.178930   0.005561
    17  H    0.198627  -0.001739
    18  H    0.222211  -0.010087
    19  H    0.294366  -0.000325
 Sum of Mulliken charges =  -1.00000   1.00000

 Dipole moment (field-independent basis, Debye):
    X=             -4.2890    Y=             -3.0099    Z=              0.0001  Tot=              5.2397
 Quadrupole moment (field-independent basis, Debye-Ang):
   XX=            -91.2474   YY=           -128.2987   ZZ=            -98.2992
   XY=             17.6227   XZ=             -0.0013   YZ=             -0.0027

 Normal termination of Gaussian 16 at Thu Jan 25 05:46:27 2024.
