 Q-Chem 5.4, Q-Chem, Inc., Pleasanton, CA (2021)
 Q-Chem 5.4.0 for Intel X86 EM64T Linux

User input:
--------------------------------------------------------------
$molecule
0 1
C                  5.7796220000     -5.1346740000      1.2384440000
C                  6.7912080000     -5.0417360000      0.2881690000
C                  6.7018600000     -4.1045330000     -0.7435530000
C                  4.6701670000     -4.2886020000      1.1619770000
C                  4.5809510000     -3.3459640000      0.1237320000
C                  5.6002080000     -3.2587600000     -0.8261560000
C                  3.5998260000     -4.4098800000      2.1945360000
C                  2.4353190000     -3.4697860000      2.0535930000
C                  2.3512420000     -2.5704210000      1.0621650000
C                  3.4033400000     -2.4370740000      0.0296750000
O                  3.6560000000     -5.2157990000      3.0991800000
O                  3.2891290000     -1.6056420000     -0.8556420000
H                  5.8310920000     -5.8548750000      2.0455470000
H                  7.6505920000     -5.6993640000      0.3500990000
H                  5.5107520000     -2.5249870000     -1.6177500000
Cl                 1.1916010000     -3.6114190000      3.2549950000
H                  7.4921210000     -4.0351390000     -1.4822010000
H                  1.5077570000     -1.8971600000      0.9691300000
$end
$rem
MAX_SCF_CYCLES=200
BASIS  =  6-311++G(d,p)
GUI  =  2
JOB_TYPE  =  SP
METHOD  =  B3LYP
SOLVENT_METHOD = COSMO
$end
$solvent
dielectric 37.219
opticaldielectric 1.43
$end

--------------------------------------------------------------

             Standard Nuclear Orientation (Angstroms)
    I     Atom           X                Y                Z
 ----------------------------------------------------------------
    1      C      -1.6266198437    -1.7361407103    -0.0000184726
    2      C      -2.9880540487    -1.4507231873    -0.0001795011
    3      C      -3.4278655278    -0.1250729030    -0.0001677315
    4      C      -0.6950452245    -0.6946302050     0.0001376430
    5      C      -1.1382466307     0.6388056154     0.0001491586
    6      C      -2.5061934306     0.9171904382    -0.0000101481
    7      C       0.7590643551    -1.0294161108     0.0002984750
    8      C       1.7064552671     0.1377036808     0.0000473548
    9      C       1.2822647945     1.4100708713     0.0000455916
   10      C      -0.1559227315     1.7598475980     0.0003706293
   11      O       1.1641058676    -2.1726497112     0.0001322048
   12      O      -0.5004343214     2.9300702332    -0.0001412835
   13      H      -1.2664530610    -2.7574309641    -0.0000154179
   14      H      -3.7082948895    -2.2607255841    -0.0003181249
   15      H      -2.8253677576     1.9521658006     0.0000158171
   16      Cl      3.3969565402    -0.2527659391    -0.0001918120
   17      H      -4.4895710943     0.0933535748    -0.0002525776
   18      H       1.9730313737     2.2444834378    -0.0001342566
 ----------------------------------------------------------------

    9    -994.8784251316      9.49e-06  Convergence criterion met
 Total energy in the final basis set =     -994.8784251316
    5    -994.8920807582      3.13e-06  Convergence criterion met
 Total energy in the final basis set =     -994.8920807582

                    Orbital Energies (a.u.)
 --------------------------------------------------------------

 Alpha MOs
 -- Occupied --
******** -19.1495 -19.1436 -10.3018 -10.2939 -10.2761 -10.2205 -10.2154
-10.2130 -10.2016 -10.2008 -10.1999 -10.1993  -9.4933  -7.2578  -7.2484
 -7.2474  -1.0863  -1.0766  -0.9125  -0.8915  -0.8270  -0.7833  -0.7739
 -0.7056  -0.6566  -0.6402  -0.5972  -0.5573  -0.5381  -0.5128  -0.4919
 -0.4749  -0.4672  -0.4630  -0.4544  -0.4462  -0.4418  -0.4317  -0.3942
 -0.3874  -0.3742  -0.3736  -0.3398  -0.3021  -0.3015  -0.2898  -0.2827
 -0.2817

          Ground-State Mulliken Net Atomic Charges

     Atom                 Charge (a.u.)
  ----------------------------------------
      1 C                     0.060074
      2 C                    -0.409341
      3 C                    -0.404407
      4 C                     0.277868
      5 C                     0.333815
      6 C                     0.206359
      7 C                    -1.437472
      8 C                     1.059159
      9 C                     0.224793
     10 C                    -0.895354
     11 O                    -0.241572
     12 O                    -0.300361
     13 H                     0.197365
     14 H                     0.236661
     15 H                     0.200987
     16 Cl                    0.386557
     17 H                     0.233247
     18 H                     0.271624
  ----------------------------------------
  Sum of atomic charges =     0.000000

                    Cartesian Multipole Moments
 -----------------------------------------------------------------
    Charge (ESU x 10^10)
                 0.0000
    Dipole Moment (Debye)
         X      -3.7081      Y      -0.5815      Z       0.0008
       Tot       3.7534
    Quadrupole Moments (Debye-Ang)
        XX     -67.8965     XY      11.4217     YY     -93.5023
        XZ       0.0011     YZ       0.0014     ZZ     -81.7541

 Total job time:  25.60s(wall), 181.34s(cpu)
        *  Thank you very much for using Q-Chem.  Have a nice day.  *
