 Q-Chem 5.4, Q-Chem, Inc., Pleasanton, CA (2021)
 Q-Chem 5.4.0 for Intel X86 EM64T Linux

User input:
--------------------------------------------------------------
$molecule
0 1
C                 -6.3733680000      0.9728590000     -1.7877950000
C                 -6.4883440000      1.2609390000     -3.1442460000
C                 -5.5355660000      0.7782260000     -4.0432480000
C                 -5.3021630000      0.2005070000     -1.3323880000
C                 -4.3420410000     -0.2866430000     -2.2344590000
C                 -4.4663540000      0.0069360000     -3.5912230000
C                 -5.1663740000     -0.1136030000      0.1014350000
C                 -4.0014680000     -0.9373070000      0.5356130000
C                 -3.0680530000     -1.4268420000     -0.3171590000
C                 -3.1854200000     -1.1195520000     -1.7580560000
O                 -5.9532900000      0.2605170000      0.9638300000
O                 -2.3595650000     -1.5365340000     -2.5582610000
O                 -3.9573760000     -1.1639180000      1.8584430000
C                 -1.8971980000     -2.2441130000      0.1502940000
H                 -7.1000560000      1.3357420000     -1.0712660000
H                 -7.3177030000      1.8601620000     -3.5017070000
H                 -5.6268120000      1.0039550000     -5.0996710000
H                 -3.7187050000     -0.3754330000     -4.2749590000
H                 -4.7412050000     -0.7201230000      2.2348030000
C                 -0.6510770000     -1.3816630000      0.4434200000
C                  0.5486420000     -2.2332580000      0.8985670000
C                  1.7798760000     -1.4075900000      1.1957120000
C                  2.6831120000     -1.0665070000      0.1823030000
C                  2.0400490000     -0.9313540000      2.4832300000
C                  3.1594700000     -0.1431520000      2.7466100000
C                  4.0625950000      0.1999730000      1.7360280000
C                  3.8005890000     -0.2795490000      0.4460380000
C                  5.2813520000      1.0523740000      2.0409280000
C                  6.6073210000      0.2988000000      1.7931880000
C                  5.2756530000      2.3936300000      1.2739750000
C                  6.4985460000      3.2553590000      1.6195010000
C                  7.8294030000      1.1618540000      2.1379160000
C                  7.8119340000      2.4976160000      1.3822840000
H                 -1.6499770000     -2.9716310000     -0.6269080000
H                 -2.1789980000     -2.7916310000      1.0534280000
H                 -0.8892200000     -0.6456990000      1.2181430000
H                 -0.3778580000     -0.8214990000     -0.4557990000
H                  0.7785220000     -2.9678560000      0.1188810000
H                  0.2656370000     -2.8020400000      1.7911990000
H                  2.5119350000     -1.4266800000     -0.8278740000
H                  1.3627300000     -1.1834700000      3.2938800000
H                  3.3364280000      0.2076750000      3.7589480000
H                  4.4784690000     -0.0423510000     -0.3672720000
H                  5.2435840000      1.2938020000      3.1117360000
H                  6.6605490000     -0.0001510000      0.7388530000
H                  6.6169640000     -0.6266330000      2.3779610000
H                  4.3514300000      2.9374160000      1.4944630000
H                  5.2675370000      2.1927830000      0.1953760000
H                  6.4413570000      3.5570890000      2.6736970000
H                  6.4815880000      4.1794770000      1.0321810000
H                  8.7495740000      0.6113830000      1.9155020000
H                  7.8392870000      1.3585170000      3.2181290000
H                  7.9287870000      2.3057520000      0.3074760000
H                  8.6654240000      3.1145360000      1.6824150000
$end
$rem
MAX_SCF_CYCLES=200
BASIS  =  6-311++G(d,p)
GUI  =  2
JOB_TYPE  =  SP
SCF_CONVERGENCE  = 6
METHOD  =  B3LYP
SOLVENT_METHOD = COSMO
$end
$solvent
dielectric 37.219
opticaldielectric 1.43
$end

--------------------------------------------------------------

             Standard Nuclear Orientation (Angstroms)
    I     Atom           X                Y                Z
 ----------------------------------------------------------------
    1      C       6.4968180589     1.2549560993    -1.2310561023
    2      C       6.9547586533     2.4203887477    -0.6242397904
    3      C       6.3534093046     2.8786338804     0.5493839622
    4      C       5.4349877753     0.5486719950    -0.6608960261
    5      C       4.8280001375     1.0071579655     0.5198825682
    6      C       5.2943084379     2.1752564919     1.1203434784
    7      C       4.9384209647    -0.6877677701    -1.2914436054
    8      C       3.7990268086    -1.4004911248    -0.6450604522
    9      C       3.2039231691    -0.9830913549     0.4993858126
   10      C       3.6856856740     0.2563960271     1.1443371596
   11      O       5.4041942895    -1.1700147696    -2.3178064764
   12      O       3.1701684694     0.6698128015     2.1736899144
   13      O       3.4111609192    -2.5096840553    -1.2950042600
   14      C       2.0487920792    -1.7149048027     1.1218541801
   15      H       6.9474026704     0.8794399192    -2.1416242960
   16      H       7.7780867515     2.9715974952    -1.0635377309
   17      H       6.7115270309     3.7869796790     1.0205193707
   18      H       4.8167343889     2.5166306912     2.0303251709
   19      H       4.0025916261    -2.5909246369    -2.0674021106
   20      C       0.6815771380    -1.1802740075     0.6449332028
   21      C      -0.4937427467    -1.9223167429     1.3080276622
   22      C      -1.8437516186    -1.4173505359     0.8514697409
   23      C      -2.4585938012    -0.3286146674     1.4805913388
   24      C      -2.5068632392    -1.9991161840    -0.2320546138
   25      C      -3.7365968691    -1.5098480724    -0.6703544048
   26      C      -4.3523570261    -0.4218116926    -0.0445255341
   27      C      -3.6864339978     0.1592964236     1.0424531088
   28      C      -5.6956631938     0.0938022663    -0.5288713661
   29      C      -6.8050322270    -0.0537353218     0.5364810067
   30      C      -5.6260584075     1.5530679985    -1.0317786508
   31      C      -6.9857634402     2.0459437367    -1.5472474726
   32      C      -8.1638895388     0.4405027305     0.0203225333
   33      C      -8.0856254323     1.8862473216    -0.4888359028
   34      H       2.1133325720    -1.6050741153     2.2073104698
   35      H       2.1255379905    -2.7783663189     0.8810266676
   36      H       0.6081281954    -1.2813970806    -0.4426927446
   37      H       0.6104859839    -0.1123163125     0.8717360869
   38      H      -0.4111785735    -1.8177775674     2.3955220359
   39      H      -0.4105037104    -2.9925948584     1.0890009531
   40      H      -1.9712489890     0.1413414436     2.3297791945
   41      H      -2.0604548107    -2.8499905651    -0.7382257611
   42      H      -4.2290053068    -1.9868813404    -1.5124916476
   43      H      -4.1309492703     1.0021518447     1.5613541142
   44      H      -5.9874938111    -0.5283060178    -1.3857026491
   45      H      -6.5260797175     0.5197914765     1.4292742199
   46      H      -6.8741088917    -1.1002842376     0.8502364331
   47      H      -4.8683197151     1.6335689290    -1.8178180899
   48      H      -5.2928794636     2.2019438634    -0.2121854022
   49      H      -7.2612146838     1.4738524024    -2.4430593382
   50      H      -6.9088512844     3.0924755695    -1.8604280552
   51      H      -8.9164720532     0.3563621592     0.8113603970
   52      H      -8.4987352726    -0.2121226060    -0.7967409031
   53      H      -7.8736365669     2.5552596828     0.3556531951
   54      H      -9.0529044904     2.1977322465    -0.8968340021
 ----------------------------------------------------------------

   11   -1194.3442133540      4.88e-07  Convergence criterion met
 Total energy in the final basis set =    -1194.3442133540
    6   -1194.3620912816      7.12e-07  Convergence criterion met
 Total energy in the final basis set =    -1194.3620912816

                    Orbital Energies (a.u.)
 --------------------------------------------------------------

 Alpha MOs
 -- Occupied --
-19.1787 -19.1504 -19.1306 -10.2944 -10.2820 -10.2678 -10.2106 -10.2094
-10.2042 -10.2004 -10.1983 -10.1967 -10.1965 -10.1796 -10.1776 -10.1770
-10.1720 -10.1714 -10.1713 -10.1709 -10.1707 -10.1703 -10.1698 -10.1595
-10.1595 -10.1580 -10.1580 -10.1572  -1.1089  -1.0681  -1.0645  -0.8925
 -0.8654  -0.8445  -0.8299  -0.8033  -0.7836  -0.7795  -0.7588  -0.7459
 -0.7369  -0.7285  -0.7016  -0.6782  -0.6546  -0.6357  -0.6140  -0.6081
 -0.6055  -0.6040  -0.5919  -0.5738  -0.5701  -0.5470  -0.5431  -0.5199
 -0.5009  -0.4978  -0.4810  -0.4767  -0.4722  -0.4697  -0.4677  -0.4543
 -0.4519  -0.4501  -0.4394  -0.4354  -0.4343  -0.4312  -0.4269  -0.4214
 -0.4166  -0.4119  -0.4059  -0.4005  -0.3892  -0.3851  -0.3780  -0.3774
 -0.3743  -0.3715  -0.3688  -0.3615  -0.3483  -0.3441  -0.3399  -0.3396
 -0.3341  -0.3284  -0.3125  -0.3046  -0.2996  -0.2975  -0.2902  -0.2809
 -0.2801  -0.2590  -0.2569  -0.2379

          Ground-State Mulliken Net Atomic Charges

     Atom                 Charge (a.u.)
  ----------------------------------------
      1 C                     0.270537
      2 C                    -0.396570
      3 C                    -0.458074
      4 C                     0.226003
      5 C                     0.249912
      6 C                     0.178455
      7 C                    -0.686339
      8 C                    -0.706657
      9 C                     1.751200
     10 C                    -0.862818
     11 O                    -0.323750
     12 O                    -0.293806
     13 O                    -0.232364
     14 C                    -0.349393
     15 H                     0.211953
     16 H                     0.224920
     17 H                     0.226938
     18 H                     0.206265
     19 H                     0.325840
     20 C                    -0.429611
     21 C                    -0.645327
     22 C                     0.975366
     23 C                    -0.359197
     24 C                    -0.536735
     25 C                    -0.418149
     26 C                     0.509188
     27 C                    -0.527520
     28 C                     0.228618
     29 C                    -0.416925
     30 C                    -0.428019
     31 C                    -0.417976
     32 C                    -0.457521
     33 C                    -0.409890
     34 H                     0.215494
     35 H                     0.237202
     36 H                     0.192542
     37 H                     0.196961
     38 H                     0.173986
     39 H                     0.164000
     40 H                     0.205561
     41 H                     0.204857
     42 H                     0.194834
     43 H                     0.201000
     44 H                     0.190571
     45 H                     0.146490
     46 H                     0.182866
     47 H                     0.179381
     48 H                     0.145594
     49 H                     0.136167
     50 H                     0.181109
     51 H                     0.178488
     52 H                     0.140037
     53 H                     0.123148
     54 H                     0.181050
  ----------------------------------------
  Sum of atomic charges =    -0.000109

                    Cartesian Multipole Moments
 -----------------------------------------------------------------
    Charge (ESU x 10^10)
                -0.0005
    Dipole Moment (Debye)
         X       2.1450      Y       2.0276      Z      -1.3331
       Tot       3.2387
    Quadrupole Moments (Debye-Ang)
        XX    -134.7870     XY      14.4738     YY    -157.4375
        XZ       1.1244     YZ       0.8617     ZZ    -173.6107

 Total job time:  277.93s(wall), 2158.59s(cpu)
        *  Thank you very much for using Q-Chem.  Have a nice day.  *
