 Q-Chem 5.4, Q-Chem, Inc., Pleasanton, CA (2021)
 Q-Chem 5.4.0 for Intel X86 EM64T Linux

User input:
--------------------------------------------------------------
$molecule
-2 1
C                 -1.3210290000      2.0247720000      0.5397610000
C                 -2.5856910000      1.3693250000      0.2461820000
C                 -2.6635770000      0.0782690000     -0.2790520000
C                 -1.5307660000     -0.7449480000     -0.5899140000
C                 -0.2745070000     -0.1146530000     -0.2952390000
C                 -0.2205210000      1.1705540000      0.2345670000
O                 -1.2427290000      3.2175770000      1.0193030000
O                 -1.6228730000     -1.9390740000     -1.0803220000
H                  0.6318340000     -0.6758080000     -0.4947340000
I                  1.7451920000      2.0215470000      0.6397630000
C                 -3.8240450000      2.2011770000      0.5515590000
C                 -4.0411270000      3.2814000000     -0.5301110000
C                 -5.1126310000      1.3932530000      0.7619260000
H                 -3.6348410000     -0.3681250000     -0.4823310000
H                 -3.6008760000      2.7451550000      1.4794810000
H                 -4.2592300000      2.8142280000     -1.4986930000
H                 -3.1347570000      3.8827810000     -0.6221950000
H                 -4.8828720000      3.9454880000     -0.2725790000
H                 -5.4276030000      0.8848990000     -0.1567970000
H                 -5.9349050000      2.0523710000      1.0716530000
H                 -4.9793260000      0.6250110000      1.5303340000
$end
$rem
MAX_SCF_CYCLES=200
BASIS  =  6-311++G(d,p)
GUI  =  2
JOB_TYPE  =  SP
METHOD  =  B3LYP
SOLVENT_METHOD = COSMO
$end
$solvent
dielectric 37.219
opticaldielectric 1.43
$end

--------------------------------------------------------------

             Standard Nuclear Orientation (Angstroms)
    I     Atom           X                Y                Z
 ----------------------------------------------------------------
    1      C      -0.5186167916    -0.6504506149    -0.1199220949
    2      C      -1.8636732268    -0.0972922113    -0.1170342258
    3      C      -2.1176689921     1.2711514371    -0.0092812146
    4      C      -1.1060386301     2.2809279729     0.1112904744
    5      C       0.2283431461     1.7502935172     0.0992834960
    6      C       0.4585355917     0.3831552405    -0.0160867300
    7      O      -0.2782217951    -1.9123161146    -0.2136285198
    8      O      -1.3612881209     3.5455245638     0.2140706739
    9      H       1.0520065327     2.4513691646     0.1781426079
   10      I       2.5278794634    -0.3025404029    -0.0222436718
   11      C      -2.9795321850    -1.1265386063    -0.2364667807
   12      C      -3.1934836160    -1.8633694351     1.1034292706
   13      C      -4.3145156231    -0.5782271582    -0.7605117403
   14      H      -3.1429656112     1.6354415455    -0.0110901868
   15      H      -2.6157268980    -1.8854950558    -0.9424317416
   16      H      -3.5486941035    -1.1648492965     1.8714558407
   17      H      -2.2458479680    -2.2967123080     1.4287687551
   18      H      -3.9375029580    -2.6711294733     1.0042870126
   19      H      -4.7648851058     0.1330520738    -0.0584203758
   20      H      -5.0346936069    -1.3940822013    -0.9095959576
   21      H      -4.1833205524    -0.0565215379    -1.7139413115
 ----------------------------------------------------------------

   14   -7418.4519106172      5.39e-06  Convergence criterion met
 Total energy in the final basis set =    -7418.4519106172
    6   -7418.7366304246      4.14e-06  Convergence criterion met
 Total energy in the final basis set =    -7418.7366304246

                    Orbital Energies (a.u.)
 --------------------------------------------------------------

 Alpha MOs
 -- Occupied --
********-176.2693-165.6727-165.6711-165.6710 -35.7658 -31.2579 -31.2535
-31.2533 -22.9088 -22.9077 -22.9076 -22.9045 -22.9045 -19.0251 -19.0238
-10.1808 -10.1778 -10.1735 -10.1531 -10.1416 -10.1388 -10.1388 -10.1307
-10.1250  -6.3150  -4.7249  -4.7141  -4.7137  -1.9912  -1.9875  -1.9872
 -1.9780  -1.9780  -0.9420  -0.9373  -0.7998  -0.7691  -0.7021  -0.6669
 -0.6574  -0.6167  -0.5879  -0.5219  -0.5161  -0.4506  -0.4376  -0.4256
 -0.4149  -0.3890  -0.3760  -0.3722  -0.3601  -0.3576  -0.3486  -0.3333
 -0.3227  -0.3182  -0.3070  -0.2982  -0.2660  -0.2462  -0.2309  -0.2096
 -0.2061  -0.2013  -0.1269

          Ground-State Mulliken Net Atomic Charges

     Atom                 Charge (a.u.)
  ----------------------------------------
      1 C                    -2.012880
      2 C                     1.369202
      3 C                    -0.523868
      4 C                    -0.397029
      5 C                    -0.233478
      6 C                     1.185976
      7 O                    -0.631872
      8 O                    -0.770013
      9 H                     0.139793
     10 I                    -0.189573
     11 C                     0.176951
     12 C                    -0.732352
     13 C                    -0.568925
     14 H                     0.138024
     15 H                     0.168238
     16 H                     0.137961
     17 H                     0.176565
     18 H                     0.127391
     19 H                     0.140907
     20 H                     0.162180
     21 H                     0.136802
  ----------------------------------------
  Sum of atomic charges =    -2.000000

                    Cartesian Multipole Moments
 -----------------------------------------------------------------
    Charge (ESU x 10^10)
                -9.6064
    Dipole Moment (Debye)
         X       3.7156      Y      -7.7407      Z      -0.1589
       Tot       8.5878
    Quadrupole Moments (Debye-Ang)
        XX    -121.3624     XY      19.0289     YY    -169.6641
        XZ       1.5376     YZ      -4.0124     ZZ    -105.6372

 Total job time:  40.41s(wall), 309.01s(cpu)
        *  Thank you very much for using Q-Chem.  Have a nice day.  *
