 Q-Chem 5.4, Q-Chem, Inc., Pleasanton, CA (2021)
 Q-Chem 5.4.0 for Intel X86 EM64T Linux

User input:
--------------------------------------------------------------
$molecule
-1 2
N                 -2.9215170000      1.8810090000      0.1103820000
C                 -2.5291020000      0.5531690000      0.0698670000
C                 -3.4932030000     -0.4570350000      0.0413770000
C                 -3.1227420000     -1.8044400000     -0.0694170000
C                 -1.7916010000     -2.1605160000     -0.1575960000
C                 -0.7843800000     -1.1746310000     -0.1164930000
C                  0.6107320000     -1.6203610000     -0.1973540000
O                  0.9128760000     -2.8335620000     -0.3240920000
C                  1.6336810000     -0.5802940000     -0.1189220000
C                  2.9980870000     -0.9385930000     -0.1916330000
C                  3.9926440000      0.0151880000     -0.1122920000
C                  3.6501320000      1.3767940000      0.0456390000
C                  2.3226720000      1.7488710000      0.1201010000
C                  1.2879770000      0.7901190000      0.0388110000
C                 -0.1029540000      1.2344200000      0.1190720000
O                 -0.3630690000      2.4672440000      0.2859730000
C                 -1.1341080000      0.2091330000      0.0119940000
H                 -3.8242700000      2.0659740000      0.5186700000
H                 -2.1537330000      2.5225680000      0.3179610000
H                 -4.5432770000     -0.1794060000      0.0860990000
H                 -3.8948930000     -2.5684930000     -0.0927780000
H                 -1.4790970000     -3.1925410000     -0.2532290000
H                  3.2291410000     -1.9909380000     -0.3106490000
H                  5.0367250000     -0.2785310000     -0.1706490000
H                  4.4310830000      2.1290870000      0.1079090000
H                  2.0321980000      2.7857660000      0.2412500000
$end

$rem
BASIS  =  6-311++G(d,p)
GUI  =  2
JOB_TYPE  =  SP
METHOD  =  B3LYP
SCF_CONVERGENCE  = 8
SOLVENT_METHOD = sm12
$end

$smx
solvent dimethylformamide
charges CM5
$end

--------------------------------------------------------------

             Standard Nuclear Orientation (Angstroms)
    I     Atom           X                Y                Z
 ----------------------------------------------------------------
    1      N      -2.9215170000     1.8810090000     0.1103820000
    2      C      -2.5291020000     0.5531690000     0.0698670000
    3      C      -3.4932030000    -0.4570350000     0.0413770000
    4      C      -3.1227420000    -1.8044400000    -0.0694170000
    5      C      -1.7916010000    -2.1605160000    -0.1575960000
    6      C      -0.7843800000    -1.1746310000    -0.1164930000
    7      C       0.6107320000    -1.6203610000    -0.1973540000
    8      O       0.9128760000    -2.8335620000    -0.3240920000
    9      C       1.6336810000    -0.5802940000    -0.1189220000
   10      C       2.9980870000    -0.9385930000    -0.1916330000
   11      C       3.9926440000     0.0151880000    -0.1122920000
   12      C       3.6501320000     1.3767940000     0.0456390000
   13      C       2.3226720000     1.7488710000     0.1201010000
   14      C       1.2879770000     0.7901190000     0.0388110000
   15      C      -0.1029540000     1.2344200000     0.1190720000
   16      O      -0.3630690000     2.4672440000     0.2859730000
   17      C      -1.1341080000     0.2091330000     0.0119940000
   18      H      -3.8242700000     2.0659740000     0.5186700000
   19      H      -2.1537330000     2.5225680000     0.3179610000
   20      H      -4.5432770000    -0.1794060000     0.0860990000
   21      H      -3.8948930000    -2.5684930000    -0.0927780000
   22      H      -1.4790970000    -3.1925410000    -0.2532290000
   23      H       3.2291410000    -1.9909380000    -0.3106490000
   24      H       5.0367250000    -0.2785310000    -0.1706490000
   25      H       4.4310830000     2.1290870000     0.1079090000
   26      H       2.0321980000     2.7857660000     0.2412500000
 ----------------------------------------------------------------

   17    -744.3952805805      9.18e-09  Convergence criterion met
 Total energy in the final basis set =     -744.4853630081

                    Orbital Energies (a.u.)
 --------------------------------------------------------------

 Alpha MOs
 -- Occupied --
-19.0833 -19.0767 -14.3125 -10.2336 -10.2259 -10.2254 -10.1829 -10.1822
-10.1814 -10.1813 -10.1806 -10.1797 -10.1795 -10.1791 -10.1788 -10.1727
-10.1662  -1.0088  -1.0025  -0.9198  -0.8655  -0.8443  -0.7915  -0.7586
 -0.7467  -0.7363  -0.6724  -0.6452  -0.6293  -0.5927  -0.5659  -0.5517
 -0.5347  -0.5052  -0.4831  -0.4786  -0.4670  -0.4531  -0.4460  -0.4323
 -0.4299  -0.4182  -0.4118  -0.4021  -0.3884  -0.3818  -0.3806  -0.3654
 -0.3536  -0.3503  -0.3434  -0.3154  -0.2737  -0.2643  -0.2575  -0.2510
 -0.2400  -0.2187  -0.1450

 Beta MOs
 -- Occupied --
-19.0780 -19.0708 -14.3123 -10.2319 -10.2255 -10.2245 -10.1824 -10.1817
-10.1812 -10.1809 -10.1798 -10.1791 -10.1790 -10.1787 -10.1785 -10.1716
-10.1659  -0.9998  -0.9923  -0.9190  -0.8632  -0.8427  -0.7876  -0.7565
 -0.7448  -0.7340  -0.6654  -0.6435  -0.6269  -0.5920  -0.5638  -0.5496
 -0.5333  -0.5044  -0.4813  -0.4757  -0.4661  -0.4522  -0.4449  -0.4319
 -0.4191  -0.4164  -0.4066  -0.3995  -0.3823  -0.3805  -0.3645  -0.3616
 -0.3522  -0.3423  -0.3390  -0.3090  -0.2576  -0.2525  -0.2521  -0.2461
 -0.2347  -0.2111

          Ground-State Mulliken Net Atomic Charges

     Atom                 Charge (a.u.)    Spin (a.u.)
  --------------------------------------------------------
      1 N                    -0.235643       0.007553
      2 C                    -0.104848       0.019204
      3 C                     1.883808       0.090004
      4 C                     0.792299       0.035808
      5 C                    -0.430128       0.057008
      6 C                    -0.769175       0.051373
      7 C                    -2.043845       0.073901
      8 O                    -0.303051       0.220581
      9 C                    -1.264847       0.027148
     10 C                     0.042135       0.029972
     11 C                     1.067894       0.032340
     12 C                     0.984345       0.042928
     13 C                     0.405036       0.028040
     14 C                    -0.653806       0.035077
     15 C                    -1.703681       0.078850
     16 O                    -0.257176       0.196244
     17 C                    -0.942471      -0.001166
     18 H                     0.392828      -0.000814
     19 H                     0.281266      -0.002886
     20 H                     0.318122      -0.006224
     21 H                     0.355569      -0.002510
     22 H                     0.119568      -0.003778
     23 H                     0.155038      -0.001933
     24 H                     0.360957      -0.002639
     25 H                     0.366589      -0.003365
     26 H                     0.183217      -0.000716
  --------------------------------------------------------
  Sum of atomic charges =    -1.000000

                    Cartesian Multipole Moments
 -----------------------------------------------------------------
    Charge (ESU x 10^10)
                -4.8032
    Dipole Moment (Debye)
         X      -1.5306      Y       2.5129      Z       1.0356
       Tot       3.1193
    Quadrupole Moments (Debye-Ang)
        XX    -102.3932     XY       3.3539     YY    -129.0783
        XZ      -2.6042     YZ      -0.6429     ZZ    -107.6402

 Total job time:  651.31s(wall), 4789.47s(cpu)
        *  Thank you very much for using Q-Chem.  Have a nice day.  *
