 Q-Chem 5.4, Q-Chem, Inc., Pleasanton, CA (2021)
 Q-Chem 5.4.0 for Intel X86 EM64T Linux

User input:
--------------------------------------------------------------
$molecule
0 1
Br                -2.7033530000     -1.8760850000     -0.0961430000
C                 -1.2025410000     -0.7211350000     -0.0413520000
C                 -1.3383370000      0.6111050000     -0.0309990000
C                 -0.1537460000      1.4998050000      0.0117250000
O                 -0.2780110000      2.7123240000      0.0207280000
C                  1.1865660000      0.8693490000      0.0424170000
C                  1.3239410000     -0.4627350000      0.0322580000
Br                 3.0278680000     -1.2899570000      0.0714050000
C                  0.1429060000     -1.3939990000     -0.0106900000
O                  0.2658620000     -2.5937970000     -0.0195500000
H                 -2.3037350000      1.1007960000     -0.0529700000
H                  2.0325780000      1.5443290000      0.0731710000
$end
$rem
MAX_SCF_CYCLES=200
BASIS  =  6-311++G(d,p)
GUI  =  2
JOB_TYPE  =  SP
METHOD  =  B3LYP
SOLVENT_METHOD = COSMO
$end
$solvent
dielectric 37.219
opticaldielectric 1.43
$end

--------------------------------------------------------------

             Standard Nuclear Orientation (Angstroms)
    I     Atom           X                Y                Z
 ----------------------------------------------------------------
    1      Br      2.8817741749    -0.7417262386     0.0001319862
    2      C       1.2703375640     0.2545770075    -0.0001942566
    3      C       1.2695920358     1.5937598164    -0.0002614558
    4      C       0.0000291849     2.3573559364    -0.0002390592
    5      O       0.0000313089     3.5762591542     0.0001003155
    6      C      -1.2695446073     1.5937884621     0.0001108587
    7      C      -1.2703907248     0.2546013368     0.0000302116
    8      Br     -2.8817761643    -0.7417083087     0.0000742685
    9      C      -0.0000289735    -0.5516999953    -0.0001187725
   10      O      -0.0000272272    -1.7578143226    -0.0005032595
   11      H       2.1804159324     2.1791427065    -0.0002725573
   12      H      -2.1803458314     2.1792124133     0.0003120357
 ----------------------------------------------------------------

   10   -5528.6360825172      5.06e-06  Convergence criterion met
 Total energy in the final basis set =    -5528.6360825172
    5   -5528.6491297963      5.70e-06  Convergence criterion met
 Total energy in the final basis set =    -5528.6491297963

                    Orbital Energies (a.u.)
 --------------------------------------------------------------

 Alpha MOs
 -- Occupied --
********-482.8556 -62.5083 -62.5083 -56.3289 -56.3289 -56.3250 -56.3250
-56.3246 -56.3246 -19.1659 -19.1559 -10.3189 -10.3037 -10.2761 -10.2761
-10.2266 -10.2266  -8.7171  -8.7171  -6.5489  -6.5489  -6.5358  -6.5358
 -6.5347  -6.5346  -2.6597  -2.6596  -2.6564  -2.6563  -2.6554  -2.6553
 -2.6449  -2.6449  -2.6448  -2.6448  -1.1035  -1.0867  -0.8991  -0.8629
 -0.8078  -0.7674  -0.7216  -0.6379  -0.6196  -0.5520  -0.5269  -0.4919
 -0.4753  -0.4651  -0.4650  -0.4426  -0.4400  -0.4179  -0.3715  -0.3583
 -0.3180  -0.3155  -0.3154  -0.2996  -0.2958  -0.2829

          Ground-State Mulliken Net Atomic Charges

     Atom                 Charge (a.u.)
  ----------------------------------------
      1 Br                   -0.070333
      2 C                     1.494315
      3 C                    -0.409807
      4 C                    -0.081633
      5 O                    -0.301945
      6 C                    -0.409331
      7 C                     1.494401
      8 Br                   -0.070383
      9 C                    -2.090379
     10 O                    -0.149563
     11 H                     0.297440
     12 H                     0.297218
  ----------------------------------------
  Sum of atomic charges =     0.000000

                    Cartesian Multipole Moments
 -----------------------------------------------------------------
    Charge (ESU x 10^10)
                 0.0000
    Dipole Moment (Debye)
         X      -0.0003      Y       0.9719      Z       0.0008
       Tot       0.9719
    Quadrupole Moments (Debye-Ang)
        XX     -74.3281     XY      -0.0024     YY     -99.3212
        XZ       0.0011     YZ      -0.0034     ZZ     -80.7745

 Total job time:  95.41s(wall), 134.18s(cpu)
        *  Thank you very much for using Q-Chem.  Have a nice day.  *
