 Q-Chem 5.4, Q-Chem, Inc., Pleasanton, CA (2021)
 Q-Chem 5.4.0 for Intel X86 EM64T Linux

User input:
--------------------------------------------------------------
$molecule
0 1
O                 -4.9304470000      0.9677020000      0.1875110000
C                 -3.7014840000      0.3869110000      0.1179480000
C                 -3.6597330000     -1.0106840000      0.0226490000
C                 -2.4381890000     -1.6575800000     -0.0513740000
C                 -1.2385300000     -0.9341840000     -0.0323890000
C                  0.0559870000     -1.6610290000     -0.1136820000
O                  0.0970790000     -2.8804020000     -0.1971700000
C                  1.2985360000     -0.8447720000     -0.0893020000
C                  2.5440510000     -1.4819380000     -0.1630240000
C                  3.7191430000     -0.7505310000     -0.1426390000
C                  3.6666350000      0.6466620000     -0.0470680000
O                  4.8535630000      1.3126410000     -0.0314750000
C                  2.4378820000      1.2975860000      0.0271990000
C                  1.2559180000      0.5564760000      0.0063510000
C                 -0.0433610000      1.2862180000      0.0877140000
O                 -0.0843960000      2.5035390000      0.1706850000
C                 -1.2904330000      0.4667220000      0.0634410000
C                 -2.5195130000      1.1228340000      0.1382360000
H                 -4.8415040000      1.9252640000      0.2494880000
H                 -4.5918650000     -1.5623120000      0.0085780000
H                 -2.3864880000     -2.7368020000     -0.1254900000
H                  2.5652470000     -2.5622390000     -0.2364340000
H                  4.6862150000     -1.2352410000     -0.1991440000
H                  4.7002880000      2.2616380000      0.0362660000
H                  2.3723610000      2.3781060000      0.1017550000
H                 -2.5269610000      2.2054140000      0.2113700000
$end
$rem
MAX_SCF_CYCLES=200
BASIS  =  6-311++G(d,p)
GUI  =  2
JOB_TYPE  =  SP
METHOD  =  B3LYP
SOLVENT_METHOD = PCM
$end
$pcm
theory = CPCM
$end
$solvent
dielectric 37.219
opticaldielectric 1.43
$end

--------------------------------------------------------------

             Standard Nuclear Orientation (Angstroms)
    I     Atom           X                Y                Z
 ----------------------------------------------------------------
    1      O      -4.9304470000     0.9677020000     0.1875110000
    2      C      -3.7014840000     0.3869110000     0.1179480000
    3      C      -3.6597330000    -1.0106840000     0.0226490000
    4      C      -2.4381890000    -1.6575800000    -0.0513740000
    5      C      -1.2385300000    -0.9341840000    -0.0323890000
    6      C       0.0559870000    -1.6610290000    -0.1136820000
    7      O       0.0970790000    -2.8804020000    -0.1971700000
    8      C       1.2985360000    -0.8447720000    -0.0893020000
    9      C       2.5440510000    -1.4819380000    -0.1630240000
   10      C       3.7191430000    -0.7505310000    -0.1426390000
   11      C       3.6666350000     0.6466620000    -0.0470680000
   12      O       4.8535630000     1.3126410000    -0.0314750000
   13      C       2.4378820000     1.2975860000     0.0271990000
   14      C       1.2559180000     0.5564760000     0.0063510000
   15      C      -0.0433610000     1.2862180000     0.0877140000
   16      O      -0.0843960000     2.5035390000     0.1706850000
   17      C      -1.2904330000     0.4667220000     0.0634410000
   18      C      -2.5195130000     1.1228340000     0.1382360000
   19      H      -4.8415040000     1.9252640000     0.2494880000
   20      H      -4.5918650000    -1.5623120000     0.0085780000
   21      H      -2.3864880000    -2.7368020000    -0.1254900000
   22      H       2.5652470000    -2.5622390000    -0.2364340000
   23      H       4.6862150000    -1.2352410000    -0.1991440000
   24      H       4.7002880000     2.2616380000     0.0362660000
   25      H       2.3723610000     2.3781060000     0.1017550000
   26      H      -2.5269610000     2.2054140000     0.2113700000
 ----------------------------------------------------------------

    9    -839.4775771538      2.09e-06  Convergence criterion met
 Total energy in the final basis set =     -839.4775771538

                    Orbital Energies (a.u.)
 --------------------------------------------------------------

 Alpha MOs
 -- Occupied --
-19.1725 -19.1725 -19.1347 -19.1247 -10.2862 -10.2782 -10.2631 -10.2631
-10.2114 -10.2114 -10.2017 -10.2017 -10.1986 -10.1986 -10.1966 -10.1966
-10.1947 -10.1947  -1.0848  -1.0848  -1.0692  -1.0598  -0.8931  -0.8803
 -0.8094  -0.7800  -0.7795  -0.7651  -0.6913  -0.6800  -0.6430  -0.6409
 -0.5896  -0.5808  -0.5802  -0.5428  -0.5238  -0.5110  -0.4932  -0.4743
 -0.4620  -0.4589  -0.4550  -0.4544  -0.4507  -0.4354  -0.4337  -0.4240
 -0.4189  -0.4092  -0.3987  -0.3986  -0.3718  -0.3680  -0.3634  -0.3470
 -0.2893  -0.2843  -0.2822  -0.2753  -0.2604  -0.2485

          Ground-State Mulliken Net Atomic Charges

     Atom                 Charge (a.u.)
  ----------------------------------------
      1 O                    -0.268876
      2 C                    -0.628833
      3 C                    -0.196628
      4 C                     0.192501
      5 C                     0.105928
      6 C                    -0.564867
      7 O                    -0.313111
      8 C                     0.106747
      9 C                     0.192567
     10 C                    -0.195973
     11 C                    -0.629911
     12 O                    -0.268682
     13 C                     0.283703
     14 C                     0.467151
     15 C                    -0.682078
     16 O                    -0.283001
     17 C                     0.466718
     18 C                     0.283028
     19 H                     0.330099
     20 H                     0.246056
     21 H                     0.202241
     22 H                     0.202623
     23 H                     0.246096
     24 H                     0.329859
     25 H                     0.188184
     26 H                     0.188458
  ----------------------------------------
  Sum of atomic charges =     0.000000

                    Cartesian Multipole Moments
 -----------------------------------------------------------------
    Charge (ESU x 10^10)
                 0.0000
    Dipole Moment (Debye)
         X      -0.1289      Y       3.8068      Z       0.2589
       Tot       3.8178
    Quadrupole Moments (Debye-Ang)
        XX     -86.6865     XY       0.6247     YY    -104.5677
        XZ      -0.4099     YZ       0.0317     ZZ    -105.2232

 Total job time:  42.34s(wall), 323.22s(cpu)
        *  Thank you very much for using Q-Chem.  Have a nice day.  *
