 Gaussian 16, Revision A.03,
 Gaussian 16:  ES64L-G16RevA.03 25-Dec-2016

 ----------------------------------------------------------------
 #P UB3LYP/6-311++G(d,p) SCRF=(PCM,Solvent=n,n-DiMethylFormamide)
 ----------------------------------------------------------------

 ------------------
 Quinone PCM in DMF
 ------------------
 Symbolic Z-matrix:
 Charge =  0 Multiplicity = 1

                         Standard orientation:
 ---------------------------------------------------------------------
 Center     Atomic      Atomic             Coordinates (Angstroms)
 Number     Number       Type             X           Y           Z
 ---------------------------------------------------------------------
      1          8           0        4.896258   -1.139950    0.000092
      2          6           0        3.687269   -0.514769    0.000169
      3          6           0        3.692654    0.886683    0.000231
      4          6           0        2.493306    1.577833    0.000127
      5          6           0        1.269634    0.895578    0.000005
      6          6           0        0.000031    1.669395   -0.000166
      7          8           0        0.000061    2.892314   -0.000337
      8          6           0       -1.269645    0.895623   -0.000099
      9          6           0       -2.493279    1.577857    0.000035
     10          6           0       -3.692656    0.886693    0.000162
     11          6           0       -3.687274   -0.514738    0.000133
     12          8           0       -4.896279   -1.139939    0.000178
     13          6           0       -2.480860   -1.210163    0.000031
     14          6           0       -1.274285   -0.509524   -0.000075
     15          6           0       -0.000024   -1.286395   -0.000147
     16          8           0       -0.000050   -2.507230   -0.000352
     17          6           0        1.274287   -0.509553   -0.000001
     18          6           0        2.480857   -1.210198    0.000066
     19          1           0        4.775048   -2.095976   -0.000355
     20          1           0        4.643092    1.406328    0.000301
     21          1           0        2.478009    2.660723    0.000131
     22          1           0       -2.478043    2.660749    0.000062
     23          1           0       -4.643075    1.406374    0.000326
     24          1           0       -4.775052   -2.095962    0.000073
     25          1           0       -2.451791   -2.294843    0.000037
     26          1           0        2.451799   -2.294882   -0.000050
 ---------------------------------------------------------------------

 SCF Done:  E(UB3LYP) =  -839.469445627     A.U. after   14 cycles

 The electronic state is 1-A.
 Alpha  occ. eigenvalues --  -19.17703 -19.17702 -19.13594 -19.12580 -10.28751
 Alpha  occ. eigenvalues --  -10.27943 -10.26624 -10.26623 -10.21391 -10.21390
 Alpha  occ. eigenvalues --  -10.20412 -10.20411 -10.20155 -10.20155 -10.19993
 Alpha  occ. eigenvalues --  -10.19993 -10.19813 -10.19813  -1.08943  -1.08941
 Alpha  occ. eigenvalues --   -1.07022  -1.06057  -0.89559  -0.88304  -0.81219
 Alpha  occ. eigenvalues --   -0.78292  -0.78229  -0.76812  -0.69384  -0.68332
 Alpha  occ. eigenvalues --   -0.64622  -0.64451  -0.59238  -0.58422  -0.58412
 Alpha  occ. eigenvalues --   -0.54609  -0.52702  -0.51305  -0.49648  -0.47721
 Alpha  occ. eigenvalues --   -0.46313  -0.46088  -0.45857  -0.45638  -0.45415
 Alpha  occ. eigenvalues --   -0.43859  -0.43693  -0.42687  -0.41985  -0.41233
 Alpha  occ. eigenvalues --   -0.40186  -0.40170  -0.37527  -0.37135  -0.36614
 Alpha  occ. eigenvalues --   -0.34892  -0.29028  -0.28656  -0.28480  -0.27626
 Alpha  occ. eigenvalues --   -0.26290  -0.25136
 Alpha virt. eigenvalues --   -0.11803  -0.07199  -0.03526  -0.02260  -0.00929
 Alpha virt. eigenvalues --   -0.00322   0.00467   0.01368   0.01764   0.03107
 Alpha virt. eigenvalues --    0.03432   0.03553   0.03652   0.04255   0.05105

  Beta  occ. eigenvalues --  -19.17703 -19.17702 -19.13594 -19.12580 -10.28751
  Beta  occ. eigenvalues --  -10.27943 -10.26624 -10.26623 -10.21391 -10.21390
  Beta  occ. eigenvalues --  -10.20412 -10.20411 -10.20155 -10.20155 -10.19993
  Beta  occ. eigenvalues --  -10.19993 -10.19813 -10.19813  -1.08943  -1.08941
  Beta  occ. eigenvalues --   -1.07022  -1.06057  -0.89559  -0.88304  -0.81219
  Beta  occ. eigenvalues --   -0.78292  -0.78229  -0.76812  -0.69384  -0.68332
  Beta  occ. eigenvalues --   -0.64622  -0.64451  -0.59238  -0.58422  -0.58412
  Beta  occ. eigenvalues --   -0.54609  -0.52702  -0.51305  -0.49648  -0.47721
  Beta  occ. eigenvalues --   -0.46313  -0.46088  -0.45857  -0.45638  -0.45415
  Beta  occ. eigenvalues --   -0.43859  -0.43693  -0.42687  -0.41985  -0.41233
  Beta  occ. eigenvalues --   -0.40186  -0.40170  -0.37527  -0.37135  -0.36614
  Beta  occ. eigenvalues --   -0.34892  -0.29028  -0.28656  -0.28480  -0.27626
  Beta  occ. eigenvalues --   -0.26290  -0.25136
  Beta virt. eigenvalues --   -0.11803  -0.07199  -0.03526  -0.02260  -0.00929
  Beta virt. eigenvalues --   -0.00322   0.00467   0.01368   0.01764   0.03107
  Beta virt. eigenvalues --    0.03432   0.03553   0.03652   0.04255   0.05105

 Mulliken charges and spin densities:
               1          2
     1  O   -0.251266   0.000000
     2  C   -0.598151  -0.000000
     3  C   -0.171542   0.000000
     4  C    0.209091   0.000000
     5  C    0.105416  -0.000000
     6  C   -0.599965  -0.000000
     7  O   -0.296293   0.000000
     8  C    0.105305  -0.000000
     9  C    0.209059  -0.000000
    10  C   -0.171487  -0.000000
    11  C   -0.598174  -0.000000
    12  O   -0.251288  -0.000000
    13  C    0.287663   0.000000
    14  C    0.455491   0.000000
    15  C   -0.716025  -0.000000
    16  O   -0.268869   0.000000
    17  C    0.455468   0.000000
    18  C    0.287595   0.000000
    19  H    0.312041   0.000000
    20  H    0.230542   0.000000
    21  H    0.191796  -0.000000
    22  H    0.191795   0.000000
    23  H    0.230543   0.000000
    24  H    0.312037   0.000000
    25  H    0.169610  -0.000000
    26  H    0.169610   0.000000
 Sum of Mulliken charges =  -0.00000   0.00000

 Dipole moment (field-independent basis, Debye):
    X=              0.0004    Y=             -3.5522    Z=              0.0003  Tot=              3.5522
 Quadrupole moment (field-independent basis, Debye-Ang):
   XX=            -87.7989   YY=           -104.7535   ZZ=           -105.1204
   XY=             -0.0013   XZ=             -0.0037   YZ=              0.0032

 Normal termination of Gaussian 16 at Tue Jan 16 05:02:02 2024.
