 Q-Chem 5.4, Q-Chem, Inc., Pleasanton, CA (2021)
 Q-Chem 5.4.0 for Intel X86 EM64T Linux

User input:
--------------------------------------------------------------
$molecule
0 1
C                  1.1247380000      2.8557130000      1.4729510000
C                 -0.2367200000      2.5520660000      0.9394140000
C                 -0.5065130000      1.3452790000      0.3979210000
C                  0.5872250000      0.3343750000      0.2635840000
C                  1.9863460000      0.6747840000      0.6745750000
C                  2.2414190000      1.8862310000      1.2279500000
O                  1.3040510000      3.8786750000      2.1130260000
O                  0.3514270000     -0.7688520000     -0.2069890000
C                 -1.2447950000      3.6523390000      1.1079180000
C                 -1.8635240000      0.9335230000     -0.1083970000
C                  3.0133940000     -0.3942080000      0.4496520000
S                  3.8586900000      2.2631600000      1.8644090000
C                  4.1808630000      3.9939630000      1.3022600000
C                  5.6002090000      4.3587940000      1.7267650000
C                  6.0185910000      5.7252910000      1.1975090000
O                  5.4046740000      6.3652570000      0.3925220000
O                  7.1958030000      6.1992360000      1.6904650000
H                 -0.8492080000      4.5940580000      0.7196850000
H                 -1.4502440000      3.8247100000      2.1688260000
H                 -2.1810930000      3.4271030000      0.6010080000
H                 -2.6459570000      1.1582550000      0.6194120000
H                 -1.8753330000     -0.1336260000     -0.3222430000
H                 -2.1118700000      1.4635160000     -1.0339760000
H                  2.7426440000     -1.0040500000     -0.4116070000
H                  3.0626790000     -1.0680050000      1.3127220000
H                  4.0036500000      0.0416120000      0.3158320000
H                  3.4521900000      4.6595110000      1.7543200000
H                  4.0863290000      4.0362730000      0.2182550000
H                  6.3219200000      3.6231010000      1.3501450000
H                  5.6868570000      4.3528600000      2.8193920000
H                  7.5672090000      5.5902420000      2.3405150000
$end

$rem
BASIS  =  6-311++G(d,p)
GUI  =  2
JOB_TYPE  =  SP
METHOD  =  B3LYP
SCF_CONVERGENCE  = 8
SOLVENT_METHOD = sm12
$end

$smx
solvent dimethylformamide
charges CM5
$end

--------------------------------------------------------------

             Standard Nuclear Orientation (Angstroms)
    I     Atom           X                Y                Z
 ----------------------------------------------------------------
    1      C       1.1247380000     2.8557130000     1.4729510000
    2      C      -0.2367200000     2.5520660000     0.9394140000
    3      C      -0.5065130000     1.3452790000     0.3979210000
    4      C       0.5872250000     0.3343750000     0.2635840000
    5      C       1.9863460000     0.6747840000     0.6745750000
    6      C       2.2414190000     1.8862310000     1.2279500000
    7      O       1.3040510000     3.8786750000     2.1130260000
    8      O       0.3514270000    -0.7688520000    -0.2069890000
    9      C      -1.2447950000     3.6523390000     1.1079180000
   10      C      -1.8635240000     0.9335230000    -0.1083970000
   11      C       3.0133940000    -0.3942080000     0.4496520000
   12      S       3.8586900000     2.2631600000     1.8644090000
   13      C       4.1808630000     3.9939630000     1.3022600000
   14      C       5.6002090000     4.3587940000     1.7267650000
   15      C       6.0185910000     5.7252910000     1.1975090000
   16      O       5.4046740000     6.3652570000     0.3925220000
   17      O       7.1958030000     6.1992360000     1.6904650000
   18      H      -0.8492080000     4.5940580000     0.7196850000
   19      H      -1.4502440000     3.8247100000     2.1688260000
   20      H      -2.1810930000     3.4271030000     0.6010080000
   21      H      -2.6459570000     1.1582550000     0.6194120000
   22      H      -1.8753330000    -0.1336260000    -0.3222430000
   23      H      -2.1118700000     1.4635160000    -1.0339760000
   24      H       2.7426440000    -1.0040500000    -0.4116070000
   25      H       3.0626790000    -1.0680050000     1.3127220000
   26      H       4.0036500000     0.0416120000     0.3158320000
   27      H       3.4521900000     4.6595110000     1.7543200000
   28      H       4.0863290000     4.0362730000     0.2182550000
   29      H       6.3219200000     3.6231010000     1.3501450000
   30      H       5.6868570000     4.3528600000     2.8193920000
   31      H       7.5672090000     5.5902420000     2.3405150000
 ----------------------------------------------------------------

   16   -1165.0349930162      4.97e-09  Convergence criterion met
 Total energy in the final basis set =    -1165.0621608843

                    Orbital Energies (a.u.)
 --------------------------------------------------------------

 Alpha MOs
 -- Occupied --
-88.8619 -19.1795 -19.1339 -19.1330 -19.1234 -10.3193 -10.2831 -10.2787
-10.2316 -10.2163 -10.2100 -10.2092 -10.2086 -10.2055 -10.1710 -10.1709
-10.1697  -7.9478  -5.9118  -5.9078  -5.9017  -1.1172  -1.0687  -1.0653
 -1.0397  -0.8715  -0.8390  -0.8150  -0.7556  -0.7474  -0.7258  -0.6841
 -0.6592  -0.6417  -0.6187  -0.5783  -0.5750  -0.5406  -0.5320  -0.5002
 -0.4800  -0.4732  -0.4659  -0.4629  -0.4446  -0.4353  -0.4331  -0.4316
 -0.4246  -0.4199  -0.4153  -0.4074  -0.3998  -0.3963  -0.3907  -0.3872
 -0.3792  -0.3771  -0.3703  -0.3428  -0.3393  -0.3006  -0.2962  -0.2888
 -0.2775  -0.2704  -0.2379

          Ground-State Mulliken Net Atomic Charges

     Atom                 Charge (a.u.)
  ----------------------------------------
      1 C                    -1.340183
      2 C                     1.176017
      3 C                    -0.044273
      4 C                    -2.447539
      5 C                     0.166511
      6 C                     1.762855
      7 O                    -0.241284
      8 O                    -0.274348
      9 C                    -0.066779
     10 C                    -0.156395
     11 C                     0.076266
     12 S                    -0.313050
     13 C                    -0.964312
     14 C                     0.596533
     15 C                    -0.374589
     16 O                    -0.414206
     17 O                    -0.158418
     18 H                     0.166086
     19 H                     0.199128
     20 H                     0.251632
     21 H                     0.215032
     22 H                     0.177414
     23 H                     0.228087
     24 H                     0.166157
     25 H                     0.227010
     26 H                     0.165982
     27 H                     0.143697
     28 H                     0.190418
     29 H                     0.289415
     30 H                     0.279484
     31 H                     0.317651
  ----------------------------------------
  Sum of atomic charges =     0.000000

                    Cartesian Multipole Moments
 -----------------------------------------------------------------
    Charge (ESU x 10^10)
                 0.0000
    Dipole Moment (Debye)
         X       0.2553      Y      -1.9553      Z       1.8195
       Tot       2.6831
    Quadrupole Moments (Debye-Ang)
        XX     -84.3255     XY     -16.8138     YY    -148.6419
        XZ      16.0298     YZ       5.7651     ZZ    -104.9513

 Total job time:  822.98s(wall), 6296.03s(cpu)
        *  Thank you very much for using Q-Chem.  Have a nice day.  *
