 Gaussian 16, Revision A.03,
 Gaussian 16:  ES64L-G16RevA.03 25-Dec-2016

 --------------------------------------
 #P UB3LYP/6-311++G(d,p) nosym opt freq
 --------------------------------------

 -------
 Radical
 -------
 Symbolic Z-matrix:
 Charge = -1 Multiplicity = 2

 SCF Done:  E(UB3LYP) =  -5721.75237875     A.U. after   23 cycles
 SCF Done:  E(UB3LYP) =  -5721.75237863     A.U. after   11 cycles
 Optimization completed.
    -- Stationary point found.
 Normal termination of Gaussian 16 at Sun Jan  7 20:21:43 2024.

 ----------------------------------------------------------------------
 #P Geom=AllCheck Guess=TCheck SCRF=Check GenChk UB3LYP/6-311++G(d,p) F
 req
 ----------------------------------------------------------------------

 Structure from the checkpoint file:  "234-rad.chk"
 -------
 Radical
 -------
 Charge = -1 Multiplicity = 2

                          Input orientation:
 ---------------------------------------------------------------------
 Center     Atomic      Atomic             Coordinates (Angstroms)
 Number     Number       Type             X           Y           Z
 ---------------------------------------------------------------------
      1          6           0        5.725820   -5.234882    1.121068
      2          6           0        6.662824   -5.107033    0.116186
      3          6           0        6.539141   -4.071894   -0.835744
      4          6           0        4.639873   -4.345868    1.216474
      5          6           0        4.516787   -3.305760    0.258967
      6          6           0        5.479800   -3.190402   -0.757399
      7          6           0        3.663059   -4.516405    2.302760
      8          6           0        2.573494   -3.562569    2.332764
      9          6           0        2.469723   -2.557265    1.393385
     10          6           0        3.398078   -2.349009    0.315205
     11          8           0        3.772373   -5.441126    3.151406
     12          8           0        3.275240   -1.422261   -0.527038
     13          1           0        5.801380   -6.021225    1.861398
     14          1           0        5.362487   -2.388184   -1.475131
     15         35           0        8.116554   -6.370778    0.064742
     16         35           0        7.812468   -3.838804   -2.262570
     17          6           0        1.559818   -3.717532    3.434745
     18          1           0        1.640892   -1.855243    1.440917
     19          1           0        2.038965   -3.655961    4.417580
     20          1           0        1.085752   -4.703963    3.393546
     21          1           0        0.785443   -2.948763    3.368381
 ---------------------------------------------------------------------

 SCF Done:  E(UB3LYP) =  -5721.75237863     A.U. after    1 cycles

 Alpha  occ. eigenvalues -- -482.73236-482.73230 -62.38521 -62.38515 -56.20550
 Alpha  occ. eigenvalues --  -56.20543 -56.20176 -56.20170 -56.20158 -56.20151
 Alpha  occ. eigenvalues --  -18.95531 -18.95379 -10.13258 -10.13198 -10.10265
 Alpha  occ. eigenvalues --  -10.10187 -10.07552 -10.07533 -10.06714 -10.06632
 Alpha  occ. eigenvalues --  -10.05915 -10.05381 -10.04502  -8.59489  -8.59483
 Alpha  occ. eigenvalues --   -6.42609  -6.42602  -6.41360  -6.41353  -6.41315
 Alpha  occ. eigenvalues --   -6.41309  -2.53706  -2.53699  -2.53353  -2.53346
 Alpha  occ. eigenvalues --   -2.53322  -2.53315  -2.52327  -2.52326  -2.52321
 Alpha  occ. eigenvalues --   -2.52320  -0.88020  -0.87674  -0.77984  -0.71758
 Alpha  occ. eigenvalues --   -0.70542  -0.68599  -0.63816  -0.62982  -0.58684
 Alpha  occ. eigenvalues --   -0.54657  -0.51167  -0.48460  -0.44732  -0.39662
 Alpha  occ. eigenvalues --   -0.37757  -0.36631  -0.33571  -0.32883  -0.31783
 Alpha  occ. eigenvalues --   -0.31448  -0.29849  -0.29473  -0.27964  -0.27648
 Alpha  occ. eigenvalues --   -0.26793  -0.26683  -0.25232  -0.24364  -0.23580
 Alpha  occ. eigenvalues --   -0.21749  -0.20986  -0.20139  -0.18187  -0.15269
 Alpha  occ. eigenvalues --   -0.14755  -0.13431  -0.12274  -0.11559  -0.03390
 Alpha virt. eigenvalues --    0.05839   0.06876   0.08605   0.08629   0.09064
 Alpha virt. eigenvalues --    0.09652   0.11080   0.12091   0.12340   0.12621
 Alpha virt. eigenvalues --    0.13232   0.13477   0.13740   0.14314   0.15350

  Beta  occ. eigenvalues -- -482.73236-482.73230 -62.38521 -62.38514 -56.20550
  Beta  occ. eigenvalues --  -56.20544 -56.20174 -56.20167 -56.20158 -56.20151
  Beta  occ. eigenvalues --  -18.94857 -18.94705 -10.13212 -10.13139 -10.10167
  Beta  occ. eigenvalues --  -10.10053 -10.07573 -10.07541 -10.06634 -10.06540
  Beta  occ. eigenvalues --  -10.05773 -10.05391 -10.04378  -8.59489  -8.59482
  Beta  occ. eigenvalues --   -6.42610  -6.42603  -6.41356  -6.41348  -6.41315
  Beta  occ. eigenvalues --   -6.41308  -2.53706  -2.53700  -2.53351  -2.53344
  Beta  occ. eigenvalues --   -2.53322  -2.53316  -2.52325  -2.52324  -2.52318
  Beta  occ. eigenvalues --   -2.52317  -0.86875  -0.86501  -0.77857  -0.71391
  Beta  occ. eigenvalues --   -0.70488  -0.68342  -0.63672  -0.62792  -0.58365
  Beta  occ. eigenvalues --   -0.53952  -0.51066  -0.48144  -0.44433  -0.39535
  Beta  occ. eigenvalues --   -0.37512  -0.36367  -0.33474  -0.32843  -0.31139
  Beta  occ. eigenvalues --   -0.31058  -0.29584  -0.29148  -0.27741  -0.27232
  Beta  occ. eigenvalues --   -0.26704  -0.25450  -0.24180  -0.23280  -0.22977
  Beta  occ. eigenvalues --   -0.21413  -0.20979  -0.19442  -0.18176  -0.14195
  Beta  occ. eigenvalues --   -0.12935  -0.12329  -0.11643  -0.10937
  Beta virt. eigenvalues --    0.03248   0.05884   0.07427   0.08605   0.09091
  Beta virt. eigenvalues --    0.09657   0.09783   0.11088   0.12100   0.12353
  Beta virt. eigenvalues --    0.12716   0.13264   0.13479   0.13744   0.14431

 Mulliken charges and spin densities:
               1          2
     1  C   -0.049132   0.011903
     2  C    0.029116   0.024547
     3  C   -0.011531   0.038165
     4  C    0.276315   0.032429
     5  C    0.661810   0.087400
     6  C   -0.103224  -0.000852
     7  C   -0.772192   0.083100
     8  C    0.908504   0.076339
     9  C   -0.337033   0.101220
    10  C   -1.075209   0.044967
    11  O   -0.372319   0.251404
    12  O   -0.385153   0.244844
    13  H    0.226929  -0.002023
    14  H    0.221524  -0.002319
    15  Br  -0.220294   0.000809
    16  Br  -0.225624   0.001191
    17  C   -0.336921   0.006486
    18  H    0.119313  -0.009343
    19  H    0.158986   0.004970
    20  H    0.158714   0.005053
    21  H    0.127423  -0.000291
 Sum of Mulliken charges =  -1.00000   1.00000

 Dipole moment (field-independent basis, Debye):
    X=            -22.1780    Y=             18.3039    Z=             -3.2881  Tot=             28.9432
 Quadrupole moment (field-independent basis, Debye-Ang):
   XX=           -237.5937   YY=           -207.4499   ZZ=           -139.2868
   XY=             93.7750   XZ=             -7.7288   YZ=             25.2965

  Exact polarizability: 239.839 -54.816 183.142 -72.990 -33.823 203.603
 Approx polarizability: 337.887 -79.189 315.666 -83.473 -86.045 327.018

                      1                      2                      3
                      A                      A                      A
 Frequencies --     42.8334                63.9954               113.9388
 Red. masses --     13.9223                 5.0911                 1.1324
 Frc consts  --      0.0150                 0.0123                 0.0087
 IR Inten    --      0.2576                 2.9963                 0.3309

                      4                      5                      6
                      A                      A                      A
 Frequencies --    123.7581               125.6873               132.6605
 Red. masses --     51.4467                 6.4598                10.8253
 Frc consts  --      0.4643                 0.0601                 0.1122
 IR Inten    --      0.7140                 6.6728                 0.3216

                      7                      8                      9
                      A                      A                      A
 Frequencies --    188.4401               205.4132               221.3199
 Red. masses --      4.1154                 5.7519                13.4879
 Frc consts  --      0.0861                 0.1430                 0.3893
 IR Inten    --      0.3949                 0.0596                 1.2296

                     10                     11                     12
                      A                      A                      A
 Frequencies --    236.1866               293.9822               301.2143
 Red. masses --     16.9119                 3.4078                 7.3371
 Frc consts  --      0.5558                 0.1735                 0.3922
 IR Inten    --      0.1628                 0.8713                 1.4348

                     13                     14                     15
                      A                      A                      A
 Frequencies --    387.0368               400.6427               405.2819
 Red. masses --      5.1294                 9.0436                 7.5767
 Frc consts  --      0.4527                 0.8553                 0.7332
 IR Inten    --      2.4126                16.5160                 3.4949

                     16                     17                     18
                      A                      A                      A
 Frequencies --    441.5779               464.6583               502.3704
 Red. masses --      3.4189                 9.5059                 7.9606
 Frc consts  --      0.3928                 1.2092                 1.1837
 IR Inten    --      2.7362                 6.8690                 2.6105

                     19                     20                     21
                      A                      A                      A
 Frequencies --    533.9316               581.1336               627.0037
 Red. masses --      6.9071                 7.1563                 4.9728
 Frc consts  --      1.1602                 1.4239                 1.1518
 IR Inten    --      0.1818                23.7223                 0.0179

                     22                     23                     24
                      A                      A                      A
 Frequencies --    658.4381               680.9543               692.9570
 Red. masses --      4.4971                 6.4909                 4.0708
 Frc consts  --      1.1487                 1.7733                 1.1517
 IR Inten    --      3.6953                19.3185                 3.6798

                     25                     26                     27
                      A                      A                      A
 Frequencies --    747.7149               777.7316               845.0000
 Red. masses --      6.5193                 5.5723                 6.0179
 Frc consts  --      2.1475                 1.9858                 2.5317
 IR Inten    --     27.7286                 1.1249                40.0511

                     28                     29                     30
                      A                      A                      A
 Frequencies --    872.2607               911.2810               936.3626
 Red. masses --      1.4683                 1.3495                 1.4135
 Frc consts  --      0.6582                 0.6603                 0.7302
 IR Inten    --     26.2095                 0.0003                15.9939

                     31                     32                     33
                      A                      A                      A
 Frequencies --    966.6113              1020.3844              1048.8533
 Red. masses --      4.5003                 1.7373                 1.4950
 Frc consts  --      2.4774                 1.0658                 0.9690
 IR Inten    --     38.6737                17.1425                 1.2310

                     34                     35                     36
                      A                      A                      A
 Frequencies --   1094.8787              1114.2428              1165.0273
 Red. masses --      1.7407                 4.3201                 5.0336
 Frc consts  --      1.2295                 3.1601                 4.0253
 IR Inten    --     11.1408                13.1648                 4.0422

                     37                     38                     39
                      A                      A                      A
 Frequencies --   1201.9624              1233.4936              1250.4804
 Red. masses --      6.5132                 1.2672                 2.1104
 Frc consts  --      5.5441                 1.1360                 1.9443
 IR Inten    --     18.6327                 4.3211                26.5905

                     40                     41                     42
                      A                      A                      A
 Frequencies --   1338.7509              1350.5765              1396.3470
 Red. masses --      9.8199                 4.0283                 1.3753
 Frc consts  --     10.3695                 4.3292                 1.5799
 IR Inten    --      1.5169                27.6892                23.5515

                     43                     44                     45
                      A                      A                      A
 Frequencies --   1428.3363              1441.9238              1465.8089
 Red. masses --      4.4352                 3.2315                 1.0460
 Frc consts  --      5.3312                 3.9586                 1.3241
 IR Inten    --     72.3241                54.6658                 4.8424

                     46                     47                     48
                      A                      A                      A
 Frequencies --   1477.2756              1510.9218              1518.7177
 Red. masses --      1.3216                 9.2287                 4.6844
 Frc consts  --      1.6993                12.4130                 6.3659
 IR Inten    --     34.3146               180.7325               389.4519

                     49                     50                     51
                      A                      A                      A
 Frequencies --   1530.8512              1591.4743              1620.8621
 Red. masses --      5.4667                 7.7516                 7.5221
 Frc consts  --      7.5481                11.5675                11.6435
 IR Inten    --     44.8950                34.4788                21.0726

                     52                     53                     54
                      A                      A                      A
 Frequencies --   3010.9917              3053.9573              3084.6695
 Red. masses --      1.0346                 1.0988                 1.1024
 Frc consts  --      5.5263                 6.0379                 6.1804
 IR Inten    --     90.2079                28.6545                24.2011

                     55                     56                     57
                      A                      A                      A
 Frequencies --   3138.1418              3196.7616              3198.8534
 Red. masses --      1.0887                 1.0899                 1.0902
 Frc consts  --      6.3166                 6.5624                 6.5730
 IR Inten    --     37.9569                 1.8873                 8.7717

 - Thermochemistry -
 -------------------
 Temperature   298.150 Kelvin.  Pressure   1.00000 Atm.
 Atom     1 has atomic number  6 and mass  12.00000

 Molecular mass:   327.87345 amu.
 Principal axes and moments of inertia in atomic units:
                           1         2         3
     Eigenvalues --  3157.013718468.95500**********
           X            0.82447  -0.15550   0.54413
           Y           -0.25472   0.75663   0.60219
           Z           -0.50534  -0.63509   0.58420
 This molecule is an asymmetric top.
 Rotational symmetry number  1.
 Warning -- assumption of classical behavior for rotation
           may cause significant error
 Rotational temperatures (Kelvin)      0.02744     0.01023     0.00746
 Rotational constants (GHZ):           0.57166     0.21310     0.15538
 Zero-point vibrational energy     358681.9 (Joules/Mol)
                                   85.72702 (Kcal/Mol)
 Warning -- explicit consideration of  20 degrees of freedom as
           vibrations may cause significant error
 Vibrational temperatures:     61.63    92.08   163.93   178.06   180.84
          (Kelvin)            190.87   271.12   295.54   318.43   339.82
                              422.97   433.38   556.86   576.44   583.11
                              635.33   668.54   722.80   768.21   836.12
                              902.12   947.35   979.74   997.01  1075.80
                             1118.98  1215.77  1254.99  1311.13  1347.22
                             1390.74  1468.11  1509.07  1575.29  1603.15
                             1676.21  1729.36  1774.72  1799.16  1926.16
                             1943.18  2009.03  2055.06  2074.61  2108.97
                             2125.47  2173.88  2185.10  2202.55  2289.78
                             2332.06  4332.15  4393.96  4438.15  4515.09
                             4599.43  4602.44

 Zero-point correction=                           0.136615 (Hartree/Particle)
 Thermal correction to Energy=                    0.150132
 Thermal correction to Enthalpy=                  0.151076
 Thermal correction to Gibbs Free Energy=         0.093724
 Sum of electronic and zero-point Energies=          -5721.615764
 Sum of electronic and thermal Energies=             -5721.602246
 Sum of electronic and thermal Enthalpies=           -5721.601302
 Sum of electronic and thermal Free Energies=        -5721.658654

                     E (Thermal)             CV                S
                      KCal/Mol        Cal/Mol-Kelvin    Cal/Mol-Kelvin
 Total                   94.209             49.440            120.707
 Electronic               0.000              0.000              1.377
 Translational            0.889              2.981             43.258
 Rotational               0.889              2.981             34.095
 Vibrational             92.432             43.478             41.977
 Vibration     1          0.595              1.980              5.124
 Vibration     2          0.597              1.971              4.330
 Vibration     3          0.607              1.938              3.201
 Vibration     4          0.610              1.929              3.041
 Vibration     5          0.611              1.927              3.011
 Vibration     6          0.613              1.921              2.907
 Vibration     7          0.633              1.856              2.243
 Vibration     8          0.640              1.832              2.084
 Vibration     9          0.648              1.809              1.948
 Vibration    10          0.655              1.785              1.831
 Vibration    11          0.689              1.685              1.451
 Vibration    12          0.693              1.671              1.410
 Vibration    13          0.755              1.498              1.012
 Vibration    14          0.766              1.469              0.960
 Vibration    15          0.770              1.459              0.943
 Vibration    16          0.801              1.379              0.822
 Vibration    17          0.822              1.328              0.753
 Vibration    18          0.858              1.245              0.652
 Vibration    19          0.889              1.175              0.578
 Vibration    20          0.938              1.072              0.483

                           ! Non-Optimized Parameters !
 Normal termination of Gaussian 16 at Sun Jan  7 21:02:52 2024.
