 Q-Chem 5.4, Q-Chem, Inc., Pleasanton, CA (2021)
 Q-Chem 5.4.0 for Intel X86 EM64T Linux

User input:
--------------------------------------------------------------
$molecule
-1 2
C                  5.7258200000     -5.2348820000      1.1210680000
C                  6.6628240000     -5.1070330000      0.1161860000
C                  6.5391410000     -4.0718940000     -0.8357440000
C                  4.6398730000     -4.3458680000      1.2164740000
C                  4.5167870000     -3.3057600000      0.2589670000
C                  5.4798000000     -3.1904020000     -0.7573990000
C                  3.6630590000     -4.5164050000      2.3027600000
C                  2.5734940000     -3.5625690000      2.3327640000
C                  2.4697230000     -2.5572650000      1.3933850000
C                  3.3980780000     -2.3490090000      0.3152050000
O                  3.7723730000     -5.4411260000      3.1514060000
O                  3.2752400000     -1.4222610000     -0.5270380000
H                  5.8013800000     -6.0212250000      1.8613980000
H                  5.3624870000     -2.3881840000     -1.4751310000
Br                 8.1165540000     -6.3707780000      0.0647420000
Br                 7.8124680000     -3.8388040000     -2.2625700000
C                  1.5598180000     -3.7175320000      3.4347450000
H                  1.6408920000     -1.8552430000      1.4409170000
H                  2.0389650000     -3.6559610000      4.4175800000
H                  1.0857520000     -4.7039630000      3.3935460000
H                  0.7854430000     -2.9487630000      3.3683810000
$end
$rem
MAX_SCF_CYCLES=200
BASIS  =  6-311++G(d,p)
GUI  =  2
JOB_TYPE  =  SP
METHOD  =  B3LYP
SOLVENT_METHOD = PCM
$end
$pcm
theory = CPCM
$end
$solvent
dielectric 37.219
opticaldielectric 1.43
$end

--------------------------------------------------------------

             Standard Nuclear Orientation (Angstroms)
    I     Atom           X                Y                Z
 ----------------------------------------------------------------
    1      C       5.7258200000    -5.2348820000     1.1210680000
    2      C       6.6628240000    -5.1070330000     0.1161860000
    3      C       6.5391410000    -4.0718940000    -0.8357440000
    4      C       4.6398730000    -4.3458680000     1.2164740000
    5      C       4.5167870000    -3.3057600000     0.2589670000
    6      C       5.4798000000    -3.1904020000    -0.7573990000
    7      C       3.6630590000    -4.5164050000     2.3027600000
    8      C       2.5734940000    -3.5625690000     2.3327640000
    9      C       2.4697230000    -2.5572650000     1.3933850000
   10      C       3.3980780000    -2.3490090000     0.3152050000
   11      O       3.7723730000    -5.4411260000     3.1514060000
   12      O       3.2752400000    -1.4222610000    -0.5270380000
   13      H       5.8013800000    -6.0212250000     1.8613980000
   14      H       5.3624870000    -2.3881840000    -1.4751310000
   15      Br      8.1165540000    -6.3707780000     0.0647420000
   16      Br      7.8124680000    -3.8388040000    -2.2625700000
   17      C       1.5598180000    -3.7175320000     3.4347450000
   18      H       1.6408920000    -1.8552430000     1.4409170000
   19      H       2.0389650000    -3.6559610000     4.4175800000
   20      H       1.0857520000    -4.7039630000     3.3935460000
   21      H       0.7854430000    -2.9487630000     3.3683810000
 ----------------------------------------------------------------

    9   -5721.8217494628      4.34e-06  Convergence criterion met
 Total energy in the final basis set =    -5721.8217494628

                    Orbital Energies (a.u.)
 --------------------------------------------------------------

 Alpha MOs
 -- Occupied --
********-482.8377 -62.4905 -62.4905 -56.3110 -56.3110 -56.3072 -56.3072
-56.3070 -56.3069 -19.0830 -19.0829 -10.2445 -10.2439 -10.2285 -10.2265
-10.1901 -10.1897 -10.1859 -10.1852 -10.1781 -10.1629 -10.1573  -8.6992
 -8.6992  -6.5307  -6.5307  -6.5178  -6.5178  -6.5174  -6.5173  -2.6417
 -2.6415  -2.6379  -2.6379  -2.6377  -2.6376  -2.6274  -2.6274  -2.6273
 -2.6273  -1.0086  -1.0061  -0.8931  -0.8336  -0.8132  -0.7995  -0.7524
 -0.7413  -0.7012  -0.6637  -0.6262  -0.6001  -0.5649  -0.5134  -0.4937
 -0.4846  -0.4484  -0.4438  -0.4352  -0.4339  -0.4203  -0.4090  -0.3967
 -0.3887  -0.3875  -0.3774  -0.3751  -0.3593  -0.3550  -0.3246  -0.3153
 -0.3152  -0.2867  -0.2740  -0.2622  -0.2526  -0.2478  -0.2440  -0.1587

 Beta MOs
 -- Occupied --
********-482.8377 -62.4905 -62.4905 -56.3111 -56.3110 -56.3072 -56.3071
-56.3070 -56.3069 -19.0769 -19.0769 -10.2441 -10.2434 -10.2269 -10.2247
-10.1902 -10.1897 -10.1853 -10.1845 -10.1765 -10.1618 -10.1574  -8.6992
 -8.6992  -6.5307  -6.5307  -6.5178  -6.5178  -6.5174  -6.5173  -2.6417
 -2.6415  -2.6379  -2.6378  -2.6378  -2.6376  -2.6273  -2.6273  -2.6273
 -2.6273  -0.9980  -0.9952  -0.8918  -0.8296  -0.8126  -0.7972  -0.7508
 -0.7395  -0.6972  -0.6571  -0.6251  -0.5970  -0.5616  -0.5119  -0.4909
 -0.4820  -0.4473  -0.4433  -0.4310  -0.4248  -0.4145  -0.4057  -0.3946
 -0.3875  -0.3767  -0.3726  -0.3575  -0.3550  -0.3530  -0.3224  -0.3151
 -0.3075  -0.2865  -0.2567  -0.2501  -0.2469  -0.2426  -0.2385

          Ground-State Mulliken Net Atomic Charges

     Atom                 Charge (a.u.)    Spin (a.u.)
  --------------------------------------------------------
      1 C                    -0.058470       0.021766
      2 C                    -0.108684       0.019539
      3 C                    -0.139509       0.036060
      4 C                     0.270920       0.013234
      5 C                     0.700348       0.069862
      6 C                    -0.049003       0.011592
      7 C                    -0.495781       0.116457
      8 C                     0.826842       0.094286
      9 C                    -0.502003       0.073877
     10 C                    -0.751172       0.089086
     11 O                    -0.478783       0.231434
     12 O                    -0.499775       0.216030
     13 H                     0.220298      -0.002281
     14 H                     0.215077      -0.002383
     15 Br                   -0.231340       0.001662
     16 Br                   -0.240827       0.002120
     17 C                    -0.364956       0.005499
     18 H                     0.170958      -0.008297
     19 H                     0.175464       0.005315
     20 H                     0.175724       0.005380
     21 H                     0.164672      -0.000236
  --------------------------------------------------------
  Sum of atomic charges =    -1.000000

                    Cartesian Multipole Moments
 -----------------------------------------------------------------
    Charge (ESU x 10^10)
                -4.8032
    Dipole Moment (Debye)
         X     -21.1677      Y      17.7150      Z      -3.6249
       Tot      27.8395
    Quadrupole Moments (Debye-Ang)
        XX    -219.8550     XY      84.9466     YY    -203.3098
        XZ     -13.7016     YZ      29.0723     ZZ    -137.5572

 Total job time:  59.65s(wall), 325.64s(cpu)
        *  Thank you very much for using Q-Chem.  Have a nice day.  *
