 Gaussian 16, Revision A.03,
 Gaussian 16:  ES64L-G16RevA.03 25-Dec-2016

 ----------------------------------------------------------------------
 #P UB3LYP/6-311++G(d,p) nosym opt freq SCRF=(PCM,Solvent=n,n-DiMethylF
 ormamide)
 ----------------------------------------------------------------------

 -------
 Radical
 -------
 Symbolic Z-matrix:
 Charge = -1 Multiplicity = 2

 SCF Done:  E(UB3LYP) =  -917.047330684     A.U. after   19 cycles
 SCF Done:  E(UB3LYP) =  -917.047949836     A.U. after   15 cycles
 SCF Done:  E(UB3LYP) =  -917.048128509     A.U. after   16 cycles
 SCF Done:  E(UB3LYP) =  -917.048127204     A.U. after   13 cycles
 SCF Done:  E(UB3LYP) =  -917.048125837     A.U. after   14 cycles
 SCF Done:  E(UB3LYP) =  -917.048137049     A.U. after   14 cycles
 SCF Done:  E(UB3LYP) =  -917.048138082     A.U. after   11 cycles
 SCF Done:  E(UB3LYP) =  -917.048137998     A.U. after   10 cycles
 SCF Done:  E(UB3LYP) =  -917.048138436     A.U. after   10 cycles
 Optimization completed.
    -- Stationary point found.
 Normal termination of Gaussian 16 at Sat Feb 10 23:18:22 2024.

 ----------------------------------------------------------------------
 #P Geom=AllCheck Guess=TCheck SCRF=Check GenChk UB3LYP/6-311++G(d,p) F
 req
 ----------------------------------------------------------------------

 Structure from the checkpoint file:  "221-rad.chk"
 -------
 Radical
 -------
 Charge = -1 Multiplicity = 2

                          Input orientation:
 ---------------------------------------------------------------------
 Center     Atomic      Atomic             Coordinates (Angstroms)
 Number     Number       Type             X           Y           Z
 ---------------------------------------------------------------------
      1          6           0        4.989431   -2.495825    0.206204
      2          6           0        5.681489   -1.661466   -0.650365
      3          6           0        4.974081   -0.806763   -1.519911
      4          6           0        3.578035   -2.511233    0.230122
      5          6           0        2.862773   -1.648584   -0.647671
      6          6           0        3.592638   -0.804802   -1.514320
      7          6           0        2.884044   -3.412341    1.155370
      8          6           0        1.420925   -3.375976    1.125846
      9          6           0        0.707648   -2.507839    0.242558
     10          6           0        1.398099   -1.614305   -0.674690
     11          6           0        0.696569   -4.215916    1.987848
     12          6           0       -0.708143   -2.529925    0.272985
     13          6           0       -1.399058   -3.360333    1.124731
     14          8           0        3.513823   -4.174527    1.931172
     15          8           0        0.770059   -0.845852   -1.456654
     16          1           0        5.517291   -3.159053    0.880588
     17          1           0       -2.480946   -3.360325    1.130440
     18          1           0        3.036329   -0.153506   -2.177243
     19          1           0        1.246072   -4.869504    2.652821
     20          1           0       -1.240502   -1.868477   -0.399303
     21          6           0       -0.691152   -4.224257    2.003420
     22          1           0        5.515954   -0.151215   -2.192995
     23          6           0       -1.382798   -5.138764    2.940916
     24          8           0       -0.827921   -5.898700    3.715870
     25          8           0       -2.726960   -5.049865    2.854666
     26          6           0       -3.488688   -5.904358    3.730477
     27          1           0       -4.531303   -5.687305    3.511121
     28          1           0       -3.264310   -5.678411    4.773414
     29          1           0       -3.267439   -6.952658    3.527441
     30          1           0        6.765919   -1.662857   -0.655101
 ---------------------------------------------------------------------

 SCF Done:  E(UB3LYP) =  -917.048138436     A.U. after    1 cycles

 Alpha  occ. eigenvalues --  -19.17220 -19.11422 -19.08323 -19.07879 -10.30647
 Alpha  occ. eigenvalues --  -10.23362 -10.22685 -10.22364 -10.19006 -10.18287
 Alpha  occ. eigenvalues --  -10.18012 -10.18009 -10.17927 -10.17904 -10.17839
 Alpha  occ. eigenvalues --  -10.17688 -10.17592 -10.17491 -10.17433 -10.17334
 Alpha  occ. eigenvalues --   -1.11169  -1.02270  -1.00898  -1.00187  -0.86951
 Alpha  occ. eigenvalues --   -0.85804  -0.79823  -0.76526  -0.75505  -0.75336
 Alpha  occ. eigenvalues --   -0.72700  -0.67592  -0.64926  -0.62848  -0.59700
 Alpha  occ. eigenvalues --   -0.57874  -0.56324  -0.54415  -0.53513  -0.49890
 Alpha  occ. eigenvalues --   -0.48821  -0.48748  -0.47387  -0.46271  -0.45848
 Alpha  occ. eigenvalues --   -0.43922  -0.43168  -0.42804  -0.42726  -0.41745
 Alpha  occ. eigenvalues --   -0.41180  -0.41013  -0.40908  -0.38828  -0.38426
 Alpha  occ. eigenvalues --   -0.36860  -0.36823  -0.35554  -0.34916  -0.34242
 Alpha  occ. eigenvalues --   -0.33744  -0.31558  -0.29016  -0.27315  -0.26530
 Alpha  occ. eigenvalues --   -0.25971  -0.25498  -0.25115  -0.24231  -0.14856
 Alpha virt. eigenvalues --   -0.06868  -0.04299  -0.01141  -0.00509   0.00126
 Alpha virt. eigenvalues --    0.01168   0.01473   0.01483   0.02251   0.02986
 Alpha virt. eigenvalues --    0.03565   0.03814   0.04492   0.04576   0.04946

  Beta  occ. eigenvalues --  -19.17215 -19.11370 -19.07825 -19.07279 -10.30640
  Beta  occ. eigenvalues --  -10.23231 -10.22508 -10.22365 -10.18932 -10.18329
  Beta  occ. eigenvalues --  -10.17933 -10.17882 -10.17859 -10.17834 -10.17769
  Beta  occ. eigenvalues --  -10.17665 -10.17546 -10.17490 -10.17438 -10.17317
  Beta  occ. eigenvalues --   -1.11136  -1.02202  -1.00029  -0.99129  -0.86689
  Beta  occ. eigenvalues --   -0.85686  -0.79445  -0.76324  -0.75292  -0.75218
  Beta  occ. eigenvalues --   -0.72590  -0.66888  -0.64768  -0.62600  -0.59632
  Beta  occ. eigenvalues --   -0.57775  -0.56124  -0.54251  -0.53371  -0.49706
  Beta  occ. eigenvalues --   -0.48750  -0.48685  -0.47105  -0.46144  -0.45777
  Beta  occ. eigenvalues --   -0.43860  -0.43138  -0.42688  -0.41769  -0.41196
  Beta  occ. eigenvalues --   -0.41066  -0.40656  -0.40611  -0.38652  -0.36785
  Beta  occ. eigenvalues --   -0.36537  -0.36157  -0.35441  -0.34863  -0.33591
  Beta  occ. eigenvalues --   -0.33062  -0.31426  -0.28960  -0.26107  -0.25260
  Beta  occ. eigenvalues --   -0.25048  -0.24927  -0.24624  -0.23705
  Beta virt. eigenvalues --   -0.09133  -0.06056  -0.03316  -0.00823  -0.00498
  Beta virt. eigenvalues --    0.00130   0.01176   0.01493   0.02152   0.02252
  Beta virt. eigenvalues --    0.02993   0.03600   0.03817   0.04524   0.04793

 Mulliken charges and spin densities:
               1          2
     1  C    0.029017   0.012975
     2  C   -0.437605   0.039949
     3  C   -0.442135   0.016003
     4  C    0.456740   0.031162
     5  C    0.375783   0.008166
     6  C    0.013606   0.037929
     7  C   -0.640347   0.073646
     8  C    0.349261   0.071105
     9  C    0.268695   0.083037
    10  C   -0.761838   0.093191
    11  C   -0.009613  -0.018673
    12  C   -0.114305   0.027850
    13  C   -0.608658   0.062186
    14  O   -0.432546   0.183872
    15  O   -0.450376   0.223767
    16  H    0.165264  -0.000886
    17  H    0.199997  -0.004595
    18  H    0.168530  -0.002618
    19  H    0.165311   0.001078
    20  H    0.174766  -0.001374
    21  C    0.178492   0.055425
    22  H    0.185422  -0.001610
    23  C    0.170638  -0.007365
    24  O   -0.354317   0.017975
    25  O   -0.132455   0.001203
    26  C   -0.237045  -0.000446
    27  H    0.164089  -0.000052
    28  H    0.184738   0.000112
    29  H    0.184694   0.000112
    30  H    0.186197  -0.003124
 Sum of Mulliken charges =  -1.00000   1.00000

 Dipole moment (field-independent basis, Debye):
    X=             -9.8563    Y=             14.2564    Z=             -3.3943  Tot=             17.6610
 Quadrupole moment (field-independent basis, Debye-Ang):
   XX=           -128.6422   YY=           -179.7493   ZZ=           -140.4776
   XY=             42.6893   XZ=            -20.7478   YZ=             27.3070

  Exact polarizability: 527.988  75.687 293.346 -79.370-150.245 300.696
 Approx polarizability: 540.418  42.604 328.216 -45.502-162.654 335.777

                      1                      2                      3
                      A                      A                      A
 Frequencies --     29.6519                42.5312                69.8055
 Red. masses --      5.4840                 7.6080                 5.4895
 Frc consts  --      0.0028                 0.0081                 0.0158
 IR Inten    --     10.1196                 0.0096                 6.9595

                      4                      5                      6
                      A                      A                      A
 Frequencies --    100.9784               115.1660               129.3737
 Red. masses --      5.2306                 3.2987                 2.2996
 Frc consts  --      0.0314                 0.0258                 0.0227
 IR Inten    --      3.3361                 0.3110                 4.0961

                      7                      8                      9
                      A                      A                      A
 Frequencies --    148.9415               159.2536               201.1316
 Red. masses --      1.6865                 4.7091                 5.3400
 Frc consts  --      0.0220                 0.0704                 0.1273
 IR Inten    --      0.0286                10.2929                 1.1288

                     10                     11                     12
                      A                      A                      A
 Frequencies --    220.0878               245.5301               275.3729
 Red. masses --      5.1456                 7.8387                 6.0385
 Frc consts  --      0.1469                 0.2784                 0.2698
 IR Inten    --      0.4602                 5.6898                 0.6373

                     13                     14                     15
                      A                      A                      A
 Frequencies --    288.2183               334.8225               377.6108
 Red. masses --      6.7805                 4.9229                10.6772
 Frc consts  --      0.3319                 0.3252                 0.8970
 IR Inten    --      4.4430                34.3613                17.8443

                     16                     17                     18
                      A                      A                      A
 Frequencies --    413.2879               416.1588               430.1079
 Red. masses --      7.4326                 3.2760                 6.1844
 Frc consts  --      0.7480                 0.3343                 0.6741
 IR Inten    --      3.0019                 2.6202                 0.0875

                     19                     20                     21
                      A                      A                      A
 Frequencies --    461.3172               470.2970               496.2518
 Red. masses --      3.1003                 8.4524                 7.7369
 Frc consts  --      0.3887                 1.1015                 1.1226
 IR Inten    --      0.0292                 3.8106                19.6767

                     22                     23                     24
                      A                      A                      A
 Frequencies --    509.3657               511.2623               636.7994
 Red. masses --      8.4130                 4.5660                 6.7567
 Frc consts  --      1.2861                 0.7032                 1.6143
 IR Inten    --     15.8971                 0.7012                23.0066

                     25                     26                     27
                      A                      A                      A
 Frequencies --    637.4155               646.1913               694.0380
 Red. masses --      4.5790                 6.6900                 6.7844
 Frc consts  --      1.0961                 1.6459                 1.9254
 IR Inten    --      2.8540                12.2757                 2.0687

                     28                     29                     30
                      A                      A                      A
 Frequencies --    701.2942               702.8284               726.4437
 Red. masses --      6.8851                 2.5359                 4.7286
 Frc consts  --      1.9951                 0.7380                 1.4702
 IR Inten    --      2.7081               154.2634                 0.7412

                     31                     32                     33
                      A                      A                      A
 Frequencies --    771.5079               793.6102               797.9855
 Red. masses --      2.3373                 6.0144                 2.5440
 Frc consts  --      0.8197                 2.2318                 0.9545
 IR Inten    --      2.5081                 4.4275                56.5822

                     34                     35                     36
                      A                      A                      A
 Frequencies --    804.6001               849.2683               850.0681
 Red. masses --      3.8053                 1.7920                 5.7915
 Frc consts  --      1.4514                 0.7615                 2.4657
 IR Inten    --      0.0006                18.1285                21.0558

                     37                     38                     39
                      A                      A                      A
 Frequencies --    889.2358               933.2589               948.0681
 Red. masses --      1.5078                 6.5848                 7.1255
 Frc consts  --      0.7025                 3.3791                 3.7735
 IR Inten    --      0.4142                26.8570                10.9231

                     40                     41                     42
                      A                      A                      A
 Frequencies --    964.0507               989.5566               996.5011
 Red. masses --      1.4837                 1.3685                 1.3339
 Frc consts  --      0.8124                 0.7895                 0.7804
 IR Inten    --      8.5080                 2.2606                 1.4046

                     43                     44                     45
                      A                      A                      A
 Frequencies --   1004.3372              1007.9981              1039.5073
 Red. masses --      1.3001                 3.7741                 1.9548
 Frc consts  --      0.7726                 2.2593                 1.2445
 IR Inten    --      0.0558                39.1735                67.2165

                     46                     47                     48
                      A                      A                      A
 Frequencies --   1094.9748              1112.2354              1129.9131
 Red. masses --      2.6107                 2.0682                 1.9346
 Frc consts  --      1.8442                 1.5074                 1.4552
 IR Inten    --      3.5929                22.7200               534.0854

                     49                     50                     51
                      A                      A                      A
 Frequencies --   1147.7237              1167.3868              1174.3260
 Red. masses --      1.5121                 1.2774                 2.5955
 Frc consts  --      1.1736                 1.0257                 2.1089
 IR Inten    --    206.3531                 1.3009               364.2026

                     52                     53                     54
                      A                      A                      A
 Frequencies --   1192.4681              1203.6207              1211.5510
 Red. masses --      1.9119                 1.7612                 1.7333
 Frc consts  --      1.6018                 1.5033                 1.4990
 IR Inten    --    214.9488               431.6599                54.2870

                     55                     56                     57
                      A                      A                      A
 Frequencies --   1232.1308              1237.5197              1277.3476
 Red. masses --      2.7227                 3.1111                 2.4636
 Frc consts  --      2.4354                 2.8072                 2.3683
 IR Inten    --    320.2095               571.0979               773.1378

                     58                     59                     60
                      A                      A                      A
 Frequencies --   1333.8173              1357.3185              1366.2833
 Red. masses --      2.4243                10.4622                 9.0628
 Frc consts  --      2.5411                11.3563                 9.9677
 IR Inten    --     78.1790                 7.4229               144.4417

                     61                     62                     63
                      A                      A                      A
 Frequencies --   1407.1813              1460.1976              1466.1866
 Red. masses --      3.3811                 2.5660                 1.3355
 Frc consts  --      3.9446                 3.2236                 1.6915
 IR Inten    --    883.0633               228.9810               156.7904

                     64                     65                     66
                      A                      A                      A
 Frequencies --   1474.4426              1477.9583              1486.6155
 Red. masses --      1.0451                 3.1257                 1.0764
 Frc consts  --      1.3387                 4.0227                 1.4016
 IR Inten    --     13.7658                83.3690                40.0010

                     67                     68                     69
                      A                      A                      A
 Frequencies --   1495.4334              1498.4009              1525.7667
 Red. masses --      3.3480                 3.9160                 6.7126
 Frc consts  --      4.4113                 5.1803                 9.2069
 IR Inten    --     66.3509               635.6174               201.1493

                     70                     71                     72
                      A                      A                      A
 Frequencies --   1554.1609              1592.8115              1623.1588
 Red. masses --      5.9839                 7.4494                 6.2230
 Frc consts  --      8.5157                11.1353                 9.6600
 IR Inten    --     60.1459               436.0884               161.5578

                     73                     74                     75
                      A                      A                      A
 Frequencies --   1634.8701              1702.5105              3051.5195
 Red. masses --      6.8246                11.2162                 1.0297
 Frc consts  --     10.7472                19.1547                 5.6494
 IR Inten    --    119.9399               860.7289                64.4447

                     76                     77                     78
                      A                      A                      A
 Frequencies --   3125.6853              3159.4732              3161.6756
 Red. masses --      1.1075                 1.1059                 1.0862
 Frc consts  --      6.3750                 6.5043                 6.3971
 IR Inten    --     29.9989                22.1254                10.9647

                     79                     80                     81
                      A                      A                      A
 Frequencies --   3175.1557              3185.9442              3189.4875
 Red. masses --      1.0901                 1.0880                 1.0924
 Frc consts  --      6.4751                 6.5069                 6.5477
 IR Inten    --     18.7901                 5.2600                16.3829

                     82                     83                     84
                      A                      A                      A
 Frequencies --   3193.3207              3203.5196              3206.7614
 Red. masses --      1.0949                 1.0895                 1.0937
 Frc consts  --      6.5781                 6.5880                 6.6263
 IR Inten    --     49.5186                 1.5328                14.9204

 - Thermochemistry -
 -------------------
 Temperature   298.150 Kelvin.  Pressure   1.00000 Atm.
 Atom     1 has atomic number  6 and mass  12.00000

 Molecular mass:   266.05791 amu.
 Principal axes and moments of inertia in atomic units:
                           1         2         3
     Eigenvalues --  1942.77494********************
           X            0.76134   0.64834   0.00361
           Y            0.45152  -0.53419   0.71468
           Z           -0.46528   0.54249   0.69944
 This molecule is an asymmetric top.
 Rotational symmetry number  1.
 Warning -- assumption of classical behavior for rotation
           may cause significant error
 Rotational temperatures (Kelvin)      0.04458     0.00854     0.00718
 Rotational constants (GHZ):           0.92895     0.17801     0.14953
 Zero-point vibrational energy     574936.9 (Joules/Mol)
                                  137.41322 (Kcal/Mol)
 Warning -- explicit consideration of  23 degrees of freedom as
           vibrations may cause significant error
 Vibrational temperatures:     42.66    61.19   100.43   145.29   165.70
          (Kelvin)            186.14   214.29   229.13   289.38   316.66
                              353.26   396.20   414.68   481.73   543.30
                              594.63   598.76   618.83   663.73   676.65
                              714.00   732.86   735.59   916.21   917.10
                              929.73   998.57  1009.01  1011.21  1045.19
                             1110.03  1141.83  1148.12  1157.64  1221.91
                             1223.06  1279.41  1342.75  1364.06  1387.05
                             1423.75  1433.74  1445.02  1450.28  1495.62
                             1575.42  1600.26  1625.69  1651.32  1679.61
                             1689.59  1715.70  1731.74  1743.15  1772.76
                             1780.51  1837.82  1919.07  1952.88  1965.78
                             2024.62  2100.90  2109.52  2121.39  2126.45
                             2138.91  2151.60  2155.86  2195.24  2236.09
                             2291.70  2335.36  2352.21  2449.53  4390.46
                             4497.16  4545.78  4548.95  4568.34  4583.86
                             4588.96  4594.48  4609.15  4613.81

 Zero-point correction=                           0.218982 (Hartree/Particle)
 Thermal correction to Energy=                    0.234936
 Thermal correction to Enthalpy=                  0.235880
 Thermal correction to Gibbs Free Energy=         0.173943
 Sum of electronic and zero-point Energies=           -916.829157
 Sum of electronic and thermal Energies=              -916.813203
 Sum of electronic and thermal Enthalpies=            -916.812258
 Sum of electronic and thermal Free Energies=         -916.874195

                     E (Thermal)             CV                S
                      KCal/Mol        Cal/Mol-Kelvin    Cal/Mol-Kelvin
 Total                  147.424             61.685            130.356
 Electronic               0.000              0.000              1.377
 Translational            0.889              2.981             42.635
 Rotational               0.889              2.981             33.830
 Vibrational            145.647             55.723             52.514
 Vibration     1          0.593              1.984              5.853
 Vibration     2          0.595              1.980              5.138
 Vibration     3          0.598              1.969              4.159
 Vibration     4          0.604              1.948              3.435
 Vibration     5          0.608              1.937              3.180
 Vibration     6          0.612              1.924              2.955
 Vibration     7          0.618              1.904              2.686
 Vibration     8          0.621              1.892              2.559
 Vibration     9          0.638              1.838              2.123
 Vibration    10          0.647              1.810              1.958
 Vibration    11          0.660              1.770              1.762
 Vibration    12          0.677              1.719              1.562
 Vibration    13          0.685              1.696              1.484
 Vibration    14          0.716              1.606              1.237
 Vibration    15          0.748              1.518              1.049
 Vibration    16          0.777              1.441              0.915
 Vibration    17          0.779              1.435              0.905
 Vibration    18          0.791              1.405              0.858
 Vibration    19          0.819              1.336              0.762
 Vibration    20          0.827              1.316              0.737
 Vibration    21          0.852              1.258              0.668
 Vibration    22          0.865              1.229              0.635
 Vibration    23          0.866              1.225              0.631

 Optimization completed.
    -- Stationary point found.
 Normal termination of Gaussian 16 at Sun Feb 11 00:57:31 2024.
