 Gaussian 16, Revision A.03,
 Gaussian 16:  ES64L-G16RevA.03 25-Dec-2016

 --------------------------------------
 #P UB3LYP/6-311++G(d,p) nosym opt freq
 --------------------------------------

 -------
 Radical
 -------
 Symbolic Z-matrix:
 Charge = -1 Multiplicity = 2

 SCF Done:  E(UB3LYP) =  -724.683226248     A.U. after   24 cycles
 SCF Done:  E(UB3LYP) =  -724.702522101     A.U. after   19 cycles
 SCF Done:  E(UB3LYP) =  -724.705703682     A.U. after   19 cycles
 SCF Done:  E(UB3LYP) =  -724.708232176     A.U. after   19 cycles
 SCF Done:  E(UB3LYP) =  -724.710153077     A.U. after   18 cycles
 SCF Done:  E(UB3LYP) =  -724.711622282     A.U. after   19 cycles
 SCF Done:  E(UB3LYP) =  -724.712879200     A.U. after   18 cycles
 SCF Done:  E(UB3LYP) =  -724.713871352     A.U. after   18 cycles
 SCF Done:  E(UB3LYP) =  -724.714397052     A.U. after   19 cycles
 SCF Done:  E(UB3LYP) =  -724.714523976     A.U. after   17 cycles
 SCF Done:  E(UB3LYP) =  -724.714616187     A.U. after   17 cycles
 SCF Done:  E(UB3LYP) =  -724.714647762     A.U. after   17 cycles
 SCF Done:  E(UB3LYP) =  -724.714673487     A.U. after   14 cycles
 SCF Done:  E(UB3LYP) =  -724.714680270     A.U. after   14 cycles
 SCF Done:  E(UB3LYP) =  -724.714681513     A.U. after   13 cycles
 Optimization completed.
    -- Stationary point found.
 Normal termination of Gaussian 16 at Tue Dec 26 22:21:06 2023.

 ----------------------------------------------------------------------
 #P Geom=AllCheck Guess=TCheck SCRF=Check GenChk UB3LYP/6-311++G(d,p) F
 req
 ----------------------------------------------------------------------

 Structure from the checkpoint file:  "273-rad.chk"
 -------
 Radical
 -------
 Charge = -1 Multiplicity = 2

                          Input orientation:
 ---------------------------------------------------------------------
 Center     Atomic      Atomic             Coordinates (Angstroms)
 Number     Number       Type             X           Y           Z
 ---------------------------------------------------------------------
      1          6           0       -0.823201    3.797181   -0.135495
      2          6           0       -1.866502    3.118537    0.467135
      3          6           0       -1.692996    1.783232    0.883665
      4          6           0        0.426551    3.173459   -0.343540
      5          6           0        0.599980    1.823434    0.073463
      6          6           0       -0.474204    1.154365    0.685104
      7          6           0        1.512535    3.907211   -0.975958
      8          6           0        2.766520    3.191042   -1.134118
      9          6           0        2.930137    1.856228   -0.768648
     10          6           0        1.880814    1.111891   -0.124488
     11          8           0        1.402677    5.100504   -1.393036
     12          8           0        2.028741   -0.082293    0.256602
     13          7           0        3.809739    3.923905   -1.664917
     14          1           0       -0.931661    4.824772   -0.463776
     15          1           0       -2.820692    3.614859    0.621159
     16          1           0       -2.512247    1.250245    1.357502
     17          1           0       -0.309672    0.127650    0.992629
     18          1           0        3.501852    4.760158   -2.144188
     19          1           0        4.547325    3.370296   -2.076010
     20          7           0        4.216457    1.255314   -1.042677
     21          6           0        5.021599    1.034632    0.159272
     22          6           0        4.154906    0.064534   -1.891681
     23          1           0        5.098373    1.971418    0.716549
     24          1           0        6.034180    0.727241   -0.132123
     25          1           0        4.594271    0.265093    0.819131
     26          1           0        3.579638    0.296475   -2.791817
     27          1           0        3.686412   -0.793653   -1.391718
     28          1           0        5.172898   -0.208171   -2.198940
 ---------------------------------------------------------------------

 SCF Done:  E(UB3LYP) =  -724.714681513     A.U. after    1 cycles

 Alpha  occ. eigenvalues --  -18.94111 -18.93225 -14.18682 -14.18644 -10.08570
 Alpha  occ. eigenvalues --  -10.08299 -10.07383 -10.06867 -10.06677 -10.05035
 Alpha  occ. eigenvalues --  -10.04923 -10.04868 -10.04298 -10.04246 -10.04166
 Alpha  occ. eigenvalues --  -10.04007  -0.86568  -0.85877  -0.80280  -0.77225
 Alpha  occ. eigenvalues --   -0.72775  -0.65842  -0.62170  -0.60286  -0.58670
 Alpha  occ. eigenvalues --   -0.54675  -0.51575  -0.48289  -0.46213  -0.43389
 Alpha  occ. eigenvalues --   -0.41229  -0.38475  -0.36594  -0.34469  -0.33615
 Alpha  occ. eigenvalues --   -0.33341  -0.32366  -0.31206  -0.29597  -0.29205
 Alpha  occ. eigenvalues --   -0.28490  -0.27458  -0.27291  -0.26390  -0.25043
 Alpha  occ. eigenvalues --   -0.24670  -0.24069  -0.22989  -0.22296  -0.20832
 Alpha  occ. eigenvalues --   -0.19119  -0.13195  -0.12727  -0.12172  -0.10810
 Alpha  occ. eigenvalues --   -0.08946  -0.08294  -0.01214
 Alpha virt. eigenvalues --    0.08235   0.08691   0.09584   0.10196   0.10398
 Alpha virt. eigenvalues --    0.10657   0.11593   0.11950   0.12783   0.13468
 Alpha virt. eigenvalues --    0.13871   0.14072   0.14829   0.15702   0.16126

  Beta  occ. eigenvalues --  -18.93400 -18.92727 -14.18648 -14.18612 -10.08463
  Beta  occ. eigenvalues --  -10.08063 -10.07238 -10.06864 -10.06675 -10.05027
  Beta  occ. eigenvalues --  -10.04896 -10.04772 -10.04288 -10.04264 -10.04124
  Beta  occ. eigenvalues --  -10.03883  -0.85498  -0.84948  -0.80104  -0.77016
  Beta  occ. eigenvalues --   -0.72573  -0.65415  -0.61976  -0.60132  -0.58661
  Beta  occ. eigenvalues --   -0.53971  -0.51272  -0.48073  -0.46035  -0.43159
  Beta  occ. eigenvalues --   -0.41105  -0.38260  -0.36527  -0.34190  -0.33495
  Beta  occ. eigenvalues --   -0.33253  -0.32279  -0.31089  -0.29551  -0.28974
  Beta  occ. eigenvalues --   -0.27823  -0.26941  -0.26666  -0.25953  -0.24999
  Beta  occ. eigenvalues --   -0.24492  -0.23043  -0.22523  -0.20954  -0.20639
  Beta  occ. eigenvalues --   -0.17515  -0.12077  -0.11883  -0.11237  -0.10197
  Beta  occ. eigenvalues --   -0.08405  -0.07574
  Beta virt. eigenvalues --    0.05280   0.08234   0.08682   0.09979   0.10280
  Beta virt. eigenvalues --    0.10556   0.10660   0.11598   0.12774   0.13029
  Beta virt. eigenvalues --    0.13477   0.13867   0.14091   0.14862   0.15696

 Mulliken charges and spin densities:
               1          2
     1  C   -0.148849   0.059999
     2  C   -0.247971   0.004725
     3  C   -0.296934   0.079679
     4  C    0.998465   0.020953
     5  C    0.294994   0.080500
     6  C   -0.010311  -0.001716
     7  C   -0.908123   0.146093
     8  C    0.178421   0.076041
     9  C   -0.209035   0.012178
    10  C   -1.051497   0.043426
    11  O   -0.427429   0.264340
    12  O   -0.352841   0.186264
    13  N   -0.405936   0.039197
    14  H    0.146220  -0.004254
    15  H    0.118285  -0.000830
    16  H    0.120658  -0.005937
    17  H    0.154043   0.000410
    18  H    0.268979  -0.002179
    19  H    0.256404  -0.000530
    20  N    0.202732  -0.007810
    21  C   -0.269805   0.004108
    22  C   -0.218307   0.002284
    23  H    0.131635   0.001621
    24  H    0.103071   0.001200
    25  H    0.172073  -0.001317
    26  H    0.129433   0.001302
    27  H    0.177520  -0.000319
    28  H    0.094104   0.000573
 Sum of Mulliken charges =  -1.00000   1.00000

 Dipole moment (field-independent basis, Debye):
    X=             -6.9602    Y=            -11.8891    Z=              1.5049  Tot=             13.8585
 Quadrupole moment (field-independent basis, Debye-Ang):
   XX=           -118.9701   YY=           -157.6010   ZZ=           -102.9305
   XY=            -13.5978   XZ=              1.3207   YZ=             10.5625

  Exact polarizability: 247.433 -14.929 207.192 -41.117 -28.281 134.766
 Approx polarizability: 351.175  -6.492 372.091 -59.940 -69.183 211.428

                      1                      2                      3
                      A                      A                      A
 Frequencies --     51.3957                64.9250               112.6536
 Red. masses --      2.9332                 4.8847                 4.7233
 Frc consts  --      0.0046                 0.0121                 0.0353
 IR Inten    --      0.1764                 4.6374                 2.7211

                      4                      5                      6
                      A                      A                      A
 Frequencies --    142.8467               163.9828               177.5434
 Red. masses --      4.7242                 3.3048                 3.9587
 Frc consts  --      0.0568                 0.0524                 0.0735
 IR Inten    --      0.8066                 2.3753                 3.2320

                      7                      8                      9
                      A                      A                      A
 Frequencies --    215.7733               223.4660               232.4416
 Red. masses --      1.4955                 2.2968                 1.1663
 Frc consts  --      0.0410                 0.0676                 0.0371
 IR Inten    --      0.3603                 0.1287                 0.6234

                     10                     11                     12
                      A                      A                      A
 Frequencies --    261.8886               278.6662               339.1782
 Red. masses --      3.6847                 3.5581                 3.2351
 Frc consts  --      0.1489                 0.1628                 0.2193
 IR Inten    --      3.4193                 2.5022                 5.8922

                     13                     14                     15
                      A                      A                      A
 Frequencies --    371.6118               378.9906               405.0390
 Red. masses --      7.5620                 4.7628                 4.1225
 Frc consts  --      0.6153                 0.4031                 0.3985
 IR Inten    --     16.9717                 5.7629                 3.0421

                     16                     17                     18
                      A                      A                      A
 Frequencies --    428.2709               441.4122               458.7219
 Red. masses --      5.6386                 4.7606                 3.9794
 Frc consts  --      0.6093                 0.5465                 0.4934
 IR Inten    --      7.2681                 0.4462                 3.3971

                     19                     20                     21
                      A                      A                      A
 Frequencies --    475.6479               516.6105               544.3309
 Red. masses --      3.4126                 7.8307                 1.3195
 Frc consts  --      0.4549                 1.2313                 0.2303
 IR Inten    --      8.7960                 0.2420                75.2798

                     22                     23                     24
                      A                      A                      A
 Frequencies --    568.2157               591.7203               619.7033
 Red. masses --      1.4101                 5.0911                 3.5123
 Frc consts  --      0.2682                 1.0503                 0.7947
 IR Inten    --    176.9893                13.9184                74.1613

                     25                     26                     27
                      A                      A                      A
 Frequencies --    671.5394               713.6052               715.7749
 Red. masses --      5.8757                 2.3134                 5.4099
 Frc consts  --      1.5612                 0.6941                 1.6330
 IR Inten    --      4.1889                46.4130                 2.6748

                     28                     29                     30
                      A                      A                      A
 Frequencies --    719.8724               773.4645               797.6619
 Red. masses --      6.0756                 2.1502                 4.9419
 Frc consts  --      1.8550                 0.7579                 1.8526
 IR Inten    --      5.8699                29.1932                 0.5382

                     31                     32                     33
                      A                      A                      A
 Frequencies --    847.0643               863.3631               881.3069
 Red. masses --      4.3909                 1.4549                 5.3011
 Frc consts  --      1.8562                 0.6389                 2.4259
 IR Inten    --      9.4402                 0.3486                11.8081

                     34                     35                     36
                      A                      A                      A
 Frequencies --    971.5352               977.1651               979.3103
 Red. masses --      1.3208                 1.2917                 3.7982
 Frc consts  --      0.7345                 0.7267                 2.1462
 IR Inten    --      1.9359                 0.8769                72.2842

                     37                     38                     39
                      A                      A                      A
 Frequencies --   1034.5830              1052.6180              1053.2700
 Red. masses --      2.3173                 2.0890                 2.0948
 Frc consts  --      1.4614                 1.3638                 1.3692
 IR Inten    --     15.1244                12.8974                13.9987

                     40                     41                     42
                      A                      A                      A
 Frequencies --   1102.6351              1104.3168              1145.1451
 Red. masses --      1.2457                 2.0720                 1.4391
 Frc consts  --      0.8923                 1.4888                 1.1119
 IR Inten    --      3.1362                 2.8707                15.1555

                     43                     44                     45
                      A                      A                      A
 Frequencies --   1167.5832              1170.8377              1196.2946
 Red. masses --      1.5244                 1.6092                 2.5851
 Frc consts  --      1.2244                 1.2997                 2.1797
 IR Inten    --     17.4536                10.7962                17.5127

                     46                     47                     48
                      A                      A                      A
 Frequencies --   1222.0642              1227.9423              1243.6549
 Red. masses --      3.2101                 1.9349                 3.2507
 Frc consts  --      2.8246                 1.7189                 2.9622
 IR Inten    --     12.8251                16.5881                24.2652

                     49                     50                     51
                      A                      A                      A
 Frequencies --   1300.1145              1313.0998              1354.0018
 Red. masses --      2.3341                 2.9886                 9.6344
 Frc consts  --      2.3245                 3.0361                10.4067
 IR Inten    --     25.9862                35.3907                37.7940

                     52                     53                     54
                      A                      A                      A
 Frequencies --   1417.0908              1419.4735              1443.5556
 Red. masses --      2.8838                 1.1836                 1.3765
 Frc consts  --      3.4120                 1.4051                 1.6900
 IR Inten    --     33.5942                 2.4209                87.4191

                     55                     56                     57
                      A                      A                      A
 Frequencies --   1456.7279              1468.8770              1471.2363
 Red. masses --      2.5479                 1.2379                 1.5694
 Frc consts  --      3.1855                 1.5737                 2.0014
 IR Inten    --    130.5505                12.6838                23.1452

                     58                     59                     60
                      A                      A                      A
 Frequencies --   1480.5733              1509.3464              1513.3542
 Red. masses --      1.2224                 1.0735                 4.0818
 Frc consts  --      1.5788                 1.4409                 5.5079
 IR Inten    --     21.2666                14.7848               413.7061

                     61                     62                     63
                      A                      A                      A
 Frequencies --   1521.9419              1537.6954              1539.5940
 Red. masses --      1.2761                 3.6216                 2.8207
 Frc consts  --      1.7416                 5.0454                 3.9393
 IR Inten    --     27.2951               156.2793                37.3244

                     64                     65                     66
                      A                      A                      A
 Frequencies --   1567.6768              1611.8512              1622.9402
 Red. masses --      2.0025                 5.8355                 6.2715
 Frc consts  --      2.8996                 8.9327                 9.7326
 IR Inten    --     67.4828                27.6757                33.4775

                     67                     68                     69
                      A                      A                      A
 Frequencies --   2963.9717              2977.7046              3014.0476
 Red. masses --      1.0395                 1.0366                 1.0973
 Frc consts  --      5.3804                 5.4153                 5.8731
 IR Inten    --     90.0933               168.7021                96.7387

                     70                     71                     72
                      A                      A                      A
 Frequencies --   3021.5057              3073.5694              3079.0703
 Red. masses --      1.1031                 1.0971                 1.0965
 Frc consts  --      5.9333                 6.1066                 6.1246
 IR Inten    --     41.1731                37.3241                35.0556

                     73                     74                     75
                      A                      A                      A
 Frequencies --   3129.5113              3149.3586              3177.9066
 Red. masses --      1.0844                 1.0910                 1.0911
 Frc consts  --      6.2575                 6.3755                 6.4925
 IR Inten    --     17.1462                53.1807                14.1500

                     76                     77                     78
                      A                      A                      A
 Frequencies --   3180.5999              3529.5201              3657.7350
 Red. masses --      1.0927                 1.0436                 1.1016
 Frc consts  --      6.5131                 7.6594                 8.6838
 IR Inten    --     27.4796                 8.6916                42.2228

 - Thermochemistry -
 -------------------
 Temperature   298.150 Kelvin.  Pressure   1.00000 Atm.
 Atom     1 has atomic number  6 and mass  12.00000

 Molecular mass:   216.08988 amu.
 Principal axes and moments of inertia in atomic units:
                           1         2         3
     Eigenvalues --  2021.811234065.822105728.92224
           X            0.93178   0.19386   0.30694
           Y           -0.28904   0.90772   0.30415
           Z           -0.21965  -0.37211   0.90182
 This molecule is an asymmetric top.
 Rotational symmetry number  1.
 Warning -- assumption of classical behavior for rotation
           may cause significant error
 Rotational temperatures (Kelvin)      0.04284     0.02130     0.01512
 Rotational constants (GHZ):           0.89264     0.44388     0.31502
 Zero-point vibrational energy     575411.5 (Joules/Mol)
                                  137.52666 (Kcal/Mol)
 Warning -- explicit consideration of  24 degrees of freedom as
           vibrations may cause significant error
 Vibrational temperatures:     73.95    93.41   162.08   205.52   235.93
          (Kelvin)            255.45   310.45   321.52   334.43   376.80
                              400.94   488.00   534.67   545.28   582.76
                              616.19   635.09   660.00   684.35   743.29
                              783.17   817.54   851.35   891.61   966.20
                             1026.72  1029.84  1035.74  1112.84  1147.66
                             1218.74  1242.19  1268.00  1397.82  1405.92
                             1409.01  1488.53  1514.48  1515.42  1586.45
                             1588.87  1647.61  1679.89  1684.57  1721.20
                             1758.28  1766.74  1789.34  1870.57  1889.26
                             1948.11  2038.88  2042.31  2076.95  2095.91
                             2113.39  2116.78  2130.21  2171.61  2177.38
                             2189.73  2212.40  2215.13  2255.54  2319.09
                             2335.05  4264.49  4284.25  4336.54  4347.27
                             4422.18  4430.10  4502.67  4531.22  4572.30
                             4576.17  5078.19  5262.66

 Zero-point correction=                           0.219163 (Hartree/Particle)
 Thermal correction to Energy=                    0.233284
 Thermal correction to Enthalpy=                  0.234228
 Thermal correction to Gibbs Free Energy=         0.178230
 Sum of electronic and zero-point Energies=           -724.495519
 Sum of electronic and thermal Energies=              -724.481397
 Sum of electronic and thermal Enthalpies=            -724.480453
 Sum of electronic and thermal Free Energies=         -724.536451

                     E (Thermal)             CV                S
                      KCal/Mol        Cal/Mol-Kelvin    Cal/Mol-Kelvin
 Total                  146.388             55.462            117.858
 Electronic               0.000              0.000              1.377
 Translational            0.889              2.981             42.015
 Rotational               0.889              2.981             32.221
 Vibrational            144.611             49.500             42.245
 Vibration     1          0.596              1.977              4.763
 Vibration     2          0.597              1.971              4.302
 Vibration     3          0.607              1.939              3.223
 Vibration     4          0.616              1.910              2.765
 Vibration     5          0.623              1.887              2.503
 Vibration     6          0.628              1.870              2.354
 Vibration     7          0.645              1.817              1.994
 Vibration     8          0.649              1.805              1.931
 Vibration     9          0.653              1.791              1.860
 Vibration    10          0.669              1.743              1.649
 Vibration    11          0.679              1.713              1.542
 Vibration    12          0.719              1.597              1.216
 Vibration    13          0.743              1.530              1.073
 Vibration    14          0.749              1.515              1.043
 Vibration    15          0.770              1.459              0.944
 Vibration    16          0.790              1.409              0.864
 Vibration    17          0.801              1.380              0.822
 Vibration    18          0.817              1.342              0.770
 Vibration    19          0.832              1.304              0.722
 Vibration    20          0.872              1.213              0.618
 Vibration    21          0.899              1.152              0.556
 Vibration    22          0.924              1.100              0.508
 Vibration    23          0.949              1.049              0.464
 Vibration    24          0.980              0.990              0.417

                           ! Non-Optimized Parameters !
 Normal termination of Gaussian 16 at Tue Dec 26 23:28:04 2023.
