 Q-Chem 5.4, Q-Chem, Inc., Pleasanton, CA (2021)
 Q-Chem 5.4.0 for Intel X86 EM64T Linux

User input:
--------------------------------------------------------------
$molecule
0 1
C                  2.6587340000      1.4080970000      0.9043670000
C                  2.3854050000      0.5201810000     -0.3303020000
C                  3.6533730000     -0.2288960000     -0.7564730000
C                  1.2020780000     -0.3872910000     -0.0672130000
C                  1.2966880000     -1.6889320000      0.2548120000
C                  0.1109190000     -2.5198300000      0.5442590000
O                  0.2223730000     -3.7015340000      0.8410270000
C                 -1.2155880000     -1.8745680000      0.4686280000
C                 -1.3803580000     -0.5809910000      0.1391660000
C                 -2.7583640000      0.0502520000      0.0649790000
C                 -2.9377660000      1.1961460000      1.0803730000
C                 -3.1246430000      0.4976200000     -1.3643280000
C                 -0.1624600000      0.2429440000     -0.1710790000
O                 -0.2688420000      1.4092700000     -0.5157630000
H                  3.4711970000      2.1073590000      0.6889990000
H                  2.9553830000      0.7967340000      1.7619670000
H                  1.7785280000      1.9908870000      1.1801110000
H                  2.0854250000      1.1887120000     -1.1432330000
H                  4.4326390000      0.4886290000     -1.0253760000
H                  3.4728400000     -0.8698950000     -1.6233460000
H                  4.0516370000     -0.8514280000      0.0503890000
H                  2.2478750000     -2.2038710000      0.3253330000
H                 -2.0600520000     -2.5177600000      0.6961600000
H                 -3.4577220000     -0.7454020000      0.3456850000
H                 -2.3031840000      2.0475150000      0.8321230000
H                 -3.9787350000      1.5314510000      1.0751050000
H                 -2.6981090000      0.8672580000      2.0953560000
H                 -4.1663020000      0.8300750000     -1.3890170000
H                 -3.0197000000     -0.3260510000     -2.0757990000
H                 -2.4932690000      1.3233170000     -1.6937660000
$end
$rem
MAX_SCF_CYCLES=200
BASIS  =  6-311++G(d,p)
GUI  =  2
JOB_TYPE  =  SP
METHOD  =  B3LYP
SOLVENT_METHOD = PCM
$end
$pcm
theory = CPCM
$end
$solvent
dielectric 37.219
opticaldielectric 1.43
$end

--------------------------------------------------------------

             Standard Nuclear Orientation (Angstroms)
    I     Atom           X                Y                Z
 ----------------------------------------------------------------
    1      C       2.6587340000     1.4080970000     0.9043670000
    2      C       2.3854050000     0.5201810000    -0.3303020000
    3      C       3.6533730000    -0.2288960000    -0.7564730000
    4      C       1.2020780000    -0.3872910000    -0.0672130000
    5      C       1.2966880000    -1.6889320000     0.2548120000
    6      C       0.1109190000    -2.5198300000     0.5442590000
    7      O       0.2223730000    -3.7015340000     0.8410270000
    8      C      -1.2155880000    -1.8745680000     0.4686280000
    9      C      -1.3803580000    -0.5809910000     0.1391660000
   10      C      -2.7583640000     0.0502520000     0.0649790000
   11      C      -2.9377660000     1.1961460000     1.0803730000
   12      C      -3.1246430000     0.4976200000    -1.3643280000
   13      C      -0.1624600000     0.2429440000    -0.1710790000
   14      O      -0.2688420000     1.4092700000    -0.5157630000
   15      H       3.4711970000     2.1073590000     0.6889990000
   16      H       2.9553830000     0.7967340000     1.7619670000
   17      H       1.7785280000     1.9908870000     1.1801110000
   18      H       2.0854250000     1.1887120000    -1.1432330000
   19      H       4.4326390000     0.4886290000    -1.0253760000
   20      H       3.4728400000    -0.8698950000    -1.6233460000
   21      H       4.0516370000    -0.8514280000     0.0503890000
   22      H       2.2478750000    -2.2038710000     0.3253330000
   23      H      -2.0600520000    -2.5177600000     0.6961600000
   24      H      -3.4577220000    -0.7454020000     0.3456850000
   25      H      -2.3031840000     2.0475150000     0.8321230000
   26      H      -3.9787350000     1.5314510000     1.0751050000
   27      H      -2.6981090000     0.8672580000     2.0953560000
   28      H      -4.1663020000     0.8300750000    -1.3890170000
   29      H      -3.0197000000    -0.3260510000    -2.0757990000
   30      H      -2.4932690000     1.3233170000    -1.6937660000
 ----------------------------------------------------------------

    9    -617.5293489325      2.52e-06  Convergence criterion met
 Total energy in the final basis set =     -617.5293489325

                    Orbital Energies (a.u.)
 --------------------------------------------------------------

 Alpha MOs
 -- Occupied --
-19.1407 -19.1366 -10.2858 -10.2801 -10.2138 -10.2133 -10.1986 -10.1974
-10.1889 -10.1879 -10.1613 -10.1594 -10.1582 -10.1582  -1.0731  -1.0660
 -0.8664  -0.8327  -0.7898  -0.7543  -0.7012  -0.6872  -0.6858  -0.6457
 -0.6225  -0.5725  -0.5625  -0.5271  -0.5033  -0.4769  -0.4662  -0.4543
 -0.4496  -0.4457  -0.4389  -0.4254  -0.4213  -0.4129  -0.4121  -0.4003
 -0.3845  -0.3810  -0.3604  -0.3568  -0.3504  -0.3485  -0.3422  -0.3387
 -0.3006  -0.2858  -0.2814  -0.2715

          Ground-State Mulliken Net Atomic Charges

     Atom                 Charge (a.u.)
  ----------------------------------------
      1 C                    -0.729411
      2 C                     0.180586
      3 C                    -0.564736
      4 C                     1.059358
      5 C                    -0.129960
      6 C                    -0.350235
      7 O                    -0.325839
      8 C                    -0.402985
      9 C                     0.886379
     10 C                     0.221875
     11 C                    -0.702407
     12 C                    -0.690378
     13 C                    -1.102403
     14 O                    -0.239439
     15 H                     0.161122
     16 H                     0.160669
     17 H                     0.177713
     18 H                     0.217583
     19 H                     0.184131
     20 H                     0.145943
     21 H                     0.153633
     22 H                     0.246599
     23 H                     0.246673
     24 H                     0.210585
     25 H                     0.181435
     26 H                     0.165981
     27 H                     0.143139
     28 H                     0.166641
     29 H                     0.142715
     30 H                     0.185030
  ----------------------------------------
  Sum of atomic charges =     0.000000

                    Cartesian Multipole Moments
 -----------------------------------------------------------------
    Charge (ESU x 10^10)
                 0.0000
    Dipole Moment (Debye)
         X      -0.1663      Y       1.9734      Z      -0.2971
       Tot       2.0026
    Quadrupole Moments (Debye-Ang)
        XX     -72.2188     XY       3.4384     YY    -108.3315
        XZ      -1.5708     YZ       5.6622     ZZ     -86.8377

 Total job time:  51.28s(wall), 289.10s(cpu)
        *  Thank you very much for using Q-Chem.  Have a nice day.  *
