 Gaussian 16, Revision A.03,
 Gaussian 16:  ES64L-G16RevA.03 25-Dec-2016

 ----------------------------------------------------------------------
 #P UB3LYP/6-311++G(d,p) nosym opt freq SCRF=(PCM,Solvent=n,n-DiMethylF
 ormamide)
 ----------------------------------------------------------------------

 --------
 Oxidized
 --------
 Symbolic Z-matrix:
 Charge =  0 Multiplicity = 1

 SCF Done:  E(UB3LYP) =  -839.469792323     A.U. after   15 cycles
 SCF Done:  E(UB3LYP) =  -839.469919716     A.U. after   10 cycles
 SCF Done:  E(UB3LYP) =  -839.469937267     A.U. after   10 cycles
 SCF Done:  E(UB3LYP) =  -839.469937787     A.U. after    9 cycles
 Optimization completed.
    -- Stationary point found.
 Normal termination of Gaussian 16 at Sat Feb 10 22:10:57 2024.

 ----------------------------------------------------------------------
 #P Geom=AllCheck Guess=TCheck SCRF=Check GenChk UB3LYP/6-311++G(d,p) F
 req
 ----------------------------------------------------------------------

 Structure from the checkpoint file:  "188.chk"
 --------
 Oxidized
 --------
 Charge =  0 Multiplicity = 1

                          Input orientation:
 ---------------------------------------------------------------------
 Center     Atomic      Atomic             Coordinates (Angstroms)
 Number     Number       Type             X           Y           Z
 ---------------------------------------------------------------------
      1          8           0        5.044038   -0.166845   -0.437126
      2          6           0        3.739164    0.157730   -0.252993
      3          6           0        3.450324    1.493384    0.060053
      4          6           0        2.137053    1.881653    0.258688
      5          6           0        1.087133    0.958484    0.151319
      6          6           0       -0.305455    1.405572    0.368590
      7          8           0       -0.574403    2.570455    0.642454
      8          6           0       -1.386634    0.380338    0.241102
      9          6           0       -2.707698    0.775509    0.441674
     10          6           0       -3.739159   -0.157749    0.330981
     11          8           0       -5.044021    0.166807    0.515231
     12          6           0       -3.450318   -1.493403    0.017940
     13          6           0       -2.137056   -1.881646   -0.180813
     14          6           0       -1.087147   -0.958452   -0.073572
     15          6           0        0.305429   -1.405509   -0.290985
     16          8           0        0.574401   -2.570451   -0.564573
     17          6           0        1.386619   -0.380305   -0.163356
     18          6           0        2.707694   -0.775502   -0.363810
     19          1           0        5.135895   -1.105176   -0.646712
     20          1           0        4.263175    2.204539    0.142248
     21          1           0        1.904495    2.910815    0.500934
     22          1           0       -2.917573    1.811197    0.682353
     23          1           0       -5.135871    1.105132    0.724846
     24          1           0       -4.263157   -2.204583   -0.064160
     25          1           0       -1.904498   -2.910808   -0.423060
     26          1           0        2.917570   -1.811187   -0.604498
 ---------------------------------------------------------------------

 SCF Done:  E(UB3LYP) =  -839.469937787     A.U. after    1 cycles

 Alpha  occ. eigenvalues --  -19.17826 -19.17826 -19.12967 -19.12966 -10.28296
 Alpha  occ. eigenvalues --  -10.28295 -10.26734 -10.26734 -10.21409 -10.21408
 Alpha  occ. eigenvalues --  -10.20445 -10.20444 -10.20240 -10.20240 -10.19949
 Alpha  occ. eigenvalues --  -10.19949 -10.19765 -10.19765  -1.09101  -1.09100
 Alpha  occ. eigenvalues --   -1.06304  -1.06116  -0.89539  -0.88281  -0.81230
 Alpha  occ. eigenvalues --   -0.78447  -0.78019  -0.76925  -0.69202  -0.68609
 Alpha  occ. eigenvalues --   -0.64649  -0.64556  -0.59218  -0.58883  -0.57009
 Alpha  occ. eigenvalues --   -0.56688  -0.51407  -0.50310  -0.49830  -0.49637
 Alpha  occ. eigenvalues --   -0.46020  -0.45865  -0.45805  -0.45489  -0.45155
 Alpha  occ. eigenvalues --   -0.43971  -0.42860  -0.42747  -0.42299  -0.41805
 Alpha  occ. eigenvalues --   -0.40655  -0.39277  -0.37894  -0.36866  -0.36628
 Alpha  occ. eigenvalues --   -0.34863  -0.28838  -0.28823  -0.28186  -0.27707
 Alpha  occ. eigenvalues --   -0.26373  -0.25137
 Alpha virt. eigenvalues --   -0.11780  -0.07370  -0.02979  -0.02796  -0.00920
 Alpha virt. eigenvalues --   -0.00410   0.00770   0.00843   0.02049   0.03176
 Alpha virt. eigenvalues --    0.03413   0.03604   0.03620   0.04244   0.04748

  Beta  occ. eigenvalues --  -19.17826 -19.17826 -19.12967 -19.12966 -10.28296
  Beta  occ. eigenvalues --  -10.28295 -10.26734 -10.26734 -10.21409 -10.21408
  Beta  occ. eigenvalues --  -10.20445 -10.20444 -10.20240 -10.20240 -10.19949
  Beta  occ. eigenvalues --  -10.19949 -10.19765 -10.19765  -1.09101  -1.09100
  Beta  occ. eigenvalues --   -1.06304  -1.06116  -0.89539  -0.88281  -0.81230
  Beta  occ. eigenvalues --   -0.78447  -0.78019  -0.76925  -0.69202  -0.68609
  Beta  occ. eigenvalues --   -0.64649  -0.64556  -0.59218  -0.58883  -0.57009
  Beta  occ. eigenvalues --   -0.56688  -0.51407  -0.50310  -0.49830  -0.49637
  Beta  occ. eigenvalues --   -0.46020  -0.45865  -0.45805  -0.45489  -0.45155
  Beta  occ. eigenvalues --   -0.43971  -0.42860  -0.42747  -0.42299  -0.41805
  Beta  occ. eigenvalues --   -0.40655  -0.39277  -0.37894  -0.36866  -0.36628
  Beta  occ. eigenvalues --   -0.34863  -0.28838  -0.28823  -0.28186  -0.27707
  Beta  occ. eigenvalues --   -0.26373  -0.25137
  Beta virt. eigenvalues --   -0.11780  -0.07370  -0.02979  -0.02796  -0.00920
  Beta virt. eigenvalues --   -0.00410   0.00770   0.00843   0.02049   0.03176
  Beta virt. eigenvalues --    0.03413   0.03604   0.03620   0.04244   0.04748

 Mulliken charges and spin densities:
               1          2
     1  O   -0.248798  -0.000000
     2  C   -0.629818   0.000000
     3  C   -0.142825  -0.000000
     4  C    0.206855   0.000000
     5  C    0.177081   0.000000
     6  C   -0.636876  -0.000000
     7  O   -0.288043   0.000000
     8  C    0.361107  -0.000000
     9  C    0.294150   0.000000
    10  C   -0.629818   0.000000
    11  O   -0.248799  -0.000000
    12  C   -0.142827  -0.000000
    13  C    0.206854  -0.000000
    14  C    0.177082  -0.000000
    15  C   -0.636874  -0.000000
    16  O   -0.288042  -0.000000
    17  C    0.361113   0.000000
    18  C    0.294149   0.000000
    19  H    0.313442   0.000000
    20  H    0.231128  -0.000000
    21  H    0.191861   0.000000
    22  H    0.170734  -0.000000
    23  H    0.313442  -0.000000
    24  H    0.231128  -0.000000
    25  H    0.191861   0.000000
    26  H    0.170734  -0.000000
 Sum of Mulliken charges =   0.00000   0.00000

 Dipole moment (field-independent basis, Debye):
    X=              0.0000    Y=              0.0000    Z=             -0.0002  Tot=              0.0002
 Quadrupole moment (field-independent basis, Debye-Ang):
   XX=            -82.0268   YY=           -108.2629   ZZ=           -104.8396
   XY=             -7.3138   XZ=             -3.5762   YZ=             -0.0315

  Exact polarizability: 389.843  -5.304 279.467 -25.271  36.286 123.240
 Approx polarizability: 429.567 -25.019 361.845 -31.182  51.232 147.885

                      1                      2                      3
                      A                      A                      A
 Frequencies --     28.8598                86.8531                97.8268
 Red. masses --      9.6013                 4.7098                 6.4705
 Frc consts  --      0.0047                 0.0209                 0.0365
 IR Inten    --      6.9043                 0.1479                 0.0000

                      4                      5                      6
                      A                      A                      A
 Frequencies --    138.7133               169.1536               170.4139
 Red. masses --      7.3354                 6.4457                 6.7316
 Frc consts  --      0.0832                 0.1087                 0.1152
 IR Inten    --      8.3220                 0.0000                 3.3346

                      7                      8                      9
                      A                      A                      A
 Frequencies --    244.2930               269.0270               300.8428
 Red. masses --      7.6265                 5.6818                 5.0071
 Frc consts  --      0.2682                 0.2423                 0.2670
 IR Inten    --      0.0000                 2.2044                 0.0000

                     10                     11                     12
                      A                      A                      A
 Frequencies --    314.7125               372.4266               378.6765
 Red. masses --      8.7510                 6.6320                 1.1806
 Frc consts  --      0.5107                 0.5420                 0.0997
 IR Inten    --      0.0000                63.5790                 0.0155

                     13                     14                     15
                      A                      A                      A
 Frequencies --    379.9584               395.0072               414.8169
 Red. masses --      1.2088                 6.3584                 4.8038
 Frc consts  --      0.1028                 0.5845                 0.4870
 IR Inten    --    328.3584                 0.0000                19.9631

                     16                     17                     18
                      A                      A                      A
 Frequencies --    427.0811               441.5106               457.8246
 Red. masses --      3.3293                 3.1991                 6.0042
 Frc consts  --      0.3578                 0.3674                 0.7415
 IR Inten    --      3.9576                 0.0000                 0.0000

                     19                     20                     21
                      A                      A                      A
 Frequencies --    480.5215               519.9912               556.5840
 Red. masses --      8.5042                 6.5716                 7.4838
 Frc consts  --      1.1569                 1.0469                 1.3659
 IR Inten    --      0.0000                 0.0000               111.2626

                     22                     23                     24
                      A                      A                      A
 Frequencies --    574.8887               651.4794               672.7701
 Red. masses --      3.6714                 6.8526                 6.8375
 Frc consts  --      0.7149                 1.7136                 1.8234
 IR Inten    --     24.1770                 0.0000                 1.7633

                     25                     26                     27
                      A                      A                      A
 Frequencies --    675.6572               704.6810               709.0277
 Red. masses --      3.5045                 6.9152                 4.1712
 Frc consts  --      0.9426                 2.0232                 1.2355
 IR Inten    --      0.0000                 0.0000                 8.5270

                     28                     29                     30
                      A                      A                      A
 Frequencies --    733.0182               763.5239               783.7906
 Red. masses --      6.9870                 6.5751                 4.4366
 Frc consts  --      2.2119                 2.2584                 1.6058
 IR Inten    --     46.9210                75.0055                 0.0000

                     31                     32                     33
                      A                      A                      A
 Frequencies --    819.9056               857.6500               859.3977
 Red. masses --      7.2369                 1.4502                 1.6360
 Frc consts  --      2.8663                 0.6285                 0.7119
 IR Inten    --      0.0000                39.3409                 0.0000

                     34                     35                     36
                      A                      A                      A
 Frequencies --    894.5293               897.0579               899.3296
 Red. masses --      7.2549                 1.4716                 1.5445
 Frc consts  --      3.4204                 0.6977                 0.7360
 IR Inten    --    195.8808                 0.0001                58.1400

                     37                     38                     39
                      A                      A                      A
 Frequencies --    993.4855               993.7515               995.5586
 Red. masses --      1.3173                 4.0399                 1.3383
 Frc consts  --      0.7661                 2.3506                 0.7815
 IR Inten    --      0.0000                 0.0000                 2.2764

                     40                     41                     42
                      A                      A                      A
 Frequencies --   1010.4872              1097.3501              1112.8262
 Red. masses --      2.5279                 2.9193                 1.7572
 Frc consts  --      1.5208                 2.0712                 1.2821
 IR Inten    --     32.9966                99.3588                 0.0000

                     43                     44                     45
                      A                      A                      A
 Frequencies --   1163.2597              1165.2696              1188.6205
 Red. masses --      1.5890                 1.7245                 1.3627
 Frc consts  --      1.2669                 1.3796                 1.1343
 IR Inten    --     96.1101                 0.0000               821.1603

                     46                     47                     48
                      A                      A                      A
 Frequencies --   1190.7025              1234.7344              1252.0030
 Red. masses --      1.4103                 1.7874                 1.9879
 Frc consts  --      1.1780                 1.6055                 1.8359
 IR Inten    --      0.0015                 0.0000               187.9811

                     49                     50                     51
                      A                      A                      A
 Frequencies --   1267.3910              1293.3487              1321.2603
 Red. masses --      4.8448                 2.4402                 4.5478
 Frc consts  --      4.5851                 2.4049                 4.6776
 IR Inten    --      0.0000               960.0573              1250.2238

                     52                     53                     54
                      A                      A                      A
 Frequencies --   1335.7148              1378.1273              1388.3336
 Red. masses --      2.2712                 4.8811                 5.6350
 Frc consts  --      2.3874                 5.4620                 6.3992
 IR Inten    --      0.0000                44.0352                 0.0000

                     55                     56                     57
                      A                      A                      A
 Frequencies --   1463.0303              1478.1164              1514.6618
 Red. masses --      3.2897                 3.9274                 3.2934
 Frc consts  --      4.1487                 5.0556                 4.4518
 IR Inten    --    121.5071                 0.0000                23.5072

                     58                     59                     60
                      A                      A                      A
 Frequencies --   1523.8128              1604.0636              1613.5357
 Red. masses --      3.1568                 6.6259                 6.5576
 Frc consts  --      4.3187                10.0448                10.0589
 IR Inten    --      0.0000              1224.2947                 0.0012

                     61                     62                     63
                      A                      A                      A
 Frequencies --   1613.9354              1628.1766              1684.4721
 Red. masses --      6.2318                 6.6251                12.1512
 Frc consts  --      9.5639                10.3477                20.3140
 IR Inten    --    367.4272                 0.0000                 0.0000

                     64                     65                     66
                      A                      A                      A
 Frequencies --   1695.9386              3187.8622              3187.9834
 Red. masses --     11.1544                 1.0908                 1.0908
 Frc consts  --     18.9023                 6.5313                 6.5316
 IR Inten    --    593.4524                27.6147                 0.0042

                     67                     68                     69
                      A                      A                      A
 Frequencies --   3192.2165              3192.2468              3206.1582
 Red. masses --      1.0890                 1.0891                 1.0946
 Frc consts  --      6.5384                 6.5387                 6.6292
 IR Inten    --      3.9927                 0.0001                16.1261

                     70                     71                     72
                      A                      A                      A
 Frequencies --   3206.3327              3798.3714              3798.5162
 Red. masses --      1.0946                 1.0665                 1.0665
 Frc consts  --      6.6299                 9.0654                 9.0663
 IR Inten    --      0.0001               402.4070                 0.1542

 - Thermochemistry -
 -------------------
 Temperature   298.150 Kelvin.  Pressure   1.00000 Atm.
 Atom     1 has atomic number  8 and mass  15.99491

 Molecular mass:   240.04226 amu.
 Principal axes and moments of inertia in atomic units:
                           1         2         3
     Eigenvalues --  1741.084406933.417868674.50189
           X            0.99457  -0.06016   0.08490
           Y            0.07687   0.97470  -0.20989
           Z           -0.07012   0.21528   0.97403
 This molecule is an asymmetric top.
 Rotational symmetry number  1.
 Warning -- assumption of classical behavior for rotation
           may cause significant error
 Rotational temperatures (Kelvin)      0.04975     0.01249     0.00998
 Rotational constants (GHZ):           1.03656     0.26030     0.20805
 Zero-point vibrational energy     491147.5 (Joules/Mol)
                                  117.38708 (Kcal/Mol)
 Warning -- explicit consideration of  22 degrees of freedom as
           vibrations may cause significant error
 Vibrational temperatures:     41.52   124.96   140.75   199.58   243.37
          (Kelvin)            245.19   351.48   387.07   432.85   452.80
                              535.84   544.83   546.68   568.33   596.83
                              614.47   635.24   658.71   691.36   748.15
                              800.80   827.14   937.33   967.97   972.12
                             1013.88  1020.13  1054.65  1098.54  1127.70
                             1179.66  1233.97  1236.48  1287.03  1290.67
                             1293.93  1429.40  1429.79  1432.39  1453.87
                             1578.84  1601.11  1673.67  1676.56  1710.16
                             1713.16  1776.51  1801.35  1823.49  1860.84
                             1901.00  1921.80  1982.82  1997.50  2104.97
                             2126.68  2179.26  2192.43  2307.89  2321.52
                             2322.09  2342.58  2423.58  2440.08  4586.62
                             4586.80  4592.89  4592.93  4612.95  4613.20
                             5465.01  5465.22

 Zero-point correction=                           0.187068 (Hartree/Particle)
 Thermal correction to Energy=                    0.200798
 Thermal correction to Enthalpy=                  0.201742
 Thermal correction to Gibbs Free Energy=         0.146413
 Sum of electronic and zero-point Energies=           -839.282870
 Sum of electronic and thermal Energies=              -839.269140
 Sum of electronic and thermal Enthalpies=            -839.268196
 Sum of electronic and thermal Free Energies=         -839.323524

                     E (Thermal)             CV                S
                      KCal/Mol        Cal/Mol-Kelvin    Cal/Mol-Kelvin
 Total                  126.003             55.091            116.449
 Electronic               0.000              0.000              0.000
 Translational            0.889              2.981             42.328
 Rotational               0.889              2.981             33.015
 Vibrational            124.225             49.129             41.106
 Vibration     1          0.593              1.984              5.906
 Vibration     2          0.601              1.958              3.730
 Vibration     3          0.603              1.951              3.497
 Vibration     4          0.614              1.915              2.822
 Vibration     5          0.625              1.880              2.445
 Vibration     6          0.626              1.879              2.431
 Vibration     7          0.660              1.772              1.771
 Vibration     8          0.673              1.730              1.602
 Vibration     9          0.693              1.672              1.412
 Vibration    10          0.702              1.646              1.337
 Vibration    11          0.744              1.529              1.070
 Vibration    12          0.749              1.516              1.044
 Vibration    13          0.750              1.513              1.039
 Vibration    14          0.762              1.481              0.981
 Vibration    15          0.778              1.438              0.910
 Vibration    16          0.789              1.411              0.868
 Vibration    17          0.801              1.380              0.822
 Vibration    18          0.816              1.344              0.772
 Vibration    19          0.837              1.293              0.709
 Vibration    20          0.875              1.206              0.610
 Vibration    21          0.912              1.125              0.531
 Vibration    22          0.931              1.086              0.495

 Optimization completed.
    -- Stationary point found.
 Normal termination of Gaussian 16 at Sat Feb 10 22:40:58 2024.
