 Q-Chem 5.4, Q-Chem, Inc., Pleasanton, CA (2021)
 Q-Chem 5.4.0 for Intel X86 EM64T Linux

User input:
--------------------------------------------------------------
$molecule
-1 2
C                 -3.2558050000      3.6698290000      0.0845780000
C                 -4.4825390000      3.0360720000      0.0899170000
C                 -4.5575230000      1.6250480000      0.0661730000
C                 -2.0553310000      2.9312090000      0.0555570000
C                 -2.1206920000      1.5046150000      0.0313070000
C                 -3.3848250000      0.8905490000      0.0374680000
C                 -0.7810460000      3.6486140000      0.0510500000
C                  0.4224880000      2.8185310000      0.0202420000
C                  0.3572870000      1.3919290000     -0.0039650000
C                 -0.9172690000      0.6703250000      0.0004840000
C                  1.6854320000      3.4450000000      0.0143210000
C                  2.8491820000      2.7024160000     -0.0144780000
C                  2.7949930000      1.2904460000     -0.0386060000
C                  1.5600760000      0.6655660000     -0.0329370000
O                 -0.7235580000      4.9070520000      0.0723590000
O                 -0.9745230000     -0.5829630000     -0.0208360000
H                 -3.4125130000     -0.1931220000      0.0188130000
H                  1.4885980000     -0.4161070000     -0.0509950000
H                 -3.1968730000      4.7510900000      0.1026770000
H                  1.7255820000      4.5271160000      0.0328780000
O                  4.0355690000      3.4167910000     -0.0181410000
C                  5.2502650000      2.6986200000     -0.0426860000
O                 -5.5987880000      3.8552090000      0.1195960000
H                  3.6974080000      0.6928420000     -0.0613480000
H                  6.0438010000      3.4473930000     -0.0391270000
H                  5.3450620000      2.0823380000     -0.9460330000
H                  5.3639530000      2.0536070000      0.8381280000
C                 -6.8740240000      3.2505230000      0.1188070000
H                 -5.5107590000      1.1119210000      0.0700840000
H                 -7.5959150000      4.0682980000      0.1409740000
H                 -7.0278650000      2.6146610000      1.0001970000
H                 -7.0429590000      2.6493710000     -0.7838970000
$end
$rem
MAX_SCF_CYCLES=200
BASIS  =  6-311++G(d,p)
GUI  =  2
JOB_TYPE  =  SP
METHOD  =  B3LYP
SOLVENT_METHOD = COSMO
$end
$solvent
dielectric 37.219
opticaldielectric 1.43
$end

--------------------------------------------------------------

             Standard Nuclear Orientation (Angstroms)
    I     Atom           X                Y                Z
 ----------------------------------------------------------------
    1      C       2.4734075469    -1.1473819345     0.0012102418
    2      C       3.6700178229    -0.4584142951     0.0016414831
    3      C       3.6804409742     0.9547617251     0.0016265161
    4      C       1.2403092855    -0.4640020663     0.0007850004
    5      C       1.2404054687     0.9642943103     0.0006622418
    6      C       2.4752790541     1.6352893203     0.0010827573
    7      C       0.0000160256    -1.2387051971     0.0003414533
    8      C      -1.2403215703    -0.4640805580    -0.0002292941
    9      C      -1.2403849754     0.9642157717    -0.0003068360
   10      C      -0.0000127181     1.7431262796     0.0001486980
   11      C      -2.4734403163    -1.1474135668    -0.0006425031
   12      C      -3.6700332036    -0.4584001212    -0.0012554175
   13      C      -3.6804298784     0.9547770743    -0.0013664901
   14      C      -2.4752377178     1.6352465857    -0.0008674645
   15      O       0.0000985916    -2.4986358047     0.0003649654
   16      O      -0.0000950432     2.9979024957     0.0000270846
   17      H       2.4534120881     2.7192539437     0.0010418353
   18      H      -2.4532650625     2.7192063980    -0.0009176863
   19      H       2.4639485558    -2.2303576626     0.0011450209
   20      H      -2.4640933211    -2.2303928087    -0.0005097861
   21      O      -4.8226538350    -1.2260747733    -0.0019486312
   22      C      -6.0689664863    -0.5638450873     0.0019285863
   23      O       4.8226557815    -1.2260751825     0.0024136335
   24      H      -4.6093081588     1.5108215488    -0.0018706292
   25      H      -6.8275162327    -1.3480483113     0.0027292774
   26      H      -6.2041652639     0.0626341008    -0.8891779700
   27      H      -6.1996696321     0.0603274800     0.8953071891
   28      C       6.0689501520    -0.5638242964    -0.0044232246
   29      H       4.6093265244     1.5107697372     0.0020857502
   30      H       6.8275097966    -1.3480173479    -0.0059935825
   31      H       6.2058977823     0.0634226415     0.8858814951
   32      H       6.1978821828     0.0595827327    -0.8985918219
 ----------------------------------------------------------------

   11    -918.1272185826      4.92e-06  Convergence criterion met
 Total energy in the final basis set =     -918.1272185826
    4    -918.2187480355      9.43e-06  Convergence criterion met
 Total energy in the final basis set =     -918.2187480355

                    Orbital Energies (a.u.)
 --------------------------------------------------------------

 Alpha MOs
 -- Occupied --
-19.1564 -19.1564 -19.0803 -19.0772 -10.2372 -10.2372 -10.2295 -10.2219
-10.2151 -10.2151 -10.1765 -10.1765 -10.1755 -10.1755 -10.1748 -10.1748
-10.1698 -10.1698 -10.1662 -10.1662  -1.0677  -1.0677  -1.0075  -1.0022
 -0.8636  -0.8533  -0.7877  -0.7614  -0.7612  -0.7442  -0.7070  -0.6939
 -0.6601  -0.6366  -0.6076  -0.5951  -0.5619  -0.5414  -0.5414  -0.5018
 -0.4987  -0.4906  -0.4699  -0.4677  -0.4674  -0.4482  -0.4398  -0.4296
 -0.4264  -0.4238  -0.4196  -0.4144  -0.3991  -0.3968  -0.3840  -0.3800
 -0.3782  -0.3632  -0.3602  -0.3561  -0.3324  -0.3289  -0.3217  -0.3122
 -0.2655  -0.2593  -0.2505  -0.2413  -0.2412  -0.2276  -0.1407

 Beta MOs
 -- Occupied --
-19.1562 -19.1562 -19.0758 -19.0712 -10.2369 -10.2369 -10.2280 -10.2195
-10.2151 -10.2151 -10.1758 -10.1758 -10.1756 -10.1756 -10.1744 -10.1744
-10.1691 -10.1691 -10.1657 -10.1657  -1.0673  -1.0673  -0.9995  -0.9915
 -0.8610  -0.8522  -0.7841  -0.7600  -0.7590  -0.7427  -0.7045  -0.6933
 -0.6543  -0.6347  -0.6054  -0.5943  -0.5596  -0.5405  -0.5396  -0.5001
 -0.4978  -0.4886  -0.4691  -0.4668  -0.4666  -0.4470  -0.4374  -0.4292
 -0.4252  -0.4180  -0.4115  -0.4104  -0.3982  -0.3949  -0.3775  -0.3775
 -0.3632  -0.3590  -0.3546  -0.3541  -0.3320  -0.3280  -0.3199  -0.3022
 -0.2545  -0.2495  -0.2458  -0.2363  -0.2305  -0.2236

          Ground-State Mulliken Net Atomic Charges

     Atom                 Charge (a.u.)    Spin (a.u.)
  --------------------------------------------------------
      1 C                    -0.555997       0.064602
      2 C                    -0.771411       0.007696
      3 C                     0.027488       0.037678
      4 C                     0.719564       0.051946
      5 C                     0.526066       0.023826
      6 C                     0.039044       0.008505
      7 C                    -0.654931       0.148871
      8 C                     0.719917       0.051899
      9 C                     0.526138       0.023812
     10 C                    -0.423248       0.083775
     11 C                    -0.555760       0.064603
     12 C                    -0.771476       0.007693
     13 C                     0.027209       0.037662
     14 C                     0.039207       0.008512
     15 O                    -0.501705       0.220434
     16 O                    -0.491906       0.162711
     17 H                     0.182224      -0.000426
     18 H                     0.182204      -0.000427
     19 H                     0.187212      -0.004386
     20 H                     0.187242      -0.004385
     21 O                    -0.230800       0.005072
     22 C                    -0.375050       0.000245
     23 O                    -0.230774       0.005072
     24 H                     0.239617      -0.003115
     25 H                     0.201900      -0.000014
     26 H                     0.173021       0.000255
     27 H                     0.172764       0.000256
     28 C                    -0.375096       0.000245
     29 H                     0.239613      -0.003115
     30 H                     0.201901      -0.000014
     31 H                     0.172995       0.000255
     32 H                     0.172806       0.000257
  --------------------------------------------------------
  Sum of atomic charges =    -1.000020

                    Cartesian Multipole Moments
 -----------------------------------------------------------------
    Charge (ESU x 10^10)
                -4.8033
    Dipole Moment (Debye)
         X      -0.0004      Y       2.2931      Z      -0.0053
       Tot       2.2931
    Quadrupole Moments (Debye-Ang)
        XX     -83.0190     XY       0.0045     YY    -159.7268
        XZ      -0.0872     YZ       0.0068     ZZ    -122.6078

 Total job time:  182.58s(wall), 1144.10s(cpu)
        *  Thank you very much for using Q-Chem.  Have a nice day.  *
