 Gaussian 16, Revision A.03,
 Gaussian 16:  ES64L-G16RevA.03 25-Dec-2016

 ----------------------------------------------------------------------
 #P UB3LYP/6-311++G(d,p) nosym opt freq SCRF=(PCM,Solvent=n,n-DiMethylF
 ormamide)
 ----------------------------------------------------------------------

 -------
 Radical
 -------
 Symbolic Z-matrix:
 Charge = -1 Multiplicity = 2

 SCF Done:  E(UB3LYP) =  -590.795547896     A.U. after   19 cycles
 SCF Done:  E(UB3LYP) =  -590.795998380     A.U. after   15 cycles
 SCF Done:  E(UB3LYP) =  -590.796111833     A.U. after   15 cycles
 SCF Done:  E(UB3LYP) =  -590.796127216     A.U. after   14 cycles
 SCF Done:  E(UB3LYP) =  -590.796168341     A.U. after   14 cycles
 SCF Done:  E(UB3LYP) =  -590.796179449     A.U. after   14 cycles
 SCF Done:  E(UB3LYP) =  -590.796182149     A.U. after   13 cycles
 SCF Done:  E(UB3LYP) =  -590.796182421     A.U. after   12 cycles
 Optimization completed.
    -- Stationary point found.
 Normal termination of Gaussian 16 at Sun Feb 11 01:43:37 2024.

 ----------------------------------------------------------------------
 #P Geom=AllCheck Guess=TCheck SCRF=Check GenChk UB3LYP/6-311++G(d,p) F
 req
 ----------------------------------------------------------------------

 Structure from the checkpoint file:  "269-rad.chk"
 -------
 Radical
 -------
 Charge = -1 Multiplicity = 2

                          Input orientation:
 ---------------------------------------------------------------------
 Center     Atomic      Atomic             Coordinates (Angstroms)
 Number     Number       Type             X           Y           Z
 ---------------------------------------------------------------------
      1          7           0       -3.332881   -0.902301    0.094931
      2          6           0       -2.083926   -0.309407    0.142868
      3          6           0       -1.911412    1.037634    0.430311
      4          6           0       -0.639025    1.677550    0.430937
      5          8           0       -0.495270    2.910625    0.695867
      6          6           0        0.525246    0.829859    0.101743
      7          6           0        1.818034    1.382805    0.075380
      8          6           0        2.926101    0.607218   -0.227814
      9          6           0        2.762665   -0.761036   -0.514641
     10          6           0        1.500356   -1.327579   -0.493951
     11          6           0        0.358186   -0.554357   -0.189014
     12          6           0       -0.960818   -1.174783   -0.170518
     13          8           0       -1.149569   -2.412222   -0.404434
     14          1           0       -4.067873   -0.479830    0.642809
     15          1           0       -3.303413   -1.913211    0.128793
     16          1           0       -2.777128    1.651595    0.664200
     17          1           0        1.924640    2.437533    0.300787
     18          1           0        3.915470    1.051469   -0.243734
     19          1           0        3.627489   -1.371516   -0.752288
     20          1           0        1.363129   -2.380048   -0.712232
 ---------------------------------------------------------------------

 SCF Done:  E(UB3LYP) =  -590.796182421     A.U. after    1 cycles

 Alpha  occ. eigenvalues --  -19.07639 -19.06686 -14.31458 -10.21895 -10.21682
 Alpha  occ. eigenvalues --  -10.20673 -10.17178 -10.17067 -10.16972 -10.16940
 Alpha  occ. eigenvalues --  -10.16791 -10.16779 -10.14849  -0.99836  -0.98737
 Alpha  occ. eigenvalues --   -0.90954  -0.85439  -0.78866  -0.74768  -0.72857
 Alpha  occ. eigenvalues --   -0.67097  -0.61630  -0.60773  -0.56009  -0.53241
 Alpha  occ. eigenvalues --   -0.51036  -0.47738  -0.47157  -0.44820  -0.42874
 Alpha  occ. eigenvalues --   -0.42105  -0.41692  -0.40926  -0.40003  -0.38225
 Alpha  occ. eigenvalues --   -0.37507  -0.35622  -0.35058  -0.33469  -0.32281
 Alpha  occ. eigenvalues --   -0.26123  -0.25459  -0.24634  -0.23461  -0.21880
 Alpha  occ. eigenvalues --   -0.14663
 Alpha virt. eigenvalues --   -0.03022  -0.00858  -0.00258   0.00622   0.01475
 Alpha virt. eigenvalues --    0.02699   0.02833   0.04688   0.04978   0.05319
 Alpha virt. eigenvalues --    0.05460   0.05782   0.06956   0.07389   0.08080

  Beta  occ. eigenvalues --  -19.06961 -19.06206 -14.31380 -10.21772 -10.21403
  Beta  occ. eigenvalues --  -10.20521 -10.17163 -10.17068 -10.16878 -10.16852
  Beta  occ. eigenvalues --  -10.16795 -10.16741 -10.14826  -0.98673  -0.97876
  Beta  occ. eigenvalues --   -0.90649  -0.85237  -0.78433  -0.74560  -0.72684
  Beta  occ. eigenvalues --   -0.66150  -0.61470  -0.60486  -0.55759  -0.53104
  Beta  occ. eigenvalues --   -0.50786  -0.47592  -0.46806  -0.44745  -0.42650
  Beta  occ. eigenvalues --   -0.41812  -0.40631  -0.40382  -0.39558  -0.37946
  Beta  occ. eigenvalues --   -0.35783  -0.34904  -0.34517  -0.33327  -0.30609
  Beta  occ. eigenvalues --   -0.24787  -0.24344  -0.24022  -0.22992  -0.20904
  Beta virt. eigenvalues --   -0.08121  -0.02335  -0.00249   0.00233   0.00652
  Beta virt. eigenvalues --    0.01489   0.02720   0.02842   0.04847   0.05047
  Beta virt. eigenvalues --    0.05422   0.05660   0.06609   0.07445   0.07755

 Mulliken charges and spin densities:
               1          2
     1  N   -0.387036   0.040626
     2  C    0.008300   0.089681
     3  C    0.593380   0.016346
     4  C   -0.658728   0.061813
     5  O   -0.527773   0.171218
     6  C    0.244680   0.073315
     7  C    0.151763  -0.005735
     8  C   -0.390338   0.071421
     9  C   -0.386886  -0.005076
    10  C    0.079791   0.081409
    11  C    0.303443  -0.016146
    12  C   -0.913438   0.185885
    13  O   -0.518795   0.251303
    14  H    0.271317  -0.000053
    15  H    0.281439  -0.001957
    16  H    0.166025  -0.004061
    17  H    0.160202   0.000092
    18  H    0.180047  -0.005029
    19  H    0.182138  -0.000461
    20  H    0.160470  -0.004590
 Sum of Mulliken charges =  -1.00000   1.00000

 Dipole moment (field-independent basis, Debye):
    X=              1.9838    Y=             -2.6652    Z=              0.3295  Tot=              3.3387
 Quadrupole moment (field-independent basis, Debye-Ang):
   XX=            -71.2262   YY=           -114.2683   ZZ=            -83.4846
   XY=             -0.3149   XZ=             -5.8635   YZ=             -8.1157

  Exact polarizability: 297.053  21.099 276.250 -16.193  36.787 114.885
 Approx polarizability: 315.315  28.441 324.151 -15.061  44.125 129.126

                      1                      2                      3
                      A                      A                      A
 Frequencies --     84.8710               132.3049               172.9722
 Red. masses --      6.3288                 4.3938                 6.8735
 Frc consts  --      0.0269                 0.0453                 0.1212
 IR Inten    --     23.4977                 0.6809                 1.9233

                      4                      5                      6
                      A                      A                      A
 Frequencies --    229.0844               261.4757               315.5181
 Red. masses --      4.7176                 4.9100                 3.2682
 Frc consts  --      0.1459                 0.1978                 0.1917
 IR Inten    --      1.6828                10.3506                 4.5569

                      7                      8                      9
                      A                      A                      A
 Frequencies --    370.1179               380.5879               410.0507
 Red. masses --      6.7459                 2.2080                 4.0162
 Frc consts  --      0.5445                 0.1884                 0.3979
 IR Inten    --     73.4655                90.2723                31.4054

                     10                     11                     12
                      A                      A                      A
 Frequencies --    423.9048               452.7131               474.5265
 Red. masses --      2.4929                 3.2418                 8.8198
 Frc consts  --      0.2639                 0.3915                 1.1701
 IR Inten    --     27.0052                24.1517                 3.7029

                     13                     14                     15
                      A                      A                      A
 Frequencies --    504.7784               533.0920               549.2074
 Red. masses --      2.2980                 8.2748                 1.6384
 Frc consts  --      0.3450                 1.3855                 0.2912
 IR Inten    --     90.3575                 4.4517               462.8225

                     16                     17                     18
                      A                      A                      A
 Frequencies --    652.4611               661.2839               670.9992
 Red. masses --      4.9325                 3.3318                 4.8951
 Frc consts  --      1.2372                 0.8584                 1.2985
 IR Inten    --      6.8401                 3.4524                25.1143

                     19                     20                     21
                      A                      A                      A
 Frequencies --    715.1453               724.2455               772.0312
 Red. masses --      3.4498                 5.7670                 4.0005
 Frc consts  --      1.0395                 1.7823                 1.4049
 IR Inten    --     39.3996                38.1237                 5.4684

                     22                     23                     24
                      A                      A                      A
 Frequencies --    781.0654               819.6721               829.8110
 Red. masses --      1.6611                 4.3159                 1.6955
 Frc consts  --      0.5971                 1.7084                 0.6879
 IR Inten    --     94.4218                17.7040                40.2346

                     25                     26                     27
                      A                      A                      A
 Frequencies --    882.0292               981.2327               995.2569
 Red. masses --      1.4113                 1.3692                 5.4785
 Frc consts  --      0.6469                 0.7767                 3.1973
 IR Inten    --      0.0062                 3.0917                71.5314

                     28                     29                     30
                      A                      A                      A
 Frequencies --    996.6382              1043.0475              1083.1820
 Red. masses --      1.2804                 1.9859                 2.4580
 Frc consts  --      0.7494                 1.2730                 1.6992
 IR Inten    --      0.0475                11.9449                 6.1062

                     31                     32                     33
                      A                      A                      A
 Frequencies --   1114.2839              1141.6566              1163.0760
 Red. masses --      1.5842                 1.6425                 1.3071
 Frc consts  --      1.1589                 1.2613                 1.0418
 IR Inten    --      8.9593                29.6238                 2.7510

                     34                     35                     36
                      A                      A                      A
 Frequencies --   1221.7920              1249.5696              1261.1239
 Red. masses --      2.1639                 1.9769                 4.4431
 Frc consts  --      1.9032                 1.8186                 4.1634
 IR Inten    --     27.4446               260.1748               137.9086

                     37                     38                     39
                      A                      A                      A
 Frequencies --   1314.4131              1349.1469              1431.2897
 Red. masses --      2.1569                 9.3776                 3.7812
 Frc consts  --      2.1956                10.0568                 4.5639
 IR Inten    --      6.0328                26.0641               291.9343

                     40                     41                     42
                      A                      A                      A
 Frequencies --   1451.6475              1462.9383              1502.4850
 Red. masses --      3.2079                 2.8515                 6.4719
 Frc consts  --      3.9828                 3.5957                 8.6080
 IR Inten    --    790.6096                88.1210               421.4861

                     43                     44                     45
                      A                      A                      A
 Frequencies --   1519.4240              1548.8581              1596.9473
 Red. masses --      4.7434                 4.0736                 1.6439
 Frc consts  --      6.4520                 5.7578                 2.4701
 IR Inten    --    830.3219                98.6654                69.2693

                     46                     47                     48
                      A                      A                      A
 Frequencies --   1617.4758              1624.6570              3144.1503
 Red. masses --      2.9744                 5.9565                 1.0890
 Frc consts  --      4.5849                 9.2632                 6.3431
 IR Inten    --    182.7962                39.8985                48.3074

                     49                     50                     51
                      A                      A                      A
 Frequencies --   3156.6302              3170.3483              3183.8632
 Red. masses --      1.0857                 1.0896                 1.0919
 Frc consts  --      6.3740                 6.4524                 6.5212
 IR Inten    --      8.7908                18.8062                24.3382

                     52                     53                     54
                      A                      A                      A
 Frequencies --   3188.0408              3543.9354              3658.3898
 Red. masses --      1.0951                 1.0471                 1.0996
 Frc consts  --      6.5576                 7.7487                 8.6708
 IR Inten    --     38.9649                60.8705                57.8099

 - Thermochemistry -
 -------------------
 Temperature   298.150 Kelvin.  Pressure   1.00000 Atm.
 Atom     1 has atomic number  7 and mass  14.00307

 Molecular mass:   173.04768 amu.
 Principal axes and moments of inertia in atomic units:
                           1         2         3
     Eigenvalues --  1431.632082294.082203724.33999
           X            0.97575  -0.18841   0.11137
           Y            0.20887   0.95365  -0.21662
           Z           -0.06540   0.23463   0.96988
 This molecule is an asymmetric top.
 Rotational symmetry number  1.
 Warning -- assumption of classical behavior for rotation
           may cause significant error
 Rotational temperatures (Kelvin)      0.06050     0.03776     0.02326
 Rotational constants (GHZ):           1.26062     0.78669     0.48458
 Zero-point vibrational energy     385912.0 (Joules/Mol)
                                   92.23518 (Kcal/Mol)
 Warning -- explicit consideration of  15 degrees of freedom as
           vibrations may cause significant error
 Vibrational temperatures:    122.11   190.36   248.87   329.60   376.21
          (Kelvin)            453.96   532.52   547.58   589.97   609.90
                              651.35   682.74   726.26   767.00   790.19
                              938.75   951.44   965.42  1028.93  1042.03
                             1110.78  1123.78  1179.33  1193.91  1269.04
                             1411.78  1431.95  1433.94  1500.71  1558.46
                             1603.21  1642.59  1673.41  1757.89  1797.85
                             1814.48  1891.15  1941.12  2059.31  2088.60
                             2104.84  2161.74  2186.11  2228.46  2297.65
                             2327.19  2337.52  4523.73  4541.69  4561.42
                             4580.87  4586.88  5098.93  5263.61

 Zero-point correction=                           0.146986 (Hartree/Particle)
 Thermal correction to Energy=                    0.156930
 Thermal correction to Enthalpy=                  0.157874
 Thermal correction to Gibbs Free Energy=         0.111198
 Sum of electronic and zero-point Energies=           -590.649196
 Sum of electronic and thermal Energies=              -590.639253
 Sum of electronic and thermal Enthalpies=            -590.638308
 Sum of electronic and thermal Free Energies=         -590.684985

                     E (Thermal)             CV                S
                      KCal/Mol        Cal/Mol-Kelvin    Cal/Mol-Kelvin
 Total                   98.475             40.419             98.238
 Electronic               0.000              0.000              1.377
 Translational            0.889              2.981             41.353
 Rotational               0.889              2.981             30.882
 Vibrational             96.697             34.458             24.627
 Vibration     1          0.601              1.960              3.775
 Vibration     2          0.612              1.921              2.912
 Vibration     3          0.626              1.876              2.403
 Vibration     4          0.652              1.797              1.886
 Vibration     5          0.669              1.743              1.652
 Vibration     6          0.703              1.644              1.333
 Vibration     7          0.742              1.534              1.079
 Vibration     8          0.750              1.512              1.037
 Vibration     9          0.774              1.448              0.926
 Vibration    10          0.786              1.418              0.879
 Vibration    11          0.811              1.355              0.788
 Vibration    12          0.831              1.307              0.725
 Vibration    13          0.860              1.239              0.646
 Vibration    14          0.888              1.177              0.580
 Vibration    15          0.904              1.141              0.546

 Optimization completed.
    -- Stationary point found.
 Normal termination of Gaussian 16 at Sun Feb 11 02:05:40 2024.
