 Gaussian 16, Revision A.03,
 Gaussian 16:  ES64L-G16RevA.03 25-Dec-2016

 ----------------------------------------------------------------------
 #P UB3LYP/6-311++G(d,p) nosym opt freq SCRF=(PCM,Solvent=n,n-DiMethylF
 ormamide)
 ----------------------------------------------------------------------

 --------
 Oxidized
 --------
 Symbolic Z-matrix:
 Charge =  0 Multiplicity = 1

 SCF Done:  E(UB3LYP) =  -783.676830509     A.U. after   14 cycles
 SCF Done:  E(UB3LYP) =  -783.676956753     A.U. after   12 cycles
 SCF Done:  E(UB3LYP) =  -783.676990593     A.U. after   11 cycles
 SCF Done:  E(UB3LYP) =  -783.677003751     A.U. after   10 cycles
 SCF Done:  E(UB3LYP) =  -783.677005389     A.U. after    9 cycles
 SCF Done:  E(UB3LYP) =  -783.677005693     A.U. after    9 cycles
 SCF Done:  E(UB3LYP) =  -783.677005936     A.U. after    9 cycles
 SCF Done:  E(UB3LYP) =  -783.677006068     A.U. after    8 cycles
 SCF Done:  E(UB3LYP) =  -783.677006354     A.U. after    9 cycles
 SCF Done:  E(UB3LYP) =  -783.677006624     A.U. after    8 cycles
 SCF Done:  E(UB3LYP) =  -783.677007080     A.U. after    9 cycles
 SCF Done:  E(UB3LYP) =  -783.677007487     A.U. after    9 cycles
 SCF Done:  E(UB3LYP) =  -783.677007988     A.U. after    9 cycles
 SCF Done:  E(UB3LYP) =  -783.677008396     A.U. after    9 cycles
 SCF Done:  E(UB3LYP) =  -783.677008774     A.U. after    9 cycles
 SCF Done:  E(UB3LYP) =  -783.677008914     A.U. after    9 cycles
 SCF Done:  E(UB3LYP) =  -783.677008944     A.U. after    8 cycles
 Optimization completed.
    -- Stationary point found.
 Normal termination of Gaussian 16 at Sat Feb 10 16:41:17 2024.

 ----------------------------------------------------------------------
 #P Geom=AllCheck Guess=TCheck SCRF=Check GenChk UB3LYP/6-311++G(d,p) F
 req
 ----------------------------------------------------------------------

 Structure from the checkpoint file:  "154.chk"
 --------
 Oxidized
 --------
 Charge =  0 Multiplicity = 1

                          Input orientation:
 ---------------------------------------------------------------------
 Center     Atomic      Atomic             Coordinates (Angstroms)
 Number     Number       Type             X           Y           Z
 ---------------------------------------------------------------------
      1          6           0       -4.406263   -0.349470    0.186151
      2          6           0       -2.929637   -0.632527    0.238694
      3          6           0       -2.455762   -1.916052    0.435205
      4          6           0       -1.086529   -2.202339    0.484114
      5          6           0       -0.161228   -1.183417    0.333146
      6          6           0        1.282984   -1.541220    0.392127
      7          8           0        1.648136   -2.699452    0.571484
      8          6           0        2.272827   -0.446786    0.226207
      9          6           0        3.640773   -0.738199    0.269956
     10          6           0        4.578628    0.275924    0.117032
     11          6           0        4.154458    1.593079   -0.081122
     12          6           0        2.796758    1.890446   -0.125780
     13          6           0        1.844856    0.876414    0.026677
     14          6           0        0.394515    1.229018   -0.027933
     15          8           0        0.075025    2.414746   -0.204753
     16          6           0       -0.590627    0.158533    0.128818
     17          6           0       -1.991822    0.437330    0.081608
     18          7           0       -2.459212    1.693825   -0.113662
     19          1           0       -4.698410    0.089176   -0.774715
     20          1           0       -4.711530    0.352648    0.970342
     21          1           0       -4.979065   -1.266872    0.320904
     22          1           0       -3.170209   -2.723578    0.554053
     23          1           0       -0.738642   -3.214783    0.638661
     24          1           0        3.950626   -1.763971    0.424272
     25          1           0        5.636957    0.045332    0.151369
     26          1           0        4.884417    2.385277   -0.200499
     27          1           0        2.456504    2.906356   -0.278781
     28          1           0       -3.446655    1.882733   -0.122177
     29          1           0       -1.791874    2.447828   -0.209968
 ---------------------------------------------------------------------

 SCF Done:  E(UB3LYP) =  -783.677008944     A.U. after    1 cycles

 Alpha  occ. eigenvalues --  -19.12453 -19.12374 -14.33659 -10.27782 -10.27713
 Alpha  occ. eigenvalues --  -10.24756 -10.20631 -10.20456 -10.20313 -10.20243
 Alpha  occ. eigenvalues --  -10.20033 -10.19691 -10.19619 -10.19563 -10.19462
 Alpha  occ. eigenvalues --  -10.19289 -10.18575 -10.17852  -1.05743  -1.05486
 Alpha  occ. eigenvalues --   -0.94815  -0.88810  -0.86692  -0.81642  -0.78177
 Alpha  occ. eigenvalues --   -0.77599  -0.75799  -0.71787  -0.68116  -0.65877
 Alpha  occ. eigenvalues --   -0.63812  -0.61101  -0.58840  -0.57566  -0.54816
 Alpha  occ. eigenvalues --   -0.52861  -0.50930  -0.50039  -0.47599  -0.47155
 Alpha  occ. eigenvalues --   -0.46809  -0.45591  -0.45205  -0.44918  -0.44066
 Alpha  occ. eigenvalues --   -0.43595  -0.42877  -0.41441  -0.40263  -0.39025
 Alpha  occ. eigenvalues --   -0.38978  -0.37893  -0.37066  -0.36732  -0.36447
 Alpha  occ. eigenvalues --   -0.33493  -0.28581  -0.28378  -0.27654  -0.27186
 Alpha  occ. eigenvalues --   -0.27001  -0.22566
 Alpha virt. eigenvalues --   -0.11451  -0.06612  -0.03320  -0.01481  -0.00861
 Alpha virt. eigenvalues --   -0.00112   0.00672   0.01594   0.01849   0.03069
 Alpha virt. eigenvalues --    0.03437   0.03708   0.03755   0.03880   0.04497

  Beta  occ. eigenvalues --  -19.12453 -19.12374 -14.33659 -10.27782 -10.27713
  Beta  occ. eigenvalues --  -10.24756 -10.20631 -10.20456 -10.20313 -10.20243
  Beta  occ. eigenvalues --  -10.20033 -10.19691 -10.19619 -10.19563 -10.19462
  Beta  occ. eigenvalues --  -10.19289 -10.18575 -10.17852  -1.05743  -1.05486
  Beta  occ. eigenvalues --   -0.94815  -0.88810  -0.86692  -0.81642  -0.78177
  Beta  occ. eigenvalues --   -0.77599  -0.75799  -0.71787  -0.68116  -0.65877
  Beta  occ. eigenvalues --   -0.63812  -0.61101  -0.58840  -0.57566  -0.54816
  Beta  occ. eigenvalues --   -0.52861  -0.50930  -0.50039  -0.47599  -0.47155
  Beta  occ. eigenvalues --   -0.46809  -0.45591  -0.45205  -0.44918  -0.44066
  Beta  occ. eigenvalues --   -0.43595  -0.42877  -0.41441  -0.40263  -0.39025
  Beta  occ. eigenvalues --   -0.38978  -0.37893  -0.37066  -0.36732  -0.36447
  Beta  occ. eigenvalues --   -0.33493  -0.28581  -0.28378  -0.27654  -0.27186
  Beta  occ. eigenvalues --   -0.27001  -0.22566
  Beta virt. eigenvalues --   -0.11451  -0.06612  -0.03320  -0.01481  -0.00861
  Beta virt. eigenvalues --   -0.00112   0.00672   0.01594   0.01849   0.03069
  Beta virt. eigenvalues --    0.03437   0.03708   0.03755   0.03880   0.04497

 Mulliken charges and spin densities:
               1          2
     1  C   -0.441026  -0.000000
     2  C    0.718505  -0.000000
     3  C   -0.833589   0.000000
     4  C   -0.120854   0.000000
     5  C    0.529124   0.000000
     6  C   -0.666627   0.000000
     7  O   -0.291344  -0.000000
     8  C    0.013532   0.000000
     9  C    0.175875  -0.000000
    10  C   -0.423402  -0.000000
    11  C   -0.486337  -0.000000
    12  C    0.235437  -0.000000
    13  C    0.125788  -0.000000
    14  C   -0.424041   0.000000
    15  O   -0.321667  -0.000000
    16  C    0.118531  -0.000000
    17  C    0.182312  -0.000000
    18  N   -0.427267   0.000000
    19  H    0.183199  -0.000000
    20  H    0.182478  -0.000000
    21  H    0.185017  -0.000000
    22  H    0.168809   0.000000
    23  H    0.181010  -0.000000
    24  H    0.181999  -0.000000
    25  H    0.204451   0.000000
    26  H    0.205055   0.000000
    27  H    0.187206  -0.000000
    28  H    0.311350   0.000000
    29  H    0.346475   0.000000
 Sum of Mulliken charges =  -0.00000  -0.00000

 Dipole moment (field-independent basis, Debye):
    X=             -3.4031    Y=              2.0176    Z=             -0.2776  Tot=              3.9660
 Quadrupole moment (field-independent basis, Debye-Ang):
   XX=            -68.2040   YY=           -111.9782   ZZ=           -108.4532
   XY=              7.4550   XZ=             -1.7698   YZ=              1.0565

  Exact polarizability: 422.699  12.732 315.537  -1.077 -28.110 134.074
 Approx polarizability: 450.740  -1.057 401.376   1.046 -37.676 158.443

                      1                      2                      3
                      A                      A                      A
 Frequencies --     30.7503                61.7098                97.7979
 Red. masses --      6.2151                 6.0268                 3.5833
 Frc consts  --      0.0035                 0.0135                 0.0202
 IR Inten    --     19.2867                40.6013                23.9115

                      4                      5                      6
                      A                      A                      A
 Frequencies --    112.9653               142.9349               178.8895
 Red. masses --      4.2276                 1.3096                 5.4892
 Frc consts  --      0.0318                 0.0158                 0.1035
 IR Inten    --     14.1864               139.3639                13.3477

                      7                      8                      9
                      A                      A                      A
 Frequencies --    200.4500               213.1067               254.2114
 Red. masses --      4.2373                 1.1182                 5.6214
 Frc consts  --      0.1003                 0.0299                 0.2140
 IR Inten    --      1.4909                14.4171                 0.0094

                     10                     11                     12
                      A                      A                      A
 Frequencies --    296.0883               306.9440               329.4728
 Red. masses --      4.4274                 3.0042                 6.4146
 Frc consts  --      0.2287                 0.1668                 0.4103
 IR Inten    --      1.5348                35.1898                 0.2127

                     13                     14                     15
                      A                      A                      A
 Frequencies --    360.2674               389.7890               418.8326
 Red. masses --      4.0700                 6.6971                 8.8242
 Frc consts  --      0.3112                 0.5995                 0.9120
 IR Inten    --      6.2370                 5.4214                44.8856

                     16                     17                     18
                      A                      A                      A
 Frequencies --    425.7272               445.6110               469.9480
 Red. masses --      3.2887                 4.7792                 7.2900
 Frc consts  --      0.3512                 0.5591                 0.9486
 IR Inten    --      0.8044                 4.8163                 0.1997

                     19                     20                     21
                      A                      A                      A
 Frequencies --    474.9677               493.4849               567.2275
 Red. masses --      5.3264                 3.3947                 5.7496
 Frc consts  --      0.7080                 0.4871                 1.0899
 IR Inten    --     13.6350                15.4027                 0.9026

                     22                     23                     24
                      A                      A                      A
 Frequencies --    577.6130               606.8435               643.6656
 Red. masses --      4.9024                 5.1142                 1.1729
 Frc consts  --      0.9637                 1.1096                 0.2863
 IR Inten    --      0.3091                 6.2384                13.3986

                     25                     26                     27
                      A                      A                      A
 Frequencies --    668.0217               689.0231               690.8492
 Red. masses --      6.5096                 3.5229                 6.1291
 Frc consts  --      1.7115                 0.9854                 1.7235
 IR Inten    --     21.9152                 1.4242                 0.6771

                     28                     29                     30
                      A                      A                      A
 Frequencies --    728.3940               749.8363               749.9318
 Red. masses --      2.4536                 5.3113                 3.7975
 Frc consts  --      0.7670                 1.7595                 1.2583
 IR Inten    --     95.0481                 9.6765                48.8130

                     31                     32                     33
                      A                      A                      A
 Frequencies --    797.1398               811.6097               813.8564
 Red. masses --      2.9002                 2.3384                 5.6104
 Frc consts  --      1.0858                 0.9076                 2.1895
 IR Inten    --      0.0720                 2.9030                10.6024

                     34                     35                     36
                      A                      A                      A
 Frequencies --    859.7788               907.4263               913.2300
 Red. masses --      1.5646                 6.7288                 1.4197
 Frc consts  --      0.6814                 3.2644                 0.6976
 IR Inten    --     32.6526                41.6709                 0.1064

                     37                     38                     39
                      A                      A                      A
 Frequencies --    965.0418               975.4670              1000.3006
 Red. masses --      2.8297                 1.3490                 1.9201
 Frc consts  --      1.5527                 0.7563                 1.1320
 IR Inten    --     65.5270                 0.0144               177.8265

                     40                     41                     42
                      A                      A                      A
 Frequencies --   1001.0241              1022.1873              1052.0484
 Red. masses --      1.3869                 1.3278                 2.0904
 Frc consts  --      0.8188                 0.8174                 1.3631
 IR Inten    --      2.2752                 0.0098                 5.8884

                     43                     44                     45
                      A                      A                      A
 Frequencies --   1056.9277              1068.7889              1111.0203
 Red. masses --      1.5252                 2.3148                 2.2522
 Frc consts  --      1.0038                 1.5579                 1.6380
 IR Inten    --      3.4671                16.0497                 0.1210

                     46                     47                     48
                      A                      A                      A
 Frequencies --   1141.6844              1172.5003              1178.0846
 Red. masses --      1.8215                 1.6697                 1.1456
 Frc consts  --      1.3988                 1.3524                 0.9368
 IR Inten    --     16.8877                13.6534                15.2490

                     49                     50                     51
                      A                      A                      A
 Frequencies --   1210.2846              1216.4614              1270.8291
 Red. masses --      2.2610                 2.8706                 1.8758
 Frc consts  --      1.9513                 2.5028                 1.7849
 IR Inten    --     65.7716                 9.6165               114.1437

                     52                     53                     54
                      A                      A                      A
 Frequencies --   1280.7064              1315.8565              1356.0167
 Red. masses --      4.6268                 2.0120                 7.3346
 Frc consts  --      4.4713                 2.0526                 7.9461
 IR Inten    --   1501.7440               130.8810                22.6000

                     55                     56                     57
                      A                      A                      A
 Frequencies --   1359.0241              1382.4066              1407.1214
 Red. masses --      4.2051                 4.6123                 1.4722
 Frc consts  --      4.5760                 5.1933                 1.7175
 IR Inten    --      7.8533                15.8014                64.8506

                     58                     59                     60
                      A                      A                      A
 Frequencies --   1431.2153              1476.8294              1476.9089
 Red. masses --      2.7502                 1.0421                 2.7556
 Frc consts  --      3.3191                 1.3391                 3.5414
 IR Inten    --    172.2471                14.7255                13.4907

                     61                     62                     63
                      A                      A                      A
 Frequencies --   1484.6661              1495.5265              1505.4929
 Red. masses --      2.8408                 1.1875                 2.6317
 Frc consts  --      3.6893                 1.5648                 3.5143
 IR Inten    --     21.8079                18.2978                 2.4537

                     64                     65                     66
                      A                      A                      A
 Frequencies --   1572.6750              1593.8963              1607.6183
 Red. masses --      3.7960                 2.8144                 4.4085
 Frc consts  --      5.5316                 4.2127                 6.7129
 IR Inten    --    837.3548                16.2750                28.8465

                     67                     68                     69
                      A                      A                      A
 Frequencies --   1621.0750              1625.6221              1653.2253
 Red. masses --      6.0713                 2.8230                 7.0464
 Frc consts  --      9.4002                 4.3955                11.3470
 IR Inten    --    277.9004               247.6169               196.1676

                     70                     71                     72
                      A                      A                      A
 Frequencies --   1686.2672              3011.8328              3054.9244
 Red. masses --     11.0155                 1.0405                 1.1000
 Frc consts  --     18.4547                 5.5612                 6.0483
 IR Inten    --    386.0994                42.8320                22.3041

                     73                     74                     75
                      A                      A                      A
 Frequencies --   3117.4956              3171.0266              3176.6774
 Red. masses --      1.0972                 1.0902                 1.0874
 Frc consts  --      6.2830                 6.4587                 6.4652
 IR Inten    --     22.0550                27.7219                 3.9208

                     76                     77                     78
                      A                      A                      A
 Frequencies --   3189.4331              3203.0265              3207.0559
 Red. masses --      1.0917                 1.0931                 1.0941
 Frc consts  --      6.5431                 6.6074                 6.6304
 IR Inten    --     14.7700                 7.9506                18.6598

                     79                     80                     81
                      A                      A                      A
 Frequencies --   3209.2432              3523.2011              3702.9332
 Red. masses --      1.0920                 1.0537                 1.0976
 Frc consts  --      6.6265                 7.7059                 8.8668
 IR Inten    --      2.6197               138.0159               188.7683

 - Thermochemistry -
 -------------------
 Temperature   298.150 Kelvin.  Pressure   1.00000 Atm.
 Atom     1 has atomic number  6 and mass  12.00000

 Molecular mass:   237.07898 amu.
 Principal axes and moments of inertia in atomic units:
                           1         2         3
     Eigenvalues --  2007.353005734.219747730.33013
           X            0.99261  -0.12131  -0.00268
           Y            0.12035   0.98140   0.14956
           Z           -0.01551  -0.14878   0.98875
 This molecule is an asymmetric top.
 Rotational symmetry number  1.
 Warning -- assumption of classical behavior for rotation
           may cause significant error
 Rotational temperatures (Kelvin)      0.04315     0.01510     0.01120
 Rotational constants (GHZ):           0.89907     0.31473     0.23346
 Zero-point vibrational energy     585093.8 (Joules/Mol)
                                  139.84078 (Kcal/Mol)
 Warning -- explicit consideration of  23 degrees of freedom as
           vibrations may cause significant error
 Vibrational temperatures:     44.24    88.79   140.71   162.53   205.65
          (Kelvin)            257.38   288.40   306.61   365.75   426.00
                              441.62   474.04   518.34   560.82   602.61
                              612.53   641.13   676.15   683.37   710.01
                              816.11   831.06   873.11   926.09   961.13
                              991.35   993.98  1048.00  1078.85  1078.98
                             1146.91  1167.73  1170.96  1237.03  1305.58
                             1313.93  1388.48  1403.48  1439.21  1440.25
                             1470.70  1513.66  1520.68  1537.75  1598.51
                             1642.63  1686.97  1695.00  1741.33  1750.22
                             1828.44  1842.65  1893.22  1951.01  1955.33
                             1988.97  2024.53  2059.20  2124.83  2124.94
                             2136.10  2151.73  2166.07  2262.73  2293.26
                             2313.00  2332.37  2338.91  2378.62  2426.16
                             4333.36  4395.35  4485.38  4562.40  4570.53
                             4588.88  4608.44  4614.24  4617.39  5069.10
                             5327.69

 Zero-point correction=                           0.222850 (Hartree/Particle)
 Thermal correction to Energy=                    0.237308
 Thermal correction to Enthalpy=                  0.238252
 Thermal correction to Gibbs Free Energy=         0.181330
 Sum of electronic and zero-point Energies=           -783.454158
 Sum of electronic and thermal Energies=              -783.439701
 Sum of electronic and thermal Enthalpies=            -783.438757
 Sum of electronic and thermal Free Energies=         -783.495679

                     E (Thermal)             CV                S
                      KCal/Mol        Cal/Mol-Kelvin    Cal/Mol-Kelvin
 Total                  148.913             57.511            119.803
 Electronic               0.000              0.000              0.000
 Translational            0.889              2.981             42.291
 Rotational               0.889              2.981             32.853
 Vibrational            147.135             51.550             44.658
 Vibration     1          0.594              1.984              5.780
 Vibration     2          0.597              1.973              4.402
 Vibration     3          0.603              1.951              3.498
 Vibration     4          0.607              1.939              3.217
 Vibration     5          0.616              1.910              2.764
 Vibration     6          0.629              1.868              2.340
 Vibration     7          0.638              1.839              2.129
 Vibration     8          0.644              1.821              2.017
 Vibration     9          0.665              1.756              1.701
 Vibration    10          0.690              1.681              1.439
 Vibration    11          0.697              1.661              1.379
 Vibration    12          0.712              1.617              1.263
 Vibration    13          0.735              1.554              1.121
 Vibration    14          0.758              1.492              1.001
 Vibration    15          0.782              1.429              0.896
 Vibration    16          0.788              1.414              0.873
 Vibration    17          0.805              1.371              0.809
 Vibration    18          0.827              1.317              0.738
 Vibration    19          0.832              1.306              0.724
 Vibration    20          0.849              1.264              0.675
 Vibration    21          0.923              1.102              0.510
 Vibration    22          0.934              1.080              0.490
 Vibration    23          0.966              1.017              0.438

 Optimization completed.
    -- Stationary point found.
 Normal termination of Gaussian 16 at Sat Feb 10 17:18:47 2024.
