 Q-Chem 5.4, Q-Chem, Inc., Pleasanton, CA (2021)
 Q-Chem 5.4.0 for Intel X86 EM64T Linux

User input:
--------------------------------------------------------------
$molecule
-1 2
C                  4.6230620000      1.2924760000     -0.5372470000
C                  3.3133230000      0.6065660000     -0.2306780000
C                  3.3100140000     -0.6629140000      0.3823300000
C                  2.1239060000     -1.3245650000      0.6794950000
O                  2.1936680000     -2.5574380000      1.2764110000
C                  0.8589880000     -0.7468150000      0.3764260000
C                 -0.4126590000     -1.4376760000      0.6856810000
O                 -0.4386260000     -2.5548990000      1.2238230000
C                 -1.6525920000     -0.7193270000      0.3160100000
C                 -2.9437180000     -1.2681620000      0.5569930000
O                 -3.0704280000     -2.4967490000      1.1478500000
C                 -4.1037920000     -0.5847080000      0.2054470000
C                 -4.0196600000      0.6750850000     -0.4011650000
O                 -5.2148870000      1.2940560000     -0.7222900000
C                 -2.7965780000      1.2469220000     -0.6544460000
C                 -1.6092480000      0.5664550000     -0.3038700000
C                 -0.3499130000      1.2376540000     -0.6044070000
O                 -0.3317740000      2.3765090000     -1.1538700000
C                  0.8768670000      0.5402890000     -0.2447050000
C                  2.1012930000      1.1870240000     -0.5338890000
H                  5.2120940000      1.4584230000      0.3729890000
H                  4.4542780000      2.2630400000     -1.0091820000
H                  5.2420660000      0.6916570000     -1.2146510000
H                  4.2546670000     -1.1448330000      0.6328070000
H                  3.1285190000     -2.7597160000      1.3930710000
H                 -4.0133340000     -2.6814210000      1.2192980000
H                 -5.0803630000     -1.0197730000      0.3973310000
H                 -5.0033190000      2.1412920000     -1.1277940000
H                 -2.6940920000      2.2206820000     -1.1225620000
H                  2.0422380000      2.1608660000     -1.0052070000
$end

$rem
BASIS  =  6-311++G(d,p)
GUI  =  2
JOB_TYPE  =  SP
METHOD  =  B3LYP
SCF_CONVERGENCE  = 8
SOLVENT_METHOD = sm12
$end

$smx
solvent dimethylformamide
charges CM5
$end

--------------------------------------------------------------

             Standard Nuclear Orientation (Angstroms)
    I     Atom           X                Y                Z
 ----------------------------------------------------------------
    1      C       4.6230620000     1.2924760000    -0.5372470000
    2      C       3.3133230000     0.6065660000    -0.2306780000
    3      C       3.3100140000    -0.6629140000     0.3823300000
    4      C       2.1239060000    -1.3245650000     0.6794950000
    5      O       2.1936680000    -2.5574380000     1.2764110000
    6      C       0.8589880000    -0.7468150000     0.3764260000
    7      C      -0.4126590000    -1.4376760000     0.6856810000
    8      O      -0.4386260000    -2.5548990000     1.2238230000
    9      C      -1.6525920000    -0.7193270000     0.3160100000
   10      C      -2.9437180000    -1.2681620000     0.5569930000
   11      O      -3.0704280000    -2.4967490000     1.1478500000
   12      C      -4.1037920000    -0.5847080000     0.2054470000
   13      C      -4.0196600000     0.6750850000    -0.4011650000
   14      O      -5.2148870000     1.2940560000    -0.7222900000
   15      C      -2.7965780000     1.2469220000    -0.6544460000
   16      C      -1.6092480000     0.5664550000    -0.3038700000
   17      C      -0.3499130000     1.2376540000    -0.6044070000
   18      O      -0.3317740000     2.3765090000    -1.1538700000
   19      C       0.8768670000     0.5402890000    -0.2447050000
   20      C       2.1012930000     1.1870240000    -0.5338890000
   21      H       5.2120940000     1.4584230000     0.3729890000
   22      H       4.4542780000     2.2630400000    -1.0091820000
   23      H       5.2420660000     0.6916570000    -1.2146510000
   24      H       4.2546670000    -1.1448330000     0.6328070000
   25      H       3.1285190000    -2.7597160000     1.3930710000
   26      H      -4.0133340000    -2.6814210000     1.2192980000
   27      H      -5.0803630000    -1.0197730000     0.3973310000
   28      H      -5.0033190000     2.1412920000    -1.1277940000
   29      H      -2.6940920000     2.2206820000    -1.1225620000
   30      H       2.0422380000     2.1608660000    -1.0052070000
 ----------------------------------------------------------------

   18    -954.0589853686      9.42e-09  Convergence criterion met
 Total energy in the final basis set =     -954.1633093727

                    Orbital Energies (a.u.)
 --------------------------------------------------------------

 Alpha MOs
 -- Occupied --
-19.1599 -19.1538 -19.1512 -19.0659 -19.0649 -10.2469 -10.2419 -10.2404
-10.2299 -10.2129 -10.1858 -10.1786 -10.1748 -10.1743 -10.1742 -10.1726
-10.1702 -10.1701 -10.1633 -10.1604  -1.0676  -1.0654  -1.0634  -0.9991
 -0.9903  -0.8597  -0.8515  -0.7940  -0.7593  -0.7463  -0.7428  -0.7011
 -0.6681  -0.6453  -0.6238  -0.6062  -0.5805  -0.5653  -0.5454  -0.5069
 -0.5057  -0.5005  -0.4771  -0.4668  -0.4523  -0.4384  -0.4380  -0.4257
 -0.4186  -0.4127  -0.4097  -0.4052  -0.3978  -0.3953  -0.3883  -0.3824
 -0.3777  -0.3689  -0.3632  -0.3586  -0.3511  -0.3471  -0.3259  -0.3074
 -0.2572  -0.2441  -0.2363  -0.2334  -0.2289  -0.2209  -0.1355

 Beta MOs
 -- Occupied --
-19.1598 -19.1539 -19.1513 -19.0602 -19.0593 -10.2474 -10.2424 -10.2403
-10.2295 -10.2107 -10.1858 -10.1779 -10.1739 -10.1735 -10.1735 -10.1717
-10.1702 -10.1690 -10.1625 -10.1599  -1.0677  -1.0653  -1.0636  -0.9913
 -0.9787  -0.8573  -0.8502  -0.7908  -0.7575  -0.7444  -0.7404  -0.6995
 -0.6623  -0.6435  -0.6217  -0.6053  -0.5794  -0.5634  -0.5443  -0.5055
 -0.5044  -0.4999  -0.4743  -0.4660  -0.4512  -0.4366  -0.4334  -0.4246
 -0.4177  -0.4111  -0.4078  -0.4038  -0.3945  -0.3931  -0.3819  -0.3768
 -0.3753  -0.3683  -0.3571  -0.3492  -0.3462  -0.3458  -0.3221  -0.2956
 -0.2408  -0.2362  -0.2304  -0.2249  -0.2229  -0.2164

          Ground-State Mulliken Net Atomic Charges

     Atom                 Charge (a.u.)    Spin (a.u.)
  --------------------------------------------------------
      1 C                     1.912655       0.004032
      2 C                     2.130075       0.005011
      3 C                     2.156333       0.110064
      4 C                     0.330492      -0.015262
      5 O                    -0.119325      -0.002258
      6 C                    -1.833734       0.049115
      7 C                    -2.643479      -0.009863
      8 O                    -0.270501       0.178827
      9 C                    -1.344049       0.030759
     10 C                     0.265079      -0.008417
     11 O                    -0.118266      -0.002615
     12 C                     2.145510       0.076766
     13 C                     1.116347      -0.000769
     14 O                    -0.139853       0.002346
     15 C                     0.535736       0.100722
     16 C                    -1.073821       0.035488
     17 C                    -2.919199       0.119082
     18 O                    -0.318948       0.250280
     19 C                    -2.520095       0.029901
     20 C                    -0.893072       0.071108
     21 H                     0.250041       0.001469
     22 H                     0.317124       0.000196
     23 H                     0.250179       0.001471
     24 H                     0.275122      -0.008125
     25 H                     0.363947      -0.000241
     26 H                     0.356684      -0.000321
     27 H                     0.326529      -0.006088
     28 H                     0.352111      -0.000129
     29 H                     0.135969      -0.006770
     30 H                    -0.025592      -0.005780
  --------------------------------------------------------
  Sum of atomic charges =    -1.000000

                    Cartesian Multipole Moments
 -----------------------------------------------------------------
    Charge (ESU x 10^10)
                -4.8032
    Dipole Moment (Debye)
         X       2.9487      Y       0.6736      Z      -0.2645
       Tot       3.0362
    Quadrupole Moments (Debye-Ang)
        XX    -112.1024     XY      -3.2793     YY    -141.7988
        XZ       1.7952     YZ       9.1546     ZZ    -127.0553

 Total job time:  954.68s(wall), 7323.02s(cpu)
        *  Thank you very much for using Q-Chem.  Have a nice day.  *
