 Q-Chem 5.4, Q-Chem, Inc., Pleasanton, CA (2021)
 Q-Chem 5.4.0 for Intel X86 EM64T Linux

User input:
--------------------------------------------------------------
$molecule
0 1
C                  2.4483340000      3.3347450000      2.8821370000
C                  3.5690640000      3.2826170000      1.9959670000
C                  3.4597660000      2.6962610000      0.7599860000
C                  2.1439640000      2.0772750000      0.2797760000
C                  1.0232130000      2.1294650000      1.1659200000
C                  1.1325180000      2.7157970000      2.4019120000
O                  2.4655250000      3.8421310000      4.0047220000
O                  2.1267780000      1.5698880000     -0.8428120000
N                  0.1543530000      2.8208990000      3.3085550000
C                 -1.2030340000      2.3290530000      3.1429380000
C                 -2.0433870000      2.6213050000      4.3804960000
N                  4.4379250000      2.5911670000     -0.1466620000
C                  5.7953280000      3.0829520000      0.0189790000
C                  6.6357760000      2.7903880000     -1.2184430000
H                  4.4919180000      3.7239710000      2.3496490000
H                  0.1003400000      1.6881620000      0.8122210000
H                  0.4330600000      3.2895360000      4.1658490000
H                 -1.1744090000      1.2496730000      2.9489910000
H                 -1.6517730000      2.7988590000      2.2589550000
H                 -1.6237510000      2.1363800000      5.2659980000
H                 -3.0593260000      2.2463260000      4.2414750000
H                 -2.1043590000      3.6961230000      4.5712480000
H                  4.1592320000      2.1224780000     -1.0039320000
H                  6.2439400000      2.6132950000      0.9031040000
H                  5.7667660000      4.1623750000      0.2126960000
H                  6.6966710000      1.7155270000     -1.4089780000
H                  7.6517340000      3.1653080000     -1.0793980000
H                  6.2162650000      3.2751740000     -2.1040790000
$end

$rem
BASIS  =  6-311++G(d,p)
GUI  =  2
JOB_TYPE  =  SP
METHOD  =  B3LYP
SCF_CONVERGENCE  = 8
SOLVENT_METHOD = sm12
$end

$smx
solvent dimethylformamide
charges CM5
$end

--------------------------------------------------------------

             Standard Nuclear Orientation (Angstroms)
    I     Atom           X                Y                Z
 ----------------------------------------------------------------
    1      C       2.4483340000     3.3347450000     2.8821370000
    2      C       3.5690640000     3.2826170000     1.9959670000
    3      C       3.4597660000     2.6962610000     0.7599860000
    4      C       2.1439640000     2.0772750000     0.2797760000
    5      C       1.0232130000     2.1294650000     1.1659200000
    6      C       1.1325180000     2.7157970000     2.4019120000
    7      O       2.4655250000     3.8421310000     4.0047220000
    8      O       2.1267780000     1.5698880000    -0.8428120000
    9      N       0.1543530000     2.8208990000     3.3085550000
   10      C      -1.2030340000     2.3290530000     3.1429380000
   11      C      -2.0433870000     2.6213050000     4.3804960000
   12      N       4.4379250000     2.5911670000    -0.1466620000
   13      C       5.7953280000     3.0829520000     0.0189790000
   14      C       6.6357760000     2.7903880000    -1.2184430000
   15      H       4.4919180000     3.7239710000     2.3496490000
   16      H       0.1003400000     1.6881620000     0.8122210000
   17      H       0.4330600000     3.2895360000     4.1658490000
   18      H      -1.1744090000     1.2496730000     2.9489910000
   19      H      -1.6517730000     2.7988590000     2.2589550000
   20      H      -1.6237510000     2.1363800000     5.2659980000
   21      H      -3.0593260000     2.2463260000     4.2414750000
   22      H      -2.1043590000     3.6961230000     4.5712480000
   23      H       4.1592320000     2.1224780000    -1.0039320000
   24      H       6.2439400000     2.6132950000     0.9031040000
   25      H       5.7667660000     4.1623750000     0.2126960000
   26      H       6.6966710000     1.7155270000    -1.4089780000
   27      H       7.6517340000     3.1653080000    -1.0793980000
   28      H       6.2162650000     3.2751740000    -2.1040790000
 ----------------------------------------------------------------

   14    -649.6400996784      9.36e-09  Convergence criterion met
 Total energy in the final basis set =     -649.6605930348

                    Orbital Energies (a.u.)
 --------------------------------------------------------------

 Alpha MOs
 -- Occupied --
-19.1110 -19.1110 -14.3552 -14.3552 -10.2653 -10.2653 -10.2437 -10.2436
-10.2136 -10.2136 -10.1706 -10.1706 -10.1649 -10.1649  -1.0479  -1.0453
 -0.9637  -0.9637  -0.8323  -0.7861  -0.7623  -0.7417  -0.6812  -0.6578
 -0.6370  -0.6113  -0.5909  -0.5445  -0.5208  -0.5188  -0.4865  -0.4800
 -0.4763  -0.4597  -0.4450  -0.4361  -0.4354  -0.4335  -0.4049  -0.3954
 -0.3876  -0.3871  -0.3816  -0.3754  -0.3736  -0.3678  -0.3335  -0.3224
 -0.2770  -0.2670  -0.2466  -0.2205

          Ground-State Mulliken Net Atomic Charges

     Atom                 Charge (a.u.)
  ----------------------------------------
      1 C                    -0.565114
      2 C                    -0.270813
      3 C                     0.103304
      4 C                    -0.565129
      5 C                    -0.270810
      6 C                     0.103331
      7 O                    -0.394184
      8 O                    -0.394185
      9 N                    -0.078558
     10 C                     0.119661
     11 C                    -0.428414
     12 N                    -0.078559
     13 C                     0.119664
     14 C                    -0.428417
     15 H                     0.208363
     16 H                     0.208364
     17 H                     0.363485
     18 H                     0.208927
     19 H                     0.209307
     20 H                     0.154420
     21 H                     0.215204
     22 H                     0.154407
     23 H                     0.363484
     24 H                     0.209292
     25 H                     0.208941
     26 H                     0.154409
     27 H                     0.215204
     28 H                     0.154417
  ----------------------------------------
  Sum of atomic charges =     0.000000

                    Cartesian Multipole Moments
 -----------------------------------------------------------------
    Charge (ESU x 10^10)
                 0.0000
    Dipole Moment (Debye)
         X       0.0000      Y      -0.0001      Z       0.0001
       Tot       0.0002
    Quadrupole Moments (Debye-Ang)
        XX     -53.5335     XY       1.2757     YY     -89.2851
        XZ     -19.3587     YZ      -8.6151     ZZ     -91.7637

 Total job time:  432.82s(wall), 3372.08s(cpu)
        *  Thank you very much for using Q-Chem.  Have a nice day.  *
