 Q-Chem 5.4, Q-Chem, Inc., Pleasanton, CA (2021)
 Q-Chem 5.4.0 for Intel X86 EM64T Linux

User input:
--------------------------------------------------------------
$molecule
-2 1
C                 -0.6483900000      2.6786130000     -0.9733680000
C                 -1.7191670000      2.0615030000     -0.3763820000
C                 -1.5911720000      0.7488190000      0.1682360000
C                  0.6367190000      2.0428780000     -1.0701110000
C                  0.7560940000      0.6971530000     -0.5311960000
C                 -0.3736920000      0.0990760000      0.0780820000
C                  1.7495330000      2.6386400000     -1.6607300000
C                  3.0005740000      1.9867020000     -1.7665230000
C                  3.1153880000      0.6287190000     -1.2197620000
C                  2.0066140000      0.0456170000     -0.6356560000
C                  4.1196860000      2.6144180000     -2.3766260000
C                  5.3157690000      1.8449260000     -2.4065190000
C                  5.4665310000      0.5531330000     -1.8972750000
C                  4.3909230000     -0.1363780000     -1.2772480000
O                  4.1640940000      3.8182320000     -2.9048170000
O                  4.4801910000     -1.3170850000     -0.8005270000
O                  6.3567790000      2.5109090000     -3.0065010000
H                 -0.7572260000      3.6794490000     -1.3857850000
H                 -2.6757540000      2.5770360000     -0.3083200000
H                 -2.4431480000      0.2725840000      0.6463890000
H                 -0.2627320000     -0.9053030000      0.4827560000
H                  1.6754230000      3.6409010000     -2.0732520000
H                  2.1292910000     -0.9599400000     -0.2415230000
H                  6.4279570000      0.0519080000     -1.9726180000
H                  5.8820190000      3.3597610000     -3.2269820000
$end

$rem
BASIS  =  6-311++G(d,p)
GUI  =  2
JOB_TYPE  =  SP
METHOD  =  B3LYP
SCF_CONVERGENCE  = 8
SOLVENT_METHOD = sm12
$end

$smx
solvent dimethylformamide
charges CM5
$end

--------------------------------------------------------------

             Standard Nuclear Orientation (Angstroms)
    I     Atom           X                Y                Z
 ----------------------------------------------------------------
    1      C      -0.6483900000     2.6786130000    -0.9733680000
    2      C      -1.7191670000     2.0615030000    -0.3763820000
    3      C      -1.5911720000     0.7488190000     0.1682360000
    4      C       0.6367190000     2.0428780000    -1.0701110000
    5      C       0.7560940000     0.6971530000    -0.5311960000
    6      C      -0.3736920000     0.0990760000     0.0780820000
    7      C       1.7495330000     2.6386400000    -1.6607300000
    8      C       3.0005740000     1.9867020000    -1.7665230000
    9      C       3.1153880000     0.6287190000    -1.2197620000
   10      C       2.0066140000     0.0456170000    -0.6356560000
   11      C       4.1196860000     2.6144180000    -2.3766260000
   12      C       5.3157690000     1.8449260000    -2.4065190000
   13      C       5.4665310000     0.5531330000    -1.8972750000
   14      C       4.3909230000    -0.1363780000    -1.2772480000
   15      O       4.1640940000     3.8182320000    -2.9048170000
   16      O       4.4801910000    -1.3170850000    -0.8005270000
   17      O       6.3567790000     2.5109090000    -3.0065010000
   18      H      -0.7572260000     3.6794490000    -1.3857850000
   19      H      -2.6757540000     2.5770360000    -0.3083200000
   20      H      -2.4431480000     0.2725840000     0.6463890000
   21      H      -0.2627320000    -0.9053030000     0.4827560000
   22      H       1.6754230000     3.6409010000    -2.0732520000
   23      H       2.1292910000    -0.9599400000    -0.2415230000
   24      H       6.4279570000     0.0519080000    -1.9726180000
   25      H       5.8820190000     3.3597610000    -3.2269820000
 ----------------------------------------------------------------

   18    -764.1751981223      7.28e-09  Convergence criterion met
 Total energy in the final basis set =     -764.4588951214

                    Orbital Energies (a.u.)
 --------------------------------------------------------------

 Alpha MOs
 -- Occupied --
-19.1228 -19.0372 -19.0309 -10.1996 -10.1973 -10.1850 -10.1836 -10.1827
-10.1815 -10.1797 -10.1781 -10.1722 -10.1718 -10.1638 -10.1617 -10.1590
-10.1372  -1.0357  -0.9558  -0.9298  -0.8707  -0.8216  -0.7755  -0.7734
 -0.7248  -0.7214  -0.6554  -0.6315  -0.6041  -0.5960  -0.5545  -0.5305
 -0.5198  -0.4920  -0.4664  -0.4565  -0.4470  -0.4398  -0.4243  -0.4178
 -0.4061  -0.3892  -0.3875  -0.3858  -0.3742  -0.3631  -0.3500  -0.3481
 -0.3328  -0.3254  -0.3166  -0.2979  -0.2864  -0.2390  -0.2207  -0.2187
 -0.2132  -0.2099  -0.1198

          Ground-State Mulliken Net Atomic Charges

     Atom                 Charge (a.u.)
  ----------------------------------------
      1 C                     1.177164
      2 C                     2.359260
      3 C                     2.355037
      4 C                     0.006078
      5 C                     0.213447
      6 C                     1.243776
      7 C                    -1.207846
      8 C                    -1.962164
      9 C                    -2.043368
     10 C                    -1.208734
     11 C                    -2.254137
     12 C                    -0.021044
     13 C                     0.191550
     14 C                    -1.799949
     15 O                    -0.436844
     16 O                    -0.356671
     17 O                    -0.131144
     18 H                     0.348840
     19 H                     0.428010
     20 H                     0.417167
     21 H                     0.338990
     22 H                    -0.016846
     23 H                    -0.001497
     24 H                     0.052009
     25 H                     0.308915
  ----------------------------------------
  Sum of atomic charges =    -2.000000

                    Cartesian Multipole Moments
 -----------------------------------------------------------------
    Charge (ESU x 10^10)
                -9.6064
    Dipole Moment (Debye)
         X     -36.1197      Y     -12.6034      Z      16.4017
       Tot      41.6232
    Quadrupole Moments (Debye-Ang)
        XX    -283.5902     XY     -44.2570     YY    -164.8992
        XZ      71.1118     YZ      36.0393     ZZ    -149.0587

 Total job time:  566.94s(wall), 4148.13s(cpu)
        *  Thank you very much for using Q-Chem.  Have a nice day.  *
