 Q-Chem 5.4, Q-Chem, Inc., Pleasanton, CA (2021)
 Q-Chem 5.4.0 for Intel X86 EM64T Linux

User input:
--------------------------------------------------------------
$molecule
-1 2
C                  1.3106250000      4.2147690000      5.1606500000
C                  1.8119020000      3.9656080000      3.8243480000
C                  1.6023260000      2.8028510000      3.1182650000
C                  0.8831450000      1.6767120000      3.7222570000
C                  0.3607210000      1.9364650000      5.0486870000
C                  0.5140460000      3.1232270000      5.7265440000
O                  1.5953500000      5.2753780000      5.7697180000
O                  0.7476710000      0.5555860000      3.1791200000
H                  2.3821710000      4.7751780000      3.3840120000
C                 -0.1290850000      3.2225670000      7.0619530000
O                 -0.2531220000      2.3063070000      7.8528310000
O                 -0.6371160000      4.4524420000      7.3141660000
C                 -1.2355220000      4.6253350000      8.5984650000
H                 -1.5519870000      5.6672370000      8.6340450000
H                 -0.5146600000      4.4214430000      9.3937110000
H                 -2.0940550000      3.9609280000      8.7264020000
C                  2.0818870000      2.7026120000      1.7189190000
O                  3.2755140000      3.3645050000      1.5419180000
O                  1.5294880000      2.1555950000      0.7934690000
C                  3.7658810000      3.3868800000      0.2012690000
H                 -0.1873290000      1.1218440000      5.5094480000
H                  4.7057090000      3.9375380000      0.2403890000
H                  3.0606750000      3.8880560000     -0.4669940000
H                  3.9345250000      2.3734770000     -0.1705710000
$end

$rem
BASIS  =  6-311++G(d,p)
GUI  =  2
JOB_TYPE  =  SP
METHOD  =  B3LYP
SCF_CONVERGENCE  = 8
SOLVENT_METHOD = sm12
$end

$smx
solvent dimethylformamide
charges CM5
$end

--------------------------------------------------------------

             Standard Nuclear Orientation (Angstroms)
    I     Atom           X                Y                Z
 ----------------------------------------------------------------
    1      C       1.3106250000     4.2147690000     5.1606500000
    2      C       1.8119020000     3.9656080000     3.8243480000
    3      C       1.6023260000     2.8028510000     3.1182650000
    4      C       0.8831450000     1.6767120000     3.7222570000
    5      C       0.3607210000     1.9364650000     5.0486870000
    6      C       0.5140460000     3.1232270000     5.7265440000
    7      O       1.5953500000     5.2753780000     5.7697180000
    8      O       0.7476710000     0.5555860000     3.1791200000
    9      H       2.3821710000     4.7751780000     3.3840120000
   10      C      -0.1290850000     3.2225670000     7.0619530000
   11      O      -0.2531220000     2.3063070000     7.8528310000
   12      O      -0.6371160000     4.4524420000     7.3141660000
   13      C      -1.2355220000     4.6253350000     8.5984650000
   14      H      -1.5519870000     5.6672370000     8.6340450000
   15      H      -0.5146600000     4.4214430000     9.3937110000
   16      H      -2.0940550000     3.9609280000     8.7264020000
   17      C       2.0818870000     2.7026120000     1.7189190000
   18      O       3.2755140000     3.3645050000     1.5419180000
   19      O       1.5294880000     2.1555950000     0.7934690000
   20      C       3.7658810000     3.3868800000     0.2012690000
   21      H      -0.1873290000     1.1218440000     5.5094480000
   22      H       4.7057090000     3.9375380000     0.2403890000
   23      H       3.0606750000     3.8880560000    -0.4669940000
   24      H       3.9345250000     2.3734770000    -0.1705710000
 ----------------------------------------------------------------

   18    -837.5280437558      7.92e-09  Convergence criterion met
 Total energy in the final basis set =     -837.6126138447

                    Orbital Energies (a.u.)
 --------------------------------------------------------------

 Alpha MOs
 -- Occupied --
-19.1641 -19.1637 -19.1129 -19.1128 -19.0838 -19.0835 -10.3041 -10.3030
-10.2343 -10.2341 -10.2184 -10.2182 -10.1906 -10.1901 -10.1829 -10.1822
 -1.1078  -1.1044  -1.0205  -1.0196  -1.0092  -1.0068  -0.8435  -0.7911
 -0.7362  -0.7196  -0.6940  -0.6461  -0.6005  -0.5760  -0.5556  -0.5192
 -0.5052  -0.4983  -0.4824  -0.4796  -0.4727  -0.4630  -0.4450  -0.4387
 -0.4249  -0.4165  -0.4104  -0.4007  -0.3952  -0.3891  -0.3809  -0.3752
 -0.3592  -0.3572  -0.3076  -0.3069  -0.2962  -0.2924  -0.2854  -0.2719
 -0.2471  -0.2393  -0.1740

 Beta MOs
 -- Occupied --
-19.1640 -19.1637 -19.1128 -19.1127 -19.0762 -19.0760 -10.3041 -10.3030
-10.2337 -10.2336 -10.2184 -10.2182 -10.1900 -10.1895 -10.1810 -10.1803
 -1.1076  -1.1042  -1.0197  -1.0193  -0.9968  -0.9941  -0.8376  -0.7889
 -0.7352  -0.7172  -0.6857  -0.6434  -0.5969  -0.5750  -0.5548  -0.5181
 -0.5027  -0.4959  -0.4817  -0.4791  -0.4721  -0.4622  -0.4426  -0.4365
 -0.4201  -0.4100  -0.4030  -0.3982  -0.3905  -0.3836  -0.3717  -0.3597
 -0.3585  -0.3508  -0.3070  -0.3064  -0.2921  -0.2873  -0.2649  -0.2561
 -0.2401  -0.2327

          Ground-State Mulliken Net Atomic Charges

     Atom                 Charge (a.u.)    Spin (a.u.)
  --------------------------------------------------------
      1 C                    -1.460873       0.036794
      2 C                     0.074499       0.136831
      3 C                    -0.090593       0.025491
      4 C                    -1.907709       0.043977
      5 C                    -0.250150       0.128132
      6 C                    -0.006942       0.049504
      7 O                    -0.325512       0.277058
      8 O                    -0.357961       0.272931
      9 H                     0.171623      -0.010853
     10 C                     0.960996       0.007237
     11 O                    -0.237287       0.002140
     12 O                    -0.066681       0.001850
     13 C                     0.081050       0.000445
     14 H                     0.261925       0.000144
     15 H                     0.209299       0.000037
     16 H                     0.207770       0.000073
     17 C                     1.092922       0.033120
     18 O                    -0.062472      -0.000994
     19 O                    -0.257364       0.006950
     20 C                     0.122885       0.000066
     21 H                     0.161467      -0.011077
     22 H                     0.277288       0.000117
     23 H                     0.210040      -0.000076
     24 H                     0.191778       0.000101
  --------------------------------------------------------
  Sum of atomic charges =    -1.000000

                    Cartesian Multipole Moments
 -----------------------------------------------------------------
    Charge (ESU x 10^10)
                -4.8032
    Dipole Moment (Debye)
         X      -4.4252      Y     -11.1335      Z     -21.2388
       Tot      24.3849
    Quadrupole Moments (Debye-Ang)
        XX     -94.5329     XY     -17.2233     YY    -144.6383
        XZ     -29.2688     YZ     -59.9495     ZZ    -203.8000

 Total job time:  439.27s(wall), 3401.66s(cpu)
        *  Thank you very much for using Q-Chem.  Have a nice day.  *
