 Q-Chem 5.4, Q-Chem, Inc., Pleasanton, CA (2021)
 Q-Chem 5.4.0 for Intel X86 EM64T Linux

User input:
--------------------------------------------------------------
$molecule
-1 2
C                  0.2527770000     -0.5762300000     -0.0760310000
C                 -0.3225080000     -1.7416750000     -0.5367480000
C                 -1.7491840000     -1.9056440000     -0.6130500000
O                 -2.2829930000     -2.9632550000     -1.0335060000
C                 -2.5706090000     -0.7588290000     -0.1685780000
C                 -3.9731430000     -0.8443290000     -0.2127050000
C                 -4.7687020000      0.2127060000      0.1969040000
C                 -4.1704650000      1.3987270000      0.6676850000
C                 -2.7931580000      1.5059590000      0.7201520000
C                 -1.9669270000      0.4383400000      0.3064950000
C                 -0.5201930000      0.5712510000      0.3693390000
O                  0.0710700000      1.6178390000      0.7843030000
H                  0.2959650000     -2.5691910000     -0.8544830000
H                 -4.4034370000     -1.7695020000     -0.5794240000
H                 -5.8507560000      0.1294250000      0.1562210000
H                 -4.7927350000      2.2288450000      0.9896170000
H                 -2.3095140000      2.4074550000      1.0786260000
N                  1.6279280000     -0.3157040000      0.0273870000
C                  2.7071040000     -1.0991290000     -0.2666230000
N                  3.9277550000     -0.4615300000     -0.0029380000
C                  5.1497860000     -1.0432570000     -0.5283060000
O                  2.6684430000     -2.2477900000     -0.6894560000
H                  1.7577000000      0.6165220000      0.4213920000
H                  3.9008910000      0.5466520000      0.0372720000
H                  5.1342840000     -2.1165170000     -0.3432410000
H                  6.0075030000     -0.6063370000     -0.0107160000
H                  5.2722670000     -0.8919500000     -1.6100730000
$end
$rem
MAX_SCF_CYCLES=200
BASIS  =  6-311++G(d,p)
GUI  =  2
JOB_TYPE  =  SP
METHOD  =  B3LYP
SOLVENT_METHOD = COSMO
$end
$solvent
dielectric 37.219
opticaldielectric 1.43
$end

--------------------------------------------------------------

             Standard Nuclear Orientation (Angstroms)
    I     Atom           X                Y                Z
 ----------------------------------------------------------------
    1      C       0.5972103524    -0.0194755113    -0.0332475970
    2      C       0.2323925783     1.3102796641    -0.0216631939
    3      C      -1.1461191684     1.7192371098     0.0022409649
    4      O      -1.4886216099     2.9287014780     0.0150606214
    5      C      -2.1557149805     0.6384421586     0.0110502330
    6      C      -3.5241394692     0.9598170601     0.0332235207
    7      C      -4.4926254973    -0.0301218250     0.0417360832
    8      C      -4.1088692170    -1.3861128156     0.0280385871
    9      C      -2.7691043308    -1.7263757332     0.0061923785
   10      C      -1.7685184908    -0.7302181706    -0.0026504446
   11      C      -0.3647291549    -1.1090448254    -0.0254503327
   12      O       0.0364621209    -2.3157056594    -0.0376441839
   13      H       0.9861061455     2.0849249696    -0.0310238330
   14      H      -3.7876400690     2.0115064212     0.0431105333
   15      H      -5.5453633947     0.2361208947     0.0587485479
   16      H      -4.8669935447    -2.1640345792     0.0344645312
   17      H      -2.4489118502    -2.7619723633    -0.0050575374
   18      N       1.9088072826    -0.5186096524    -0.0469572338
   19      C       3.1090401591     0.1324514568    -0.0663975060
   20      N       4.2017978806    -0.7457900909    -0.0913669617
   21      C       5.5286095261    -0.2209268511     0.1767133243
   22      O       3.2687502616     1.3464128608    -0.0886439566
   23      H       1.8728988850    -1.5378869947    -0.0771286347
   24      H       4.0236674754    -1.6834373379     0.2370484198
   25      H       5.6595435453     0.7031181468    -0.3848679417
   26      H       6.2759662386    -0.9463342571    -0.1545252395
   27      H       5.6991704038     0.0058135651     1.2386045694
 ----------------------------------------------------------------

   11    -798.8007469816      5.80e-06  Convergence criterion met
 Total energy in the final basis set =     -798.8007469816
    5    -798.8927517670      5.08e-06  Convergence criterion met
 Total energy in the final basis set =     -798.8927517670

                    Orbital Energies (a.u.)
 --------------------------------------------------------------

 Alpha MOs
 -- Occupied --
-19.0960 -19.0886 -19.0800 -14.3452 -14.3297 -10.3049 -10.2290 -10.2289
-10.2178 -10.1913 -10.1777 -10.1755 -10.1736 -10.1728 -10.1718 -10.1710
-10.1588  -1.0607  -1.0142  -1.0058  -0.9442  -0.9082  -0.8604  -0.8032
 -0.7528  -0.7454  -0.7067  -0.6749  -0.6323  -0.6218  -0.5817  -0.5704
 -0.5582  -0.5253  -0.4971  -0.4897  -0.4663  -0.4626  -0.4471  -0.4413
 -0.4335  -0.4282  -0.4238  -0.4195  -0.4099  -0.4042  -0.3931  -0.3857
 -0.3851  -0.3583  -0.3570  -0.3401  -0.3228  -0.2865  -0.2716  -0.2617
 -0.2610  -0.2597  -0.2456  -0.2310  -0.1559

 Beta MOs
 -- Occupied --
-19.0957 -19.0825 -19.0747 -14.3449 -14.3296 -10.3048 -10.2277 -10.2263
-10.2166 -10.1913 -10.1776 -10.1745 -10.1736 -10.1721 -10.1714 -10.1712
-10.1578  -1.0602  -1.0040  -0.9963  -0.9424  -0.9074  -0.8583  -0.7987
 -0.7507  -0.7437  -0.7041  -0.6685  -0.6300  -0.6201  -0.5800  -0.5689
 -0.5568  -0.5233  -0.4953  -0.4865  -0.4648  -0.4609  -0.4459  -0.4409
 -0.4309  -0.4234  -0.4181  -0.4148  -0.4070  -0.3991  -0.3904  -0.3855
 -0.3621  -0.3556  -0.3515  -0.3390  -0.3100  -0.2858  -0.2630  -0.2554
 -0.2530  -0.2511  -0.2406  -0.2226

          Ground-State Mulliken Net Atomic Charges

     Atom                 Charge (a.u.)    Spin (a.u.)
  --------------------------------------------------------
      1 C                     0.462626       0.086449
      2 C                     0.145107       0.063740
      3 C                    -0.224788       0.078566
      4 O                    -0.523875       0.188759
      5 C                     0.647244       0.071041
      6 C                     0.141725       0.000963
      7 C                    -0.381747       0.063130
      8 C                    -0.462118       0.001436
      9 C                     0.090795       0.076303
     10 C                    -0.291128      -0.040393
     11 C                    -1.149752       0.177552
     12 O                    -0.503110       0.231944
     13 H                     0.240056      -0.007385
     14 H                     0.171788      -0.000586
     15 H                     0.205104      -0.004337
     16 H                     0.203568      -0.000684
     17 H                     0.185219      -0.003837
     18 N                    -0.276086       0.007126
     19 C                     0.124478       0.000978
     20 N                    -0.198755       0.004246
     21 C                    -0.298765      -0.001046
     22 O                    -0.480519       0.007560
     23 H                     0.382506      -0.002754
     24 H                     0.278533       0.000293
     25 H                     0.175028       0.000119
     26 H                     0.162187      -0.000006
     27 H                     0.174679       0.000822
  --------------------------------------------------------
  Sum of atomic charges =    -1.000000

                    Cartesian Multipole Moments
 -----------------------------------------------------------------
    Charge (ESU x 10^10)
                -4.8032
    Dipole Moment (Debye)
         X       3.3799      Y      -7.3195      Z       1.0280
       Tot       8.1274
    Quadrupole Moments (Debye-Ang)
        XX     -94.7377     XY      -4.5808     YY    -137.1517
        XZ       4.1406     YZ      -1.1671     ZZ    -105.2854

 Total job time:  77.55s(wall), 581.78s(cpu)
        *  Thank you very much for using Q-Chem.  Have a nice day.  *
