 Q-Chem 5.4, Q-Chem, Inc., Pleasanton, CA (2021)
 Q-Chem 5.4.0 for Intel X86 EM64T Linux

User input:
--------------------------------------------------------------
$molecule
-2 1
C                 17.0176400000      1.1718340000      4.1175770000
C                 16.3365780000      1.8159930000      3.0185070000
C                 16.9149060000      2.0277100000      1.7947400000
C                 18.2859990000      1.6053430000      1.5403040000
C                 18.9875090000      0.9498620000      2.6384650000
C                 18.3889930000      0.7418530000      3.8646730000
O                 16.4473710000      0.9951490000      5.2357350000
O                 18.8358070000      1.8050360000      0.4144920000
C                 19.1215880000      0.0636290000      4.9957140000
C                 20.4062140000      0.5056470000      2.3755930000
H                 15.3170930000      2.1358600000      3.2143270000
H                 19.4323600000     -0.9545290000      4.7275060000
H                 18.4664280000      0.0106280000      5.8661650000
H                 20.0340350000      0.6066780000      5.2742370000
H                 20.6789520000      0.7558540000      1.3498680000
H                 20.5259050000     -0.5759900000      2.5185820000
H                 21.1169110000      0.9921110000      3.0563460000
C                 16.1990290000      2.7306120000      0.6532090000
C                 14.7029050000      2.6136120000      0.6764510000
C                 13.7765470000      3.5793610000      0.7621300000
C                 12.3006770000      3.2302480000      0.7553160000
C                 11.6060490000      3.3899870000      2.1322650000
C                 10.1215440000      3.1636010000      2.0611450000
C                  9.3869040000      2.1925130000      2.6229440000
C                  7.8853150000      2.1553490000      2.4162740000
C                  7.3785470000      0.9535580000      1.5796430000
C                  5.8953850000      1.0152460000      1.3369430000
C                  4.9386620000      0.1662050000      1.7393290000
C                  3.4869500000      0.4289480000      1.3911820000
C                 14.0906610000      5.0528080000      0.8681640000
C                  9.9493460000      1.0961140000      3.4951160000
C                  5.1948680000     -1.0797350000      2.5533330000
C                  2.8665390000     -0.5970650000      0.4103150000
C                  1.4034620000     -0.3454670000      0.1674180000
C                  0.7798440000     -0.0402710000     -0.9796320000
C                 -0.7209520000      0.1685640000     -1.0019510000
C                 -1.5021250000     -0.8934260000     -1.8160260000
C                 -2.9925450000     -0.7161410000     -1.7120640000
C                 -3.8732100000     -0.4247350000     -2.6805930000
C                 -5.3484830000     -0.2957640000     -2.3595550000
C                 -6.2436930000     -1.3700200000     -3.0267560000
C                 -7.6824460000     -1.2699360000     -2.5984540000
C                 -8.7605500000     -0.9831120000     -3.3428420000
C                -10.1370170000     -0.9400980000     -2.7107550000
C                -11.1139650000     -2.0230240000     -3.2333380000
C                -12.4311500000     -2.0120030000     -2.5065470000
C                -13.6540650000     -1.7490360000     -2.9903280000
C                  1.4761190000      0.1221710000     -2.3096970000
C                 -3.5040530000     -0.1947020000     -4.1269190000
C                 -8.7175330000     -0.6740130000     -4.8207390000
C                -13.9404060000     -1.3789490000     -4.4265180000
C                -14.8643510000     -1.8013640000     -2.0801210000
C                -15.8819570000     -2.9148250000     -2.4333840000
C                -17.0084400000     -3.0032590000     -1.4403280000
C                -18.3201010000     -2.8043260000     -1.6377740000
C                -18.9339690000     -2.4159960000     -2.9620980000
C                -19.2962100000     -2.9523850000     -0.4886120000
C                -20.3117770000     -4.1106020000     -0.6558930000
C                -21.1789180000     -4.2896210000      0.5598710000
C                -22.5086320000     -4.1636310000      0.6686530000
C                -23.4411910000     -3.8053210000     -0.4616160000
C                -23.1989820000     -4.3746120000      1.9950610000
H                 16.5845100000      2.2934290000     -0.2756430000
H                 16.5184790000      3.7783410000      0.6188560000
H                 14.3378530000      1.5880370000      0.6151640000
H                 12.1689160000      2.1968020000      0.4209470000
H                 11.7755430000      3.8643740000      0.0260190000
H                 11.7831340000      4.4072190000      2.5028080000
H                 12.0872990000      2.7169740000      2.8442330000
H                  9.5856390000      3.8955750000      1.4546950000
H                  7.5638610000      3.0814310000      1.9284410000
H                  7.3822230000      2.1259830000      3.3922680000
H                  7.6606180000      0.0171260000      2.0643090000
H                  7.9007060000      0.9699890000      0.6143480000
H                  5.5713440000      1.8870010000      0.7674500000
H                  3.3886180000      1.4281720000      0.9569860000
H                  2.8892100000      0.4288530000      2.3134310000
H                 15.1616810000      5.2485570000      0.9082930000
H                 13.6417670000      5.4936010000      1.7657860000
H                 13.6780460000      5.6000120000      0.0100040000
H                 11.0167850000      1.2055640000      3.6808870000
H                  9.7946430000      0.1100740000      3.0430610000
H                  9.4387250000      1.0792690000      4.4657090000
H                  6.2260060000     -1.1569730000      2.8969730000
H                  4.9696580000     -1.9855640000      1.9794770000
H                  4.5441600000     -1.0987240000      3.4355470000
H                  2.9801700000     -1.6048390000      0.8292580000
H                  3.4384970000     -0.5869700000     -0.5203690000
H                  0.7830470000     -0.4197710000      1.0612620000
H                 -0.9467940000      1.1560800000     -1.4256890000
H                 -1.1013200000      0.1755770000      0.0246160000
H                 -1.2327400000     -1.8841020000     -1.4257630000
H                 -1.1773400000     -0.8762210000     -2.8580780000
H                 -3.3900690000     -0.8414890000     -0.7044250000
H                 -5.7061740000      0.6917620000     -2.6801370000
H                 -5.4895830000     -0.3420880000     -1.2747070000
H                 -5.8551810000     -2.3576310000     -2.7437280000
H                 -6.1536310000     -1.3057960000     -4.1126570000
H                 -7.8498960000     -1.4557230000     -1.5370730000
H                -10.5909490000      0.0432280000     -2.8925710000
H                -10.0416670000     -1.0443220000     -1.6248300000
H                -10.6381720000     -3.0032310000     -3.0945000000
H                -11.2590990000     -1.9034640000     -4.3084940000
H                -12.3607260000     -2.2488200000     -1.4444080000
H                  2.5627550000      0.1188580000     -2.2244520000
H                  1.1777930000      1.0653040000     -2.7823030000
H                  1.1961210000     -0.6765730000     -3.0057560000
H                 -2.4274800000     -0.1313450000     -4.2888750000
H                 -3.9531180000      0.7374120000     -4.4907550000
H                 -3.8882220000     -0.9948870000     -4.7697850000
H                 -7.7040420000     -0.5428040000     -5.2016340000
H                 -9.2757170000      0.2459010000     -5.0339040000
H                 -9.1911950000     -1.4676070000     -5.4100410000
H                -13.0375730000     -1.1845930000     -5.0065880000
H                -14.5658660000     -0.4789450000     -4.4703200000
H                -14.4989670000     -2.1699070000     -4.9401840000
H                -15.3894340000     -0.8374840000     -2.1151770000
H                -14.5345340000     -1.9399430000     -1.0451180000
H                -15.3433550000     -3.8721920000     -2.4484130000
H                -16.2626780000     -2.7624090000     -3.4448900000
H                -16.6956180000     -3.2633130000     -0.4284740000
H                -18.1921550000     -2.1530660000     -3.7172340000
H                -19.6017330000     -1.5549960000     -2.8350290000
H                -19.5491720000     -3.2257420000     -3.3712910000
H                -19.8626270000     -2.0192400000     -0.3681540000
H                -18.7395960000     -3.1025680000      0.4425410000
H                -19.7456680000     -5.0351090000     -0.8329540000
H                -20.9179850000     -3.9446200000     -1.5480310000
H                -20.6327040000     -4.5466990000      1.4678920000
H                -22.9338240000     -3.6413230000     -1.4131470000
H                -24.0031560000     -2.8934810000     -0.2204210000
H                -24.1872870000     -4.5968380000     -0.6097940000
H                -22.4919830000     -4.6344210000      2.7877060000
H                -23.9462940000     -5.1752030000      1.9262990000
H                -23.7410890000     -3.4707800000      2.3022440000
$end

$rem
BASIS  =  6-311++G(d,p)
GUI  =  2
JOB_TYPE  =  SP
METHOD  =  B3LYP
THRESH = 14
SCF_CONVERGENCE  = 5
SOLVENT_METHOD = sm12
$end

$smx
solvent dimethylformamide
charges CM5
$end

--------------------------------------------------------------

             Standard Nuclear Orientation (Angstroms)
    I     Atom           X                Y                Z
 ----------------------------------------------------------------
    1      C      17.0176400000     1.1718340000     4.1175770000
    2      C      16.3365780000     1.8159930000     3.0185070000
    3      C      16.9149060000     2.0277100000     1.7947400000
    4      C      18.2859990000     1.6053430000     1.5403040000
    5      C      18.9875090000     0.9498620000     2.6384650000
    6      C      18.3889930000     0.7418530000     3.8646730000
    7      O      16.4473710000     0.9951490000     5.2357350000
    8      O      18.8358070000     1.8050360000     0.4144920000
    9      C      19.1215880000     0.0636290000     4.9957140000
   10      C      20.4062140000     0.5056470000     2.3755930000
   11      H      15.3170930000     2.1358600000     3.2143270000
   12      H      19.4323600000    -0.9545290000     4.7275060000
   13      H      18.4664280000     0.0106280000     5.8661650000
   14      H      20.0340350000     0.6066780000     5.2742370000
   15      H      20.6789520000     0.7558540000     1.3498680000
   16      H      20.5259050000    -0.5759900000     2.5185820000
   17      H      21.1169110000     0.9921110000     3.0563460000
   18      C      16.1990290000     2.7306120000     0.6532090000
   19      C      14.7029050000     2.6136120000     0.6764510000
   20      C      13.7765470000     3.5793610000     0.7621300000
   21      C      12.3006770000     3.2302480000     0.7553160000
   22      C      11.6060490000     3.3899870000     2.1322650000
   23      C      10.1215440000     3.1636010000     2.0611450000
   24      C       9.3869040000     2.1925130000     2.6229440000
   25      C       7.8853150000     2.1553490000     2.4162740000
   26      C       7.3785470000     0.9535580000     1.5796430000
   27      C       5.8953850000     1.0152460000     1.3369430000
   28      C       4.9386620000     0.1662050000     1.7393290000
   29      C       3.4869500000     0.4289480000     1.3911820000
   30      C      14.0906610000     5.0528080000     0.8681640000
   31      C       9.9493460000     1.0961140000     3.4951160000
   32      C       5.1948680000    -1.0797350000     2.5533330000
   33      C       2.8665390000    -0.5970650000     0.4103150000
   34      C       1.4034620000    -0.3454670000     0.1674180000
   35      C       0.7798440000    -0.0402710000    -0.9796320000
   36      C      -0.7209520000     0.1685640000    -1.0019510000
   37      C      -1.5021250000    -0.8934260000    -1.8160260000
   38      C      -2.9925450000    -0.7161410000    -1.7120640000
   39      C      -3.8732100000    -0.4247350000    -2.6805930000
   40      C      -5.3484830000    -0.2957640000    -2.3595550000
   41      C      -6.2436930000    -1.3700200000    -3.0267560000
   42      C      -7.6824460000    -1.2699360000    -2.5984540000
   43      C      -8.7605500000    -0.9831120000    -3.3428420000
   44      C     -10.1370170000    -0.9400980000    -2.7107550000
   45      C     -11.1139650000    -2.0230240000    -3.2333380000
   46      C     -12.4311500000    -2.0120030000    -2.5065470000
   47      C     -13.6540650000    -1.7490360000    -2.9903280000
   48      C       1.4761190000     0.1221710000    -2.3096970000
   49      C      -3.5040530000    -0.1947020000    -4.1269190000
   50      C      -8.7175330000    -0.6740130000    -4.8207390000
   51      C     -13.9404060000    -1.3789490000    -4.4265180000
   52      C     -14.8643510000    -1.8013640000    -2.0801210000
   53      C     -15.8819570000    -2.9148250000    -2.4333840000
   54      C     -17.0084400000    -3.0032590000    -1.4403280000
   55      C     -18.3201010000    -2.8043260000    -1.6377740000
   56      C     -18.9339690000    -2.4159960000    -2.9620980000
   57      C     -19.2962100000    -2.9523850000    -0.4886120000
   58      C     -20.3117770000    -4.1106020000    -0.6558930000
   59      C     -21.1789180000    -4.2896210000     0.5598710000
   60      C     -22.5086320000    -4.1636310000     0.6686530000
   61      C     -23.4411910000    -3.8053210000    -0.4616160000
   62      C     -23.1989820000    -4.3746120000     1.9950610000
   63      H      16.5845100000     2.2934290000    -0.2756430000
   64      H      16.5184790000     3.7783410000     0.6188560000
   65      H      14.3378530000     1.5880370000     0.6151640000
   66      H      12.1689160000     2.1968020000     0.4209470000
   67      H      11.7755430000     3.8643740000     0.0260190000
   68      H      11.7831340000     4.4072190000     2.5028080000
   69      H      12.0872990000     2.7169740000     2.8442330000
   70      H       9.5856390000     3.8955750000     1.4546950000
   71      H       7.5638610000     3.0814310000     1.9284410000
   72      H       7.3822230000     2.1259830000     3.3922680000
   73      H       7.6606180000     0.0171260000     2.0643090000
   74      H       7.9007060000     0.9699890000     0.6143480000
   75      H       5.5713440000     1.8870010000     0.7674500000
   76      H       3.3886180000     1.4281720000     0.9569860000
   77      H       2.8892100000     0.4288530000     2.3134310000
   78      H      15.1616810000     5.2485570000     0.9082930000
   79      H      13.6417670000     5.4936010000     1.7657860000
   80      H      13.6780460000     5.6000120000     0.0100040000
   81      H      11.0167850000     1.2055640000     3.6808870000
   82      H       9.7946430000     0.1100740000     3.0430610000
   83      H       9.4387250000     1.0792690000     4.4657090000
   84      H       6.2260060000    -1.1569730000     2.8969730000
   85      H       4.9696580000    -1.9855640000     1.9794770000
   86      H       4.5441600000    -1.0987240000     3.4355470000
   87      H       2.9801700000    -1.6048390000     0.8292580000
   88      H       3.4384970000    -0.5869700000    -0.5203690000
   89      H       0.7830470000    -0.4197710000     1.0612620000
   90      H      -0.9467940000     1.1560800000    -1.4256890000
   91      H      -1.1013200000     0.1755770000     0.0246160000
   92      H      -1.2327400000    -1.8841020000    -1.4257630000
   93      H      -1.1773400000    -0.8762210000    -2.8580780000
   94      H      -3.3900690000    -0.8414890000    -0.7044250000
   95      H      -5.7061740000     0.6917620000    -2.6801370000
   96      H      -5.4895830000    -0.3420880000    -1.2747070000
   97      H      -5.8551810000    -2.3576310000    -2.7437280000
   98      H      -6.1536310000    -1.3057960000    -4.1126570000
   99      H      -7.8498960000    -1.4557230000    -1.5370730000
  100      H     -10.5909490000     0.0432280000    -2.8925710000
  101      H     -10.0416670000    -1.0443220000    -1.6248300000
  102      H     -10.6381720000    -3.0032310000    -3.0945000000
  103      H     -11.2590990000    -1.9034640000    -4.3084940000
  104      H     -12.3607260000    -2.2488200000    -1.4444080000
  105      H       2.5627550000     0.1188580000    -2.2244520000
  106      H       1.1777930000     1.0653040000    -2.7823030000
  107      H       1.1961210000    -0.6765730000    -3.0057560000
  108      H      -2.4274800000    -0.1313450000    -4.2888750000
  109      H      -3.9531180000     0.7374120000    -4.4907550000
  110      H      -3.8882220000    -0.9948870000    -4.7697850000
  111      H      -7.7040420000    -0.5428040000    -5.2016340000
  112      H      -9.2757170000     0.2459010000    -5.0339040000
  113      H      -9.1911950000    -1.4676070000    -5.4100410000
  114      H     -13.0375730000    -1.1845930000    -5.0065880000
  115      H     -14.5658660000    -0.4789450000    -4.4703200000
  116      H     -14.4989670000    -2.1699070000    -4.9401840000
  117      H     -15.3894340000    -0.8374840000    -2.1151770000
  118      H     -14.5345340000    -1.9399430000    -1.0451180000
  119      H     -15.3433550000    -3.8721920000    -2.4484130000
  120      H     -16.2626780000    -2.7624090000    -3.4448900000
  121      H     -16.6956180000    -3.2633130000    -0.4284740000
  122      H     -18.1921550000    -2.1530660000    -3.7172340000
  123      H     -19.6017330000    -1.5549960000    -2.8350290000
  124      H     -19.5491720000    -3.2257420000    -3.3712910000
  125      H     -19.8626270000    -2.0192400000    -0.3681540000
  126      H     -18.7395960000    -3.1025680000     0.4425410000
  127      H     -19.7456680000    -5.0351090000    -0.8329540000
  128      H     -20.9179850000    -3.9446200000    -1.5480310000
  129      H     -20.6327040000    -4.5466990000     1.4678920000
  130      H     -22.9338240000    -3.6413230000    -1.4131470000
  131      H     -24.0031560000    -2.8934810000    -0.2204210000
  132      H     -24.1872870000    -4.5968380000    -0.6097940000
  133      H     -22.4919830000    -4.6344210000     2.7877060000
  134      H     -23.9462940000    -5.1752030000     1.9262990000
  135      H     -23.7410890000    -3.4707800000     2.3022440000
 ----------------------------------------------------------------

    9   -2218.6925415260      9.77e-06  Convergence criterion met
 Total energy in the final basis set =    -2219.0177072773

                    Orbital Energies (a.u.)
 --------------------------------------------------------------

 Alpha MOs
 -- Occupied --
-19.0146 -19.0116 -10.1785 -10.1765 -10.1764 -10.1762 -10.1758 -10.1756
-10.1754 -10.1753 -10.1749 -10.1745 -10.1712 -10.1706 -10.1705 -10.1697
-10.1696 -10.1694 -10.1693 -10.1692 -10.1690 -10.1690 -10.1690 -10.1689
-10.1688 -10.1687 -10.1685 -10.1685 -10.1683 -10.1682 -10.1666 -10.1644
-10.1643 -10.1639 -10.1634 -10.1634 -10.1630 -10.1628 -10.1627 -10.1626
-10.1625 -10.1625 -10.1622 -10.1621 -10.1620 -10.1619 -10.1619 -10.1618
-10.1618 -10.1617 -10.1616 -10.1352 -10.1344 -10.1330 -10.1247  -0.9422
 -0.9385  -0.8336  -0.8325  -0.8304  -0.8275  -0.8237  -0.8192  -0.8142
 -0.8090  -0.8050  -0.7971  -0.7815  -0.7767  -0.7697  -0.7616  -0.7530
 -0.7441  -0.7355  -0.7281  -0.7228  -0.7180  -0.7143  -0.6930  -0.6900
 -0.6891  -0.6886  -0.6879  -0.6860  -0.6827  -0.6778  -0.6713  -0.6628
 -0.6477  -0.6432  -0.6357  -0.6253  -0.6153  -0.6065  -0.5995  -0.5932
 -0.5873  -0.5831  -0.5412  -0.5273  -0.5262  -0.5251  -0.5229  -0.5206
 -0.5188  -0.5163  -0.5154  -0.5131  -0.5103  -0.4833  -0.4830  -0.4782
 -0.4779  -0.4746  -0.4720  -0.4714  -0.4710  -0.4685  -0.4651  -0.4528
 -0.4511  -0.4478  -0.4455  -0.4402  -0.4381  -0.4367  -0.4348  -0.4332
 -0.4319  -0.4310  -0.4239  -0.4214  -0.4205  -0.4198  -0.4181  -0.4156
 -0.4127  -0.4106  -0.4091  -0.4082  -0.4058  -0.4051  -0.4004  -0.3995
 -0.3990  -0.3980  -0.3946  -0.3920  -0.3914  -0.3886  -0.3861  -0.3844
 -0.3797  -0.3768  -0.3758  -0.3754  -0.3751  -0.3746  -0.3735  -0.3728
 -0.3725  -0.3714  -0.3711  -0.3702  -0.3689  -0.3684  -0.3669  -0.3666
 -0.3657  -0.3639  -0.3633  -0.3606  -0.3528  -0.3494  -0.3471  -0.3459
 -0.3440  -0.3427  -0.3396  -0.3374  -0.3353  -0.3332  -0.3330  -0.3323
 -0.3309  -0.3285  -0.3262  -0.3234  -0.3206  -0.3190  -0.3148  -0.3120
 -0.3100  -0.3089  -0.2529  -0.2508  -0.2482  -0.2444  -0.2398  -0.2363
 -0.2338  -0.2313  -0.2290  -0.2237  -0.2154  -0.1951  -0.1869  -0.1071

          Ground-State Mulliken Net Atomic Charges

     Atom                 Charge (a.u.)
  ----------------------------------------
      1 C                    -1.694357
      2 C                    -2.023211
      3 C                    -0.611360
      4 C                    -2.350446
      5 C                    -1.644357
      6 C                    -0.453934
      7 O                    -0.346486
      8 O                    -0.274238
      9 C                     0.659858
     10 C                     0.775594
     11 H                    -0.416475
     12 H                     0.180005
     13 H                     0.186924
     14 H                     0.188836
     15 H                     0.196832
     16 H                     0.184775
     17 H                     0.174837
     18 C                    -0.203198
     19 C                    -2.284715
     20 C                     2.313824
     21 C                     2.227989
     22 C                    -1.697530
     23 C                    -0.933172
     24 C                     1.398819
     25 C                     0.999043
     26 C                    -0.983043
     27 C                    -0.963301
     28 C                     1.294093
     29 C                     0.024836
     30 C                     0.808350
     31 C                    -0.669677
     32 C                    -0.362654
     33 C                    -0.503514
     34 C                    -0.784169
     35 C                     0.791959
     36 C                    -0.192344
     37 C                    -0.542721
     38 C                    -0.668244
     39 C                     0.871843
     40 C                    -0.455568
     41 C                    -0.476073
     42 C                    -0.620896
     43 C                     0.811246
     44 C                    -0.531614
     45 C                    -0.442141
     46 C                    -0.557029
     47 C                     0.763201
     48 C                    -0.483883
     49 C                    -0.435479
     50 C                    -0.426788
     51 C                    -0.423626
     52 C                    -0.589855
     53 C                    -0.396584
     54 C                    -0.377097
     55 C                     0.684258
     56 C                    -0.449959
     57 C                    -0.747659
     58 C                    -0.219563
     59 C                    -0.395529
     60 C                     0.142454
     61 C                    -0.411509
     62 C                    -0.435297
     63 H                     0.192765
     64 H                    -0.221497
     65 H                    -0.040382
     66 H                     0.450823
     67 H                     0.326701
     68 H                     0.228542
     69 H                    -0.160605
     70 H                     0.118724
     71 H                     0.354874
     72 H                     0.178956
     73 H                    -0.012583
     74 H                     0.185844
     75 H                     0.124430
     76 H                     0.219941
     77 H                     0.185664
     78 H                     0.335760
     79 H                     0.162840
     80 H                     0.292749
     81 H                     0.116972
     82 H                     0.178786
     83 H                     0.222442
     84 H                     0.166364
     85 H                     0.195276
     86 H                     0.199662
     87 H                     0.153293
     88 H                     0.058204
     89 H                     0.175844
     90 H                     0.170689
     91 H                     0.192932
     92 H                     0.170321
     93 H                     0.068031
     94 H                     0.160335
     95 H                     0.170525
     96 H                     0.171584
     97 H                     0.170329
     98 H                     0.079074
     99 H                     0.164722
    100 H                     0.169127
    101 H                     0.162594
    102 H                     0.169285
    103 H                     0.082595
    104 H                     0.168157
    105 H                     0.145652
    106 H                     0.174913
    107 H                     0.198148
    108 H                     0.159295
    109 H                     0.174850
    110 H                     0.198580
    111 H                     0.162453
    112 H                     0.173124
    113 H                     0.198603
    114 H                     0.162568
    115 H                     0.171814
    116 H                     0.197959
    117 H                     0.169570
    118 H                     0.158159
    119 H                     0.167710
    120 H                     0.088793
    121 H                     0.177273
    122 H                     0.159906
    123 H                     0.174267
    124 H                     0.200847
    125 H                     0.165281
    126 H                     0.151831
    127 H                     0.164756
    128 H                     0.065815
    129 H                     0.142113
    130 H                     0.176611
    131 H                     0.168801
    132 H                     0.166937
    133 H                     0.185037
    134 H                     0.164770
    135 H                     0.172591
  ----------------------------------------
  Sum of atomic charges =    -2.000000

                    Cartesian Multipole Moments
 -----------------------------------------------------------------
    Charge (ESU x 10^10)
                -9.6064
    Dipole Moment (Debye)
         X    -169.9316      Y     -13.3085      Z     -28.3268
       Tot     172.7897
    Quadrupole Moments (Debye-Ang)
        XX   -3346.2326     XY    -234.0719     YY    -390.9975
        XZ    -449.8103     YZ     -30.6008     ZZ    -475.4684

 Total job time:  20918.73s(wall), 55873.96s(cpu)
        *  Thank you very much for using Q-Chem.  Have a nice day.  *
