 Gaussian 16, Revision A.03,
 Gaussian 16:  ES64L-G16RevA.03 25-Dec-2016

 ----------------------------------------------------------------
 #P UB3LYP/6-311++G(d,p) SCRF=(PCM,Solvent=n,n-DiMethylFormamide)
 ----------------------------------------------------------------

 ------------------
 Radical PCM in DMF
 ------------------
 Symbolic Z-matrix:
 Charge = -1 Multiplicity = 2

                         Standard orientation:
 ---------------------------------------------------------------------
 Center     Atomic      Atomic             Coordinates (Angstroms)
 Number     Number       Type             X           Y           Z
 ---------------------------------------------------------------------
      1          6           0      -19.521692    4.152689    0.443905
      2          6           0      -19.729617    4.864378   -0.724289
      3          6           0      -19.397547    4.288644   -1.966591
      4          6           0      -18.979709    2.852228    0.415139
      5          6           0      -18.645856    2.273541   -0.835140
      6          6           0      -18.864047    3.012970   -2.014495
      7          6           0      -18.769066    2.120767    1.674111
      8          6           0      -18.204714    0.789060    1.568144
      9          6           0      -17.891651    0.220421    0.338764
     10          6           0      -18.078358    0.920267   -0.913600
     11          8           0      -19.070251    2.642874    2.783550
     12          8           0      -17.771976    0.401642   -2.024381
     13          1           0      -20.148131    5.866032   -0.685024
     14          1           0      -19.560518    4.846465   -2.884342
     15          6           0      -17.980451    0.047075    2.864193
     16          1           0      -19.767496    4.569903    1.413738
     17          1           0      -18.597859    2.543974   -2.954930
     18          1           0      -18.643292   -0.823781    2.954799
     19          1           0      -18.190763    0.716693    3.698399
     20          1           0      -16.952162   -0.319535    2.948744
     21          6           0      -17.314408   -1.181260    0.228527
     22          6           0      -15.806273   -1.180023    0.223042
     23          6           0      -14.953710   -1.914814    0.952215
     24          6           0      -13.458203   -1.745362    0.771777
     25          6           0      -12.755436   -2.961954    0.115802
     26          6           0      -11.266998   -2.780539    0.018309
     27          6           0      -10.499133   -2.663611   -1.074788
     28          6           0      -15.370773   -2.938446    1.982003
     29          6           0       -9.004437   -2.453620   -0.935019
     30          6           0       -8.516893   -1.049388   -1.373548
     31          6           0       -7.026061   -0.900987   -1.252413
     32          6           0       -6.322049   -0.068453   -0.471995
     33          6           0      -11.016763   -2.729083   -2.491356
     34          6           0       -6.932615    0.951510    0.458255
     35          6           0       -4.806794   -0.103331   -0.496615
     36          6           0       -4.163734   -0.651559    0.802458
     37          6           0       -2.661614   -0.619512    0.752252
     38          6           0       -1.795155   -1.642292    0.779880
     39          6           0       -2.191032   -3.093876    0.901917
     40          6           0       -0.304695   -1.378439    0.699416
     41          6           0        0.353081   -1.846138   -0.623478
     42          6           0        1.839101   -1.617847   -0.631797
     43          6           0        2.564268   -0.815614   -1.424323
     44          6           0        1.992478    0.032243   -2.534483
     45          6           0        4.066509   -0.725915   -1.243594
     46          6           0        4.560071    0.636141   -0.693467
     47          6           0        6.057874    0.693192   -0.575229
     48          6           0        6.811241    0.819527    0.526586
     49          6           0        6.262143    0.963326    1.925238
     50          6           0        8.322804    0.838714    0.415907
     51          6           0        9.018364   -0.419032    0.995273
     52          6           0       10.517209   -0.324309    0.923072
     53          6           0       11.377003   -1.082498    0.227801
     54          6           0       10.977277   -2.252563   -0.637960
     55          6           0       12.864053   -0.796273    0.290344
     56          1           0      -17.645655   -1.585147   -0.735137
     57          1           0      -17.709142   -1.825146    1.016659
     58          1           0      -15.381695   -0.473512   -0.487685
     59          1           0      -12.987683   -1.560494    1.748746
     60          1           0      -13.263102   -0.860985    0.158554
     61          1           0      -13.207831   -3.138031   -0.862586
     62          1           0      -12.958684   -3.856524    0.717739
     63          1           0      -10.760641   -2.714202    0.982392
     64          1           0      -16.443086   -2.920572    2.174735
     65          1           0      -14.855451   -2.761473    2.934797
     66          1           0      -15.110643   -3.957563    1.669614
     67          1           0       -8.471208   -3.207247   -1.531905
     68          1           0       -8.708604   -2.613111    0.106217
     69          1           0       -9.047896   -0.296399   -0.787583
     70          1           0       -8.800992   -0.884120   -2.419899
     71          1           0       -6.455617   -1.582128   -1.885336
     72          1           0      -12.084382   -2.938601   -2.541794
     73          1           0      -10.491269   -3.509383   -3.055940
     74          1           0      -10.843695   -1.787166   -3.023234
     75          1           0       -8.020596    0.971451    0.412324
     76          1           0       -6.567972    1.956668    0.214546
     77          1           0       -6.650537    0.760975    1.499443
     78          1           0       -4.421710    0.910571   -0.673047
     79          1           0       -4.467620   -0.716722   -1.336602
     80          1           0       -4.541075   -1.660884    0.980380
     81          1           0       -4.497760   -0.041746    1.650610
     82          1           0       -2.238221    0.382158    0.669830
     83          1           0       -3.266648   -3.234340    1.001635
     84          1           0       -1.710022   -3.548153    1.776508
     85          1           0       -1.862763   -3.670667    0.030498
     86          1           0        0.199742   -1.883205    1.534922
     87          1           0       -0.114632   -0.308108    0.821263
     88          1           0       -0.138687   -1.339847   -1.456941
     89          1           0        0.163933   -2.918247   -0.756846
     90          1           0        2.382377   -2.182580    0.126640
     91          1           0        0.917631   -0.095475   -2.657399
     92          1           0        2.471924   -0.215609   -3.489027
     93          1           0        2.179883    1.096897   -2.358444
     94          1           0        4.560567   -0.910523   -2.207420
     95          1           0        4.401690   -1.515580   -0.564893
     96          1           0        4.071876    0.824008    0.265279
     97          1           0        4.232490    1.434855   -1.369980
     98          1           0        6.585492    0.607362   -1.525746
     99          1           0        5.173360    0.982300    1.956015
    100          1           0        6.627558    1.889544    2.384534
    101          1           0        6.596023    0.143013    2.569577
    102          1           0        8.713857    1.722870    0.937699
    103          1           0        8.612815    0.942473   -0.633686
    104          1           0        8.643039   -1.299893    0.469815
    105          1           0        8.726485   -0.536819    2.045935
    106          1           0       10.942908    0.485636    1.516273
    107          1           0        9.906829   -2.453772   -0.614793
    108          1           0       11.497343   -3.161757   -0.313635
    109          1           0       11.259511   -2.088030   -1.683370
    110          1           0       13.400086   -1.716523    0.560182
    111          1           0       13.064897   -0.073655    1.086531
    112          6           0       13.463132   -0.250336   -1.030426
    113          6           0       14.946884   -0.027446   -0.931642
    114          6           0       15.632782    1.121702   -1.012259
    115          6           0       15.008787    2.473650   -1.259625
    116          6           0       17.141153    1.118487   -0.863366
    117          6           0       17.650749    1.774550    0.444892
    118          6           0       19.152196    1.801863    0.521638
    119          6           0       19.962293    1.176985    1.388091
    120          6           0       19.487531    0.303812    2.524083
    121          6           0       21.465313    1.334810    1.272892
    122          6           0       22.205861    0.054090    0.812251
    123          6           0       23.697232    0.241585    0.772563
    124          6           0       24.519160    0.197600   -0.284538
    125          6           0       24.085873   -0.072901   -1.703590
    126          6           0       26.003216    0.421098   -0.120281
    127          1           0       12.934371    0.665824   -1.302441
    128          1           0       13.270540   -0.970318   -1.835105
    129          1           0       15.525240   -0.935556   -0.758551
    130          1           0       13.928961    2.426505   -1.396026
    131          1           0       15.441126    2.934273   -2.155840
    132          1           0       15.206911    3.160373   -0.429784
    133          1           0       17.591759    1.646157   -1.715022
    134          1           0       17.511627    0.090046   -0.902257
    135          1           0       17.212366    1.246795    1.294727
    136          1           0       17.280127    2.805548    0.495730
    137          1           0       19.628707    2.410457   -0.247517
    138          1           0       18.401813    0.241732    2.589627
    139          1           0       19.860908    0.687455    3.481021
    140          1           0       19.871163   -0.717359    2.426745
    141          1           0       21.873710    1.640929    2.245685
    142          1           0       21.697103    2.140551    0.570438
    143          1           0       21.811968   -0.248902   -0.160481
    144          1           0       21.974896   -0.762630    1.507009
    145          1           0       24.149379    0.452854    1.741862
    146          1           0       23.010066   -0.209649   -1.808229
    147          1           0       24.579438   -0.972090   -2.091347
    148          1           0       24.386174    0.752885   -2.359287
    149          1           0       26.272330    0.612595    0.920458
    150          1           0       26.341392    1.272559   -0.723047
    151          1           0       26.572239   -0.450774   -0.465063
 ---------------------------------------------------------------------

 SCF Done:  E(UB3LYP) =  -2528.65953952     A.U. after   18 cycles

 Alpha virt. eigenvalues --    0.47782   0.48319   0.48448   0.48829   0.49160
 Alpha virt. eigenvalues --    0.49518   0.49951   0.49978   0.50234   0.50602
 Alpha virt. eigenvalues --    0.50841   0.51035   0.51081   0.51204   0.51286

  Beta  occ. eigenvalues --  -19.06490 -19.06481 -10.21387 -10.21340 -10.17674
  Beta  occ. eigenvalues --  -10.17509 -10.17507 -10.17507 -10.17500 -10.17490
  Beta  occ. eigenvalues --  -10.17476 -10.17444 -10.17388 -10.17060 -10.17015
  Beta  occ. eigenvalues --  -10.17011 -10.16832 -10.16790 -10.16787 -10.16786
  Beta  occ. eigenvalues --  -10.16783 -10.16777 -10.16771 -10.16762 -10.16745
  Beta  occ. eigenvalues --  -10.16740 -10.16738 -10.16738 -10.16728 -10.16723
  Beta  occ. eigenvalues --  -10.16720 -10.16718 -10.16710 -10.16696 -10.16693
  Beta  occ. eigenvalues --  -10.16661 -10.16586 -10.16496 -10.16480 -10.16264
  Beta  occ. eigenvalues --  -10.16150 -10.16126 -10.16126 -10.16121 -10.16111
  Beta  occ. eigenvalues --  -10.16101 -10.16093 -10.16089 -10.16089 -10.16088
  Beta  occ. eigenvalues --  -10.16084 -10.16080 -10.16072 -10.16058 -10.16046
  Beta  occ. eigenvalues --  -10.16037 -10.16030 -10.16016 -10.16001 -10.15963
  Beta  occ. eigenvalues --  -10.15901 -10.15780 -10.15048  -0.98556  -0.98268
  Beta  occ. eigenvalues --   -0.85285  -0.83264  -0.83132  -0.82943  -0.82699
  Beta  occ. eigenvalues --   -0.82410  -0.82081  -0.81708  -0.81290  -0.80853
  Beta  occ. eigenvalues --   -0.80488  -0.80151  -0.77814  -0.77256  -0.76581
  Beta  occ. eigenvalues --   -0.75898  -0.75304  -0.74701  -0.74527  -0.74011
  Beta  occ. eigenvalues --   -0.73330  -0.72740  -0.72298  -0.72036  -0.69205
  Beta  occ. eigenvalues --   -0.68903  -0.68849  -0.68773  -0.68671  -0.68573
  Beta  occ. eigenvalues --   -0.68478  -0.68241  -0.67881  -0.67394  -0.66876
  Beta  occ. eigenvalues --   -0.65542  -0.64657  -0.64211  -0.63430  -0.62463
  Beta  occ. eigenvalues --   -0.61505  -0.60616  -0.59881  -0.59416  -0.59031
  Beta  occ. eigenvalues --   -0.58624  -0.58358  -0.57652  -0.54668  -0.52365
  Beta  occ. eigenvalues --   -0.52306  -0.52217  -0.52093  -0.51931  -0.51761
  Beta  occ. eigenvalues --   -0.51599  -0.51425  -0.51276  -0.51183  -0.50488
  Beta  occ. eigenvalues --   -0.48639  -0.47991  -0.47969  -0.47875  -0.47830
  Beta  occ. eigenvalues --   -0.47761  -0.47672  -0.47419  -0.46992  -0.46547
  Beta  occ. eigenvalues --   -0.46378  -0.45937  -0.44794  -0.44679  -0.44505
  Beta  occ. eigenvalues --   -0.44398  -0.44210  -0.43944  -0.43717  -0.43578
  Beta  occ. eigenvalues --   -0.43275  -0.43140  -0.43076  -0.42821  -0.42200
  Beta  occ. eigenvalues --   -0.41934  -0.41868  -0.41790  -0.41712  -0.41614
  Beta  occ. eigenvalues --   -0.41501  -0.41319  -0.41216  -0.41027  -0.40923
  Beta  occ. eigenvalues --   -0.40768  -0.40391  -0.40327  -0.40299  -0.40245
  Beta  occ. eigenvalues --   -0.40240  -0.40143  -0.39822  -0.39506  -0.39289
  Beta  occ. eigenvalues --   -0.39173  -0.38898  -0.38539  -0.38464  -0.37664
  Beta  occ. eigenvalues --   -0.37426  -0.37384  -0.37330  -0.37319  -0.37317
  Beta  occ. eigenvalues --   -0.37236  -0.37143  -0.37092  -0.37045  -0.37023
  Beta  occ. eigenvalues --   -0.36948  -0.36750  -0.36662  -0.36583  -0.36446
  Beta  occ. eigenvalues --   -0.36354  -0.36202  -0.36095  -0.35895  -0.35799
  Beta  occ. eigenvalues --   -0.35678  -0.35521  -0.35465  -0.35078  -0.34590
  Beta  occ. eigenvalues --   -0.34290  -0.33993  -0.33834  -0.33691  -0.33618
  Beta  occ. eigenvalues --   -0.33528  -0.33469  -0.33399  -0.33143  -0.32992
  Beta  occ. eigenvalues --   -0.32940  -0.32875  -0.32852  -0.32770  -0.32652
  Beta  occ. eigenvalues --   -0.32335  -0.31846  -0.31409  -0.31081  -0.30888
  Beta  occ. eigenvalues --   -0.25336  -0.25177  -0.24950  -0.24769  -0.24656
  Beta  occ. eigenvalues --   -0.24366  -0.24227  -0.23858  -0.23684  -0.23424
  Beta  occ. eigenvalues --   -0.23020  -0.22700  -0.22640  -0.22419  -0.22073
  Beta virt. eigenvalues --   -0.08167  -0.02340  -0.00981  -0.00896  -0.00775
  Beta virt. eigenvalues --   -0.00574  -0.00286  -0.00135   0.00038   0.00077
  Beta virt. eigenvalues --    0.00104   0.00202   0.00280   0.00307   0.00362

 Mulliken charges and spin densities:
               1          2
     1  C    0.145752   0.029524
     2  C   -0.498355   0.025555
     3  C   -0.429439   0.026945
     4  C   -0.135056   0.003069
     5  C    0.182324   0.015835
     6  C    0.029158   0.029205
     7  C   -0.752475   0.106128
     8  C    0.722051   0.103422
     9  C    0.824605   0.091210
    10  C   -0.875502   0.101505
    11  O   -0.477965   0.227901
    12  O   -0.455025   0.223156
    13  H    0.174788  -0.002183
    14  H    0.179429  -0.002197
    15  C   -0.500768  -0.001339
    16  H    0.168357  -0.002332
    17  H    0.165748  -0.002329
    18  H    0.175666   0.006447
    19  H    0.177106  -0.001888
    20  H    0.165794   0.004625
    21  C   -0.046791   0.012011
    22  C   -0.763521   0.003939
    23  C    0.971201   0.002385
    24  C   -0.753405  -0.000971
    25  C   -0.279732   0.000105
    26  C   -0.405775   0.000292
    27  C    0.657112  -0.000137
    28  C   -0.787288  -0.002696
    29  C   -0.525344   0.000124
    30  C   -0.241106  -0.000022
    31  C   -0.348894   0.000006
    32  C    0.497536   0.000007
    33  C   -0.696283  -0.000018
    34  C   -0.720241   0.000001
    35  C   -0.393972   0.000001
    36  C   -0.277418  -0.000001
    37  C   -0.331680   0.000000
    38  C    0.491826   0.000000
    39  C   -0.714826   0.000000
    40  C   -0.402111   0.000000
    41  C   -0.276614  -0.000000
    42  C   -0.330403   0.000000
    43  C    0.494107  -0.000000
    44  C   -0.714666  -0.000000
    45  C   -0.401498  -0.000000
    46  C   -0.278656  -0.000000
    47  C   -0.319588  -0.000000
    48  C    0.483704   0.000000
    49  C   -0.714718   0.000000
    50  C   -0.406068  -0.000000
    51  C   -0.279103   0.000000
    52  C   -0.310692  -0.000000
    53  C    0.505493   0.000000
    54  C   -0.719183   0.000000
    55  C   -0.433567  -0.000000
    56  H    0.210075   0.002882
    57  H    0.176159  -0.000092
    58  H    0.224917  -0.000382
    59  H    0.153470   0.000318
    60  H    0.131017  -0.000433
    61  H    0.151654   0.000084
    62  H    0.134638   0.000247
    63  H    0.182575  -0.000032
    64  H    0.107387   0.000247
    65  H    0.170788   0.000113
    66  H    0.171542  -0.000206
    67  H    0.137189  -0.000000
    68  H    0.177500   0.000000
    69  H    0.144186   0.000012
    70  H    0.127225   0.000001
    71  H    0.192986  -0.000000
    72  H    0.125687  -0.000039
    73  H    0.160695   0.000001
    74  H    0.169513  -0.000003
    75  H    0.132754  -0.000003
    76  H    0.162398   0.000000
    77  H    0.168678   0.000000
    78  H    0.139001   0.000000
    79  H    0.173088   0.000000
    80  H    0.134042  -0.000000
    81  H    0.128242  -0.000000
    82  H    0.192037  -0.000000
    83  H    0.132247   0.000000
    84  H    0.162090   0.000000
    85  H    0.168819  -0.000000
    86  H    0.139223   0.000000
    87  H    0.172921   0.000000
    88  H    0.135375  -0.000000
    89  H    0.128066   0.000000
    90  H    0.191151   0.000000
    91  H    0.131460   0.000000
    92  H    0.162432   0.000000
    93  H    0.169189   0.000000
    94  H    0.139344   0.000000
    95  H    0.174318  -0.000000
    96  H    0.135348  -0.000000
    97  H    0.128122  -0.000000
    98  H    0.192333  -0.000000
    99  H    0.131564  -0.000000
   100  H    0.162317   0.000000
   101  H    0.168612  -0.000000
   102  H    0.139294   0.000000
   103  H    0.173641   0.000000
   104  H    0.135816   0.000000
   105  H    0.128115   0.000000
   106  H    0.192220  -0.000000
   107  H    0.131228   0.000000
   108  H    0.162170   0.000000
   109  H    0.169646   0.000000
   110  H    0.141107  -0.000000
   111  H    0.168349   0.000000
   112  C   -0.255990   0.000000
   113  C   -0.410575   0.000000
   114  C    0.539581  -0.000000
   115  C   -0.709297  -0.000000
   116  C   -0.392142   0.000000
   117  C   -0.200803  -0.000000
   118  C   -0.198616   0.000000
   119  C    0.451021  -0.000000
   120  C   -0.751653   0.000000
   121  C   -0.583744   0.000000
   122  C   -0.253349  -0.000000
   123  C    0.040714   0.000000
   124  C    0.272385   0.000000
   125  C   -0.685708  -0.000000
   126  C   -0.622479  -0.000000
   127  H    0.131575   0.000000
   128  H    0.129257  -0.000000
   129  H    0.186902   0.000000
   130  H    0.132678   0.000000
   131  H    0.162512   0.000000
   132  H    0.168019   0.000000
   133  H    0.134730   0.000000
   134  H    0.179373  -0.000000
   135  H    0.142173  -0.000000
   136  H    0.124346  -0.000000
   137  H    0.206417   0.000000
   138  H    0.128584  -0.000000
   139  H    0.163608   0.000000
   140  H    0.170321   0.000000
   141  H    0.137623  -0.000000
   142  H    0.164714  -0.000000
   143  H    0.134755  -0.000000
   144  H    0.124894   0.000000
   145  H    0.193099  -0.000000
   146  H    0.140749  -0.000000
   147  H    0.145926   0.000000
   148  H    0.148378   0.000000
   149  H    0.151468   0.000000
   150  H    0.151429  -0.000000
   151  H    0.147136  -0.000000
 Sum of Mulliken charges =  -1.00000   1.00000

 Dipole moment (field-independent basis, Debye):
    X=             88.3205    Y=             -8.1554    Z=             -1.5678  Tot=             88.7101
 Quadrupole moment (field-independent basis, Debye-Ang):
   XX=          -2024.4910   YY=           -416.9943   ZZ=           -423.9295
   XY=            149.5970   XZ=             28.4002   YZ=            -18.5312

 Normal termination of Gaussian 16 at Sun Jan 28 06:32:34 2024.
