 Gaussian 16, Revision A.03,
 Gaussian 16:  ES64L-G16RevA.03 25-Dec-2016

 ----------------------------------------------------------------------
 #P UB3LYP/6-311++G(d,p) nosym opt freq SCRF=(PCM,Solvent=n,n-DiMethylF
 ormamide)
 ----------------------------------------------------------------------

 -------
 Radical
 -------
 Symbolic Z-matrix:
 Charge = -1 Multiplicity = 2

 SCF Done:  E(UB3LYP) =  -766.979113375     A.U. after   19 cycles
 SCF Done:  E(UB3LYP) =  -766.979193633     A.U. after   13 cycles
 SCF Done:  E(UB3LYP) =  -766.979178870     A.U. after   12 cycles
 SCF Done:  E(UB3LYP) =  -766.979192392     A.U. after   11 cycles
 SCF Done:  E(UB3LYP) =  -766.979195810     A.U. after   12 cycles
 SCF Done:  E(UB3LYP) =  -766.979197085     A.U. after   11 cycles
 Optimization completed.
    -- Stationary point found.
 Normal termination of Gaussian 16 at Sat Feb 10 18:48:04 2024.

 ----------------------------------------------------------------------
 #P Geom=AllCheck Guess=TCheck SCRF=Check GenChk UB3LYP/6-311++G(d,p) F
 req
 ----------------------------------------------------------------------

 Structure from the checkpoint file:  "042-rad.chk"
 -------
 Radical
 -------
 Charge = -1 Multiplicity = 2

                          Input orientation:
 ---------------------------------------------------------------------
 Center     Atomic      Atomic             Coordinates (Angstroms)
 Number     Number       Type             X           Y           Z
 ---------------------------------------------------------------------
      1          6           0        1.101016    1.381289   -1.356472
      2          6           0       -0.153024    0.678726   -1.434549
      3          6           0       -0.469642   -0.398405   -0.644539
      4          6           0        0.481039   -0.881542    0.346219
      5          6           0        1.757657   -0.173702    0.441045
      6          6           0        2.055776    0.905673   -0.365320
      7          6           0        3.375585    1.626276   -0.249213
      8          6           0        2.752509   -0.665532    1.463587
      9          8           0        1.345613    2.369975   -2.122073
     10          8           0        0.218335   -1.869054    1.098993
     11          1           0       -0.864210    1.042280   -2.171931
     12          1           0        4.216998    0.968026   -0.494551
     13          1           0        3.548382    1.988538    0.769910
     14          1           0        3.398269    2.477493   -0.928561
     15          1           0        2.365661   -1.546621    1.973333
     16          1           0        2.966310    0.101688    2.216692
     17          1           0        3.710681   -0.923194    0.999328
     18          6           0       -1.806000   -1.072150   -0.849030
     19          6           0       -1.749897   -2.557649   -1.193554
     20          8           0       -2.599708   -0.890882    0.383773
     21          6           0       -3.922924   -0.715695    0.273602
     22          6           0       -4.560412   -0.521056    1.625884
     23          8           0       -4.526715   -0.706800   -0.782081
     24          1           0       -2.340831   -0.542180   -1.636906
     25          1           0       -2.757650   -2.951428   -1.345353
     26          1           0       -1.251731   -3.114211   -0.401623
     27          1           0       -1.190846   -2.690356   -2.123920
     28          1           0       -4.289904   -1.342851    2.291525
     29          1           0       -5.642056   -0.466705    1.521411
     30          1           0       -4.189231    0.402949    2.075820
 ---------------------------------------------------------------------

 SCF Done:  E(UB3LYP) =  -766.979197085     A.U. after    1 cycles

 Alpha  occ. eigenvalues --  -19.16372 -19.11493 -19.07235 -19.07119 -10.30715
 Alpha  occ. eigenvalues --  -10.23215 -10.21686 -10.21376 -10.17625 -10.16918
 Alpha  occ. eigenvalues --  -10.16603 -10.16522 -10.15986 -10.15624 -10.15232
 Alpha  occ. eigenvalues --  -10.15161  -1.10574  -1.02117  -0.99286  -0.98921
 Alpha  occ. eigenvalues --   -0.83148  -0.80173  -0.75993  -0.73342  -0.72091
 Alpha  occ. eigenvalues --   -0.67128  -0.66108  -0.63192  -0.57207  -0.56595
 Alpha  occ. eigenvalues --   -0.53308  -0.50141  -0.48532  -0.47990  -0.47513
 Alpha  occ. eigenvalues --   -0.44953  -0.43724  -0.43120  -0.42104  -0.41165
 Alpha  occ. eigenvalues --   -0.41051  -0.39795  -0.39373  -0.39195  -0.38729
 Alpha  occ. eigenvalues --   -0.38350  -0.38096  -0.37396  -0.36704  -0.36001
 Alpha  occ. eigenvalues --   -0.34748  -0.34327  -0.33704  -0.30736  -0.28636
 Alpha  occ. eigenvalues --   -0.27441  -0.23987  -0.23951  -0.23115  -0.15836
 Alpha virt. eigenvalues --   -0.00869  -0.00616  -0.00006   0.00210   0.01233
 Alpha virt. eigenvalues --    0.01486   0.02555   0.02742   0.03026   0.03604
 Alpha virt. eigenvalues --    0.03800   0.04590   0.04948   0.05127   0.05561

  Beta  occ. eigenvalues --  -19.16362 -19.11492 -19.06528 -19.06435 -10.30714
  Beta  occ. eigenvalues --  -10.23223 -10.21543 -10.21224 -10.17624 -10.16786
  Beta  occ. eigenvalues --  -10.16516 -10.16448 -10.15851 -10.15620 -10.15238
  Beta  occ. eigenvalues --  -10.15169  -1.10562  -1.02100  -0.98095  -0.97666
  Beta  occ. eigenvalues --   -0.82639  -0.80037  -0.75831  -0.73260  -0.71816
  Beta  occ. eigenvalues --   -0.66904  -0.65488  -0.62912  -0.57050  -0.56237
  Beta  occ. eigenvalues --   -0.53058  -0.50097  -0.48428  -0.47802  -0.47483
  Beta  occ. eigenvalues --   -0.44686  -0.43406  -0.42666  -0.42020  -0.41062
  Beta  occ. eigenvalues --   -0.40768  -0.39651  -0.38963  -0.38862  -0.38552
  Beta  occ. eigenvalues --   -0.38127  -0.37650  -0.36646  -0.36271  -0.34606
  Beta  occ. eigenvalues --   -0.34144  -0.33602  -0.33363  -0.30700  -0.28592
  Beta  occ. eigenvalues --   -0.24488  -0.23333  -0.22920  -0.22499
  Beta virt. eigenvalues --   -0.08605  -0.00602  -0.00317   0.00218   0.00800
  Beta virt. eigenvalues --    0.01277   0.01536   0.02597   0.03045   0.03305
  Beta virt. eigenvalues --    0.03807   0.04451   0.04756   0.05132   0.05382

 Mulliken charges and spin densities:
               1          2
     1  C   -0.792146   0.109332
     2  C   -0.346233   0.065159
     3  C    1.102916   0.097012
     4  C   -0.768353   0.082770
     5  C    0.347963   0.056184
     6  C    0.674857   0.084764
     7  C   -0.418245   0.009322
     8  C   -0.564655  -0.009873
     9  O   -0.509298   0.250145
    10  O   -0.465414   0.250066
    11  H    0.176615  -0.010115
    12  H    0.154917   0.002567
    13  H    0.148284   0.002172
    14  H    0.181494  -0.001823
    15  H    0.182376  -0.001220
    16  H    0.151309   0.003027
    17  H    0.148433   0.002779
    18  C   -0.554006  -0.004009
    19  C   -0.583384   0.008911
    20  O    0.106235   0.001339
    21  C    0.301520   0.001988
    22  C   -0.564796  -0.000029
    23  O   -0.361060   0.000345
    24  H    0.208073  -0.000766
    25  H    0.160016   0.000935
    26  H    0.200281  -0.001451
    27  H    0.143657   0.000315
    28  H    0.180024  -0.000002
    29  H    0.171185   0.000086
    30  H    0.187435   0.000071
 Sum of Mulliken charges =  -1.00000   1.00000

 Dipole moment (field-independent basis, Debye):
    X=             -0.4419    Y=             -1.5654    Z=              4.5854  Tot=              4.8654
 Quadrupole moment (field-independent basis, Debye-Ang):
   XX=           -114.7218   YY=           -121.5510   ZZ=           -112.9623
   XY=             -8.8942   XZ=             -3.7875   YZ=             19.1483

  Exact polarizability: 249.901  36.786 244.061   7.949 -63.940 226.510
 Approx polarizability: 248.638  35.652 275.804   7.874 -79.960 255.860

                      1                      2                      3
                      A                      A                      A
 Frequencies --     19.8142                33.6321                42.1889
 Red. masses --      1.1306                 5.2353                 4.5308
 Frc consts  --      0.0003                 0.0035                 0.0048
 IR Inten    --      1.8067                 0.4471                 1.0632

                      4                      5                      6
                      A                      A                      A
 Frequencies --     56.1425                68.8193               101.1125
 Red. masses --      3.5922                 1.0937                 3.6597
 Frc consts  --      0.0067                 0.0031                 0.0220
 IR Inten    --      6.3119                 0.3452                 9.7555

                      7                      8                      9
                      A                      A                      A
 Frequencies --    119.0033               127.9821               133.4363
 Red. masses --      1.1885                 3.3356                 3.0993
 Frc consts  --      0.0099                 0.0322                 0.0325
 IR Inten    --      1.8344                13.2694                 1.8729

                     10                     11                     12
                      A                      A                      A
 Frequencies --    174.1012               200.4618               222.6676
 Red. masses --      3.5149                 2.2823                 1.7109
 Frc consts  --      0.0628                 0.0540                 0.0500
 IR Inten    --      6.2077                 5.0382                 3.1466

                     13                     14                     15
                      A                      A                      A
 Frequencies --    235.8792               270.1714               286.0294
 Red. masses --      3.4890                 4.1533                 3.7420
 Frc consts  --      0.1144                 0.1786                 0.1804
 IR Inten    --      0.2143                 1.7824                 1.5417

                     16                     17                     18
                      A                      A                      A
 Frequencies --    319.9872               333.8873               368.7455
 Red. masses --      2.5718                 3.8705                 3.9134
 Frc consts  --      0.1552                 0.2542                 0.3135
 IR Inten    --      0.8956                 4.6373                 5.1570

                     19                     20                     21
                      A                      A                      A
 Frequencies --    400.6896               463.1958               476.1643
 Red. masses --      8.7938                 4.6538                 4.5026
 Frc consts  --      0.8318                 0.5883                 0.6015
 IR Inten    --     40.1634                 4.5975                13.7905

                     22                     23                     24
                      A                      A                      A
 Frequencies --    481.3410               493.8334               548.7188
 Red. masses --      5.8683                 4.2080                 3.4883
 Frc consts  --      0.8011                 0.6046                 0.6188
 IR Inten    --      3.8690                 2.4806                 1.8153

                     25                     26                     27
                      A                      A                      A
 Frequencies --    576.4536               617.1643               641.0457
 Red. masses --      5.2069                 2.7567                 4.4242
 Frc consts  --      1.0194                 0.6186                 1.0712
 IR Inten    --     21.7407                12.1622                 6.9795

                     28                     29                     30
                      A                      A                      A
 Frequencies --    667.0063               696.4770               732.8999
 Red. masses --      3.9407                 4.5479                 4.2788
 Frc consts  --      1.0330                 1.2998                 1.3541
 IR Inten    --      3.8816                 4.6134                62.9259

                     31                     32                     33
                      A                      A                      A
 Frequencies --    776.0952               829.4021               863.6308
 Red. masses --      5.7367                 3.0393                 2.6140
 Frc consts  --      2.0358                 1.2318                 1.1487
 IR Inten    --      8.7065                60.7408                37.5878

                     34                     35                     36
                      A                      A                      A
 Frequencies --    883.7059               912.6203               949.3594
 Red. masses --      1.5854                 2.7276                 5.0283
 Frc consts  --      0.7295                 1.3385                 2.6701
 IR Inten    --     26.2721                 6.3564                65.9527

                     37                     38                     39
                      A                      A                      A
 Frequencies --    974.4198              1022.6298              1023.6706
 Red. masses --      1.6639                 1.6360                 1.6052
 Frc consts  --      0.9308                 1.0080                 0.9911
 IR Inten    --     20.1980                 4.5027                 9.3921

                     40                     41                     42
                      A                      A                      A
 Frequencies --   1032.3037              1056.1335              1061.7711
 Red. masses --      2.3151                 1.5458                 1.8064
 Frc consts  --      1.4536                 1.0159                 1.1998
 IR Inten    --    235.7622                 0.1962                12.2668

                     43                     44                     45
                      A                      A                      A
 Frequencies --   1073.0123              1107.2232              1110.9809
 Red. masses --      1.9030                 2.5917                 2.2884
 Frc consts  --      1.2909                 1.8720                 1.6642
 IR Inten    --     88.4850                70.4259                20.9743

                     46                     47                     48
                      A                      A                      A
 Frequencies --   1152.6426              1212.9081              1228.3778
 Red. masses --      3.1533                 1.6810                 5.6716
 Frc consts  --      2.4683                 1.4570                 5.0422
 IR Inten    --     95.5066                77.4719                 7.4925

                     49                     50                     51
                      A                      A                      A
 Frequencies --   1262.5061              1322.3121              1364.7570
 Red. masses --      3.6085                 3.0275                 1.4812
 Frc consts  --      3.3888                 3.1189                 1.6255
 IR Inten    --    624.3563                 6.9996                37.5554

                     52                     53                     54
                      A                      A                      A
 Frequencies --   1373.0963              1384.7954              1387.6960
 Red. masses --      1.1812                 1.3182                 1.3033
 Frc consts  --      1.3121                 1.4894                 1.4787
 IR Inten    --      2.3967                 9.7248                34.2540

                     55                     56                     57
                      A                      A                      A
 Frequencies --   1390.6991              1395.7164              1428.1076
 Red. masses --      1.3014                 1.3644                 3.1258
 Frc consts  --      1.4829                 1.5660                 3.7561
 IR Inten    --     35.8115                70.1871               128.2768

                     58                     59                     60
                      A                      A                      A
 Frequencies --   1459.5658              1465.5519              1466.6578
 Red. masses --      1.0568                 1.0463                 1.3036
 Frc consts  --      1.3265                 1.3241                 1.6521
 IR Inten    --     30.5132                15.6396                 3.2670

                     61                     62                     63
                      A                      A                      A
 Frequencies --   1472.6738              1476.4554              1479.2807
 Red. masses --      1.5024                 2.1693                 1.2466
 Frc consts  --      1.9198                 2.7862                 1.6072
 IR Inten    --     18.7822               702.3245                12.7765

                     64                     65                     66
                      A                      A                      A
 Frequencies --   1481.1846              1488.7478              1494.0996
 Red. masses --      1.0731                 1.2479                 1.0506
 Frc consts  --      1.3871                 1.6295                 1.3817
 IR Inten    --      3.0126                25.6970                25.4771

                     67                     68                     69
                      A                      A                      A
 Frequencies --   1499.1052              1528.9943              1636.2274
 Red. masses --      2.6081                 5.5930                 7.6108
 Frc consts  --      3.4533                 7.7038                12.0051
 IR Inten    --    518.6496                44.2330                19.1179

                     70                     71                     72
                      A                      A                      A
 Frequencies --   1725.2872              3008.5002              3010.2621
 Red. masses --     10.5932                 1.0410                 1.0419
 Frc consts  --     18.5781                 5.5515                 5.5629
 IR Inten    --    603.2043               124.6947                17.9530

                     73                     74                     75
                      A                      A                      A
 Frequencies --   3036.3524              3045.0925              3050.7062
 Red. masses --      1.0370                 1.0987                 1.0989
 Frc consts  --      5.6329                 6.0024                 6.0256
 IR Inten    --     36.0083                78.9812                 2.9328

                     76                     77                     78
                      A                      A                      A
 Frequencies --   3050.8586              3091.6356              3095.9260
 Red. masses --      1.0367                 1.0856                 1.1012
 Frc consts  --      5.6851                 6.1138                 6.2185
 IR Inten    --      2.9959                 9.0782                52.1160

                     79                     80                     81
                      A                      A                      A
 Frequencies --   3112.7740              3122.2388              3123.3209
 Red. masses --      1.0998                 1.0954                 1.0956
 Frc consts  --      6.2784                 6.2918                 6.2968
 IR Inten    --      7.1541                11.4362                18.5418

                     82                     83                     84
                      A                      A                      A
 Frequencies --   3139.4292              3141.0776              3152.4390
 Red. masses --      1.0959                 1.0942                 1.1036
 Frc consts  --      6.3636                 6.3606                 6.4619
 IR Inten    --      2.9710                46.4015                15.9319

 - Thermochemistry -
 -------------------
 Temperature   298.150 Kelvin.  Pressure   1.00000 Atm.
 Atom     1 has atomic number  6 and mass  12.00000

 Molecular mass:   222.08921 amu.
 Principal axes and moments of inertia in atomic units:
                           1         2         3
     Eigenvalues --  1933.034116037.681126873.99654
           X            0.94946   0.26820  -0.16310
           Y            0.30508  -0.66609   0.68063
           Z           -0.07390   0.69599   0.71424
 This molecule is an asymmetric top.
 Rotational symmetry number  1.
 Warning -- assumption of classical behavior for rotation
           may cause significant error
 Rotational temperatures (Kelvin)      0.04481     0.01435     0.01260
 Rotational constants (GHZ):           0.93363     0.29891     0.26255
 Zero-point vibrational energy     618134.8 (Joules/Mol)
                                  147.73776 (Kcal/Mol)
 Warning -- explicit consideration of  26 degrees of freedom as
           vibrations may cause significant error
 Vibrational temperatures:     28.51    48.39    60.70    80.78    99.02
          (Kelvin)            145.48   171.22   184.14   191.99   250.49
                              288.42   320.37   339.38   388.72   411.53
                              460.39   480.39   530.54   576.50   666.44
                              685.09   692.54   710.52   789.48   829.39
                              887.96   922.32   959.67  1002.08  1054.48
                             1116.63  1193.32  1242.57  1271.46  1313.06
                             1365.92  1401.97  1471.34  1472.83  1485.25
                             1519.54  1527.65  1543.83  1593.05  1598.45
                             1658.40  1745.10  1767.36  1816.46  1902.51
                             1963.58  1975.58  1992.41  1996.59  2000.91
                             2008.12  2054.73  2099.99  2108.60  2110.19
                             2118.85  2124.29  2128.35  2131.09  2141.98
                             2149.68  2156.88  2199.88  2354.17  2482.30
                             4328.56  4331.10  4368.63  4381.21  4389.29
                             4389.51  4448.17  4454.35  4478.59  4492.21
                             4493.76  4516.94  4519.31  4535.66

 Zero-point correction=                           0.235435 (Hartree/Particle)
 Thermal correction to Energy=                    0.252604
 Thermal correction to Enthalpy=                  0.253548
 Thermal correction to Gibbs Free Energy=         0.187711
 Sum of electronic and zero-point Energies=           -766.743762
 Sum of electronic and thermal Energies=              -766.726593
 Sum of electronic and thermal Enthalpies=            -766.725649
 Sum of electronic and thermal Free Energies=         -766.791486

                     E (Thermal)             CV                S
                      KCal/Mol        Cal/Mol-Kelvin    Cal/Mol-Kelvin
 Total                  158.512             61.296            138.567
 Electronic               0.000              0.000              1.377
 Translational            0.889              2.981             42.096
 Rotational               0.889              2.981             32.750
 Vibrational            156.734             55.334             62.343
 Vibration     1          0.593              1.986              6.653
 Vibration     2          0.594              1.983              5.603
 Vibration     3          0.595              1.980              5.154
 Vibration     4          0.596              1.975              4.588
 Vibration     5          0.598              1.969              4.187
 Vibration     6          0.604              1.948              3.433
 Vibration     7          0.609              1.933              3.116
 Vibration     8          0.611              1.925              2.976
 Vibration     9          0.613              1.920              2.896
 Vibration    10          0.627              1.874              2.391
 Vibration    11          0.638              1.839              2.129
 Vibration    12          0.648              1.807              1.937
 Vibration    13          0.655              1.786              1.834
 Vibration    14          0.674              1.728              1.595
 Vibration    15          0.684              1.700              1.497
 Vibration    16          0.706              1.635              1.310
 Vibration    17          0.715              1.608              1.241
 Vibration    18          0.741              1.536              1.085
 Vibration    19          0.767              1.469              0.960
 Vibration    20          0.821              1.332              0.757
 Vibration    21          0.833              1.303              0.720
 Vibration    22          0.838              1.291              0.706
 Vibration    23          0.849              1.264              0.674
 Vibration    24          0.904              1.142              0.547
 Vibration    25          0.933              1.082              0.492
 Vibration    26          0.977              0.996              0.421

                           ! Non-Optimized Parameters !
 Normal termination of Gaussian 16 at Sat Feb 10 19:17:24 2024.
