 Q-Chem 5.4, Q-Chem, Inc., Pleasanton, CA (2021)
 Q-Chem 5.4.0 for Intel X86 EM64T Linux

User input:
--------------------------------------------------------------
$molecule
-2 1
O                  2.5529960000      2.5235070000     -0.2097480000
C                  2.4983150000      1.2393410000      0.0160680000
C                  3.6467830000      0.4663330000      0.2649630000
C                  3.5680080000     -0.9241390000      0.5084180000
C                  2.3577600000     -1.5861460000      0.5124630000
C                  1.1488080000     -0.8770380000      0.2689640000
C                 -0.1123590000     -1.6087610000      0.2801920000
O                 -0.1703810000     -2.8656320000      0.5021280000
C                 -1.2984070000     -0.8139980000      0.0228590000
C                 -2.5691730000     -1.4314120000      0.0120430000
C                 -3.7361590000     -0.7304130000     -0.2268940000
C                 -3.6654830000      0.6731780000     -0.4734960000
C                 -2.4506130000      1.3170140000     -0.4728080000
C                 -1.2259140000      0.6168880000     -0.2285160000
C                  0.0120610000      1.2699700000     -0.2276290000
O                  0.0605170000      2.6275040000     -0.4687300000
C                  1.2018010000      0.5399740000      0.0182630000
H                  1.0555990000      2.8322270000     -0.4093260000
H                  4.6053770000      0.9808530000      0.2638590000
H                  4.4879910000     -1.4799120000      0.6963570000
H                  2.2811470000     -2.6512650000      0.6975850000
H                 -2.5830140000     -2.5004590000      0.2037240000
H                 -4.6983350000     -1.2386380000     -0.2277620000
H                 -4.5779980000      1.2369450000     -0.6632700000
H                 -2.3893270000      2.3840790000     -0.6597080000
$end
$rem
MAX_SCF_CYCLES=200
BASIS  =  6-311++G(d,p)
GUI  =  2
JOB_TYPE  =  SP
METHOD  =  B3LYP
SOLVENT_METHOD = PCM
$end
$pcm
theory = CPCM
$end
$solvent
dielectric 37.219
opticaldielectric 1.43
$end

--------------------------------------------------------------

             Standard Nuclear Orientation (Angstroms)
    I     Atom           X                Y                Z
 ----------------------------------------------------------------
    1      O       2.5529960000     2.5235070000    -0.2097480000
    2      C       2.4983150000     1.2393410000     0.0160680000
    3      C       3.6467830000     0.4663330000     0.2649630000
    4      C       3.5680080000    -0.9241390000     0.5084180000
    5      C       2.3577600000    -1.5861460000     0.5124630000
    6      C       1.1488080000    -0.8770380000     0.2689640000
    7      C      -0.1123590000    -1.6087610000     0.2801920000
    8      O      -0.1703810000    -2.8656320000     0.5021280000
    9      C      -1.2984070000    -0.8139980000     0.0228590000
   10      C      -2.5691730000    -1.4314120000     0.0120430000
   11      C      -3.7361590000    -0.7304130000    -0.2268940000
   12      C      -3.6654830000     0.6731780000    -0.4734960000
   13      C      -2.4506130000     1.3170140000    -0.4728080000
   14      C      -1.2259140000     0.6168880000    -0.2285160000
   15      C       0.0120610000     1.2699700000    -0.2276290000
   16      O       0.0605170000     2.6275040000    -0.4687300000
   17      C       1.2018010000     0.5399740000     0.0182630000
   18      H       1.0555990000     2.8322270000    -0.4093260000
   19      H       4.6053770000     0.9808530000     0.2638590000
   20      H       4.4879910000    -1.4799120000     0.6963570000
   21      H       2.2811470000    -2.6512650000     0.6975850000
   22      H      -2.5830140000    -2.5004590000     0.2037240000
   23      H      -4.6983350000    -1.2386380000    -0.2277620000
   24      H      -4.5779980000     1.2369450000    -0.6632700000
   25      H      -2.3893270000     2.3840790000    -0.6597080000
 ----------------------------------------------------------------

    9    -764.4699901512      4.00e-06  Convergence criterion met
 Total energy in the final basis set =     -764.4699901512

                    Orbital Energies (a.u.)
 --------------------------------------------------------------

 Alpha MOs
 -- Occupied --
-19.0982 -19.0518 -19.0347 -10.1999 -10.1904 -10.1891 -10.1567 -10.1546
-10.1530 -10.1525 -10.1523 -10.1498 -10.1467 -10.1443 -10.1421 -10.1317
-10.1285  -1.0135  -0.9591  -0.9552  -0.8367  -0.8116  -0.7630  -0.7338
 -0.7109  -0.6997  -0.6498  -0.6104  -0.5974  -0.5547  -0.5447  -0.5084
 -0.4960  -0.4814  -0.4481  -0.4382  -0.4340  -0.4188  -0.4046  -0.3992
 -0.3892  -0.3870  -0.3752  -0.3606  -0.3588  -0.3523  -0.3481  -0.3265
 -0.3231  -0.3205  -0.3087  -0.2890  -0.2540  -0.2377  -0.2292  -0.2212
 -0.2074  -0.1859  -0.1242

          Ground-State Mulliken Net Atomic Charges

     Atom                 Charge (a.u.)
  ----------------------------------------
      1 O                    -0.662262
      2 C                    -0.374944
      3 C                    -0.308959
      4 C                    -0.389325
      5 C                    -0.229971
      6 C                     0.494634
      7 C                    -0.328922
      8 O                    -0.641999
      9 C                    -0.062622
     10 C                    -0.048417
     11 C                    -0.515047
     12 C                    -0.452509
     13 C                    -0.162743
     14 C                     0.165129
     15 C                    -0.022749
     16 O                    -0.531548
     17 C                     0.540898
     18 H                     0.407239
     19 H                     0.152231
     20 H                     0.171703
     21 H                     0.133823
     22 H                     0.149953
     23 H                     0.178398
     24 H                     0.178688
     25 H                     0.159321
  ----------------------------------------
  Sum of atomic charges =    -2.000000

                    Cartesian Multipole Moments
 -----------------------------------------------------------------
    Charge (ESU x 10^10)
                -9.6064
    Dipole Moment (Debye)
         X      -6.7054      Y       0.1663      Z      -0.6792
       Tot       6.7417
    Quadrupole Moments (Debye-Ang)
        XX    -139.1602     XY     -16.0855     YY    -159.3074
        XZ       0.1754     YZ       7.1879     ZZ    -112.2209

 Total job time:  78.75s(wall), 299.06s(cpu)
        *  Thank you very much for using Q-Chem.  Have a nice day.  *
