 Q-Chem 5.4, Q-Chem, Inc., Pleasanton, CA (2021)
 Q-Chem 5.4.0 for Intel X86 EM64T Linux

User input:
--------------------------------------------------------------
$molecule
0 1
C                 -4.0181030000     -1.0125070000      0.2426710000
C                 -2.6458070000     -0.3912100000      0.2517410000
C                 -2.4780770000      0.9757790000      0.4283140000
C                 -3.6625720000      1.8878780000      0.6138450000
C                 -1.1677720000      1.5330170000      0.4433040000
O                 -1.0587590000      2.8555410000      0.6301370000
C                 -0.0391450000      0.7164720000      0.2674820000
C                  1.2916810000      1.3121980000      0.2831330000
O                  1.4590050000      2.5342050000      0.4506480000
C                  2.4626090000      0.4219690000      0.0926280000
C                  3.7507060000      0.9672580000      0.1027000000
C                  4.8568900000      0.1454050000     -0.0745750000
C                  4.6873430000     -1.2295350000     -0.2637020000
C                  3.4118650000     -1.7804770000     -0.2752040000
C                  2.2920450000     -0.9612770000     -0.0975890000
C                  0.9369920000     -1.5641620000     -0.1123950000
O                  0.8024000000     -2.7899230000     -0.2819480000
C                 -0.2120360000     -0.6863030000      0.0754660000
C                 -1.5077770000     -1.2270240000      0.0675560000
O                 -1.7236490000     -2.5374270000     -0.1116250000
H                 -3.9555300000     -2.0973320000      0.2874700000
H                 -4.5605890000     -0.7445740000     -0.6709860000
H                 -4.6156190000     -0.6583750000      1.0863620000
H                 -4.1246090000      1.7312010000      1.5950410000
H                 -3.3651930000      2.9318790000      0.5478150000
H                 -4.4311480000      1.6917660000     -0.1379220000
H                 -0.0887890000      3.0684690000      0.6074950000
H                  3.8594480000      2.0342670000      0.2506230000
H                  5.8533980000      0.5720650000     -0.0661310000
H                  5.5525170000     -1.8679440000     -0.4017140000
H                  3.2580700000     -2.8423700000     -0.4199260000
H                 -0.8319940000     -2.9621270000     -0.2178650000
$end
$rem
MAX_SCF_CYCLES=200
BASIS  =  6-311++G(d,p)
GUI  =  2
JOB_TYPE  =  SP
METHOD  =  B3LYP
SOLVENT_METHOD = COSMO
$end
$solvent
dielectric 37.219
opticaldielectric 1.43
$end

--------------------------------------------------------------

             Standard Nuclear Orientation (Angstroms)
    I     Atom           X                Y                Z
 ----------------------------------------------------------------
    1      C       4.1345410044    -1.4728155762    -0.0117371099
    2      C       2.8449530578    -0.6942243333    -0.0048710158
    3      C       2.8449858573     0.6942536165     0.0050931770
    4      C       4.1347163628     1.4726557015     0.0128494711
    5      C       1.6100291580     1.4031238964     0.0003016509
    6      O       1.6639558849     2.7421312105    -0.0030829653
    7      C       0.3871201804     0.7132320024    -0.0006066857
    8      C      -0.8637921049     1.4625313772    -0.0016857909
    9      O      -0.8803289273     2.7071533249    -0.0032494261
   10      C      -2.1379502901     0.7033264015    -0.0007199925
   11      C      -3.3525791901     1.3970928242    -0.0011739317
   12      C      -4.5539402709     0.6990652734    -0.0002185197
   13      C      -4.5539318735    -0.6991382893     0.0011985687
   14      C      -3.3525472258    -1.3971270252     0.0016043181
   15      C      -2.1379453993    -0.7033157689     0.0006533634
   16      C      -0.8637675569    -1.4624789573     0.0011563857
   17      O      -0.8802394436    -2.7070994477     0.0024856967
   18      C       0.3871057489    -0.7131406279    -0.0000945803
   19      C       1.6099754702    -1.4030505836    -0.0007306554
   20      O       1.6638646022    -2.7420609100     0.0024127358
   21      H       3.9532642749    -2.5261485097    -0.2127248953
   22      H       4.6396608900    -1.3977221301     0.9578314239
   23      H       4.8247729330    -1.0836681895    -0.7643283293
   24      H       4.6425092892     1.3943015145    -0.9550236752
   25      H       3.9531310409     2.5266141626     0.2101579903
   26      H       4.8227488520     1.0856915530     0.7686223525
   27      H       0.7249379677     3.0660689276    -0.0015015014
   28      H      -3.3298731511     2.4795426360    -0.0022147379
   29      H      -5.4930241399     1.2405997951    -0.0005341464
   30      H      -5.4930080612    -1.2406867977     0.0019337503
   31      H      -3.3297979363    -2.4795759348     0.0025691038
   32      H       0.7248235423    -3.0659500386     0.0005724160
 ----------------------------------------------------------------

    9    -918.1276714834      5.86e-06  Convergence criterion met
 Total energy in the final basis set =     -918.1276714834
    5    -918.1409968419      2.21e-06  Convergence criterion met
 Total energy in the final basis set =     -918.1409968419

                    Orbital Energies (a.u.)
 --------------------------------------------------------------

 Alpha MOs
 -- Occupied --
-19.1618 -19.1618 -19.1361 -19.1361 -10.2856 -10.2855 -10.2643 -10.2643
-10.2090 -10.2087 -10.2085 -10.2081 -10.2050 -10.2045 -10.1968 -10.1966
-10.1962 -10.1960 -10.1704 -10.1704  -1.0922  -1.0905  -1.0585  -1.0572
 -0.8946  -0.8792  -0.8298  -0.7842  -0.7809  -0.7721  -0.7346  -0.7108
 -0.6780  -0.6493  -0.6463  -0.6306  -0.5992  -0.5688  -0.5542  -0.5381
 -0.5348  -0.5033  -0.4919  -0.4810  -0.4734  -0.4655  -0.4598  -0.4511
 -0.4499  -0.4441  -0.4372  -0.4319  -0.4212  -0.4116  -0.4098  -0.3934
 -0.3907  -0.3883  -0.3804  -0.3779  -0.3766  -0.3721  -0.3670  -0.3282
 -0.2979  -0.2858  -0.2808  -0.2791  -0.2667  -0.2309

          Ground-State Mulliken Net Atomic Charges

     Atom                 Charge (a.u.)
  ----------------------------------------
      1 C                    -0.558073
      2 C                     0.541711
      3 C                     0.538758
      4 C                    -0.558012
      5 C                    -0.579987
      6 O                    -0.364147
      7 C                     0.505073
      8 C                    -0.423552
      9 O                    -0.359813
     10 C                     0.096466
     11 C                     0.112592
     12 C                    -0.382534
     13 C                    -0.382209
     14 C                     0.114572
     15 C                     0.094303
     16 C                    -0.424092
     17 O                    -0.359768
     18 C                     0.505211
     19 C                    -0.580072
     20 O                    -0.364088
     21 H                     0.197118
     22 H                     0.207082
     23 H                     0.179629
     24 H                     0.206783
     25 H                     0.197089
     26 H                     0.179859
     27 H                     0.395023
     28 H                     0.208211
     29 H                     0.226771
     30 H                     0.226825
     31 H                     0.208254
     32 H                     0.395018
  ----------------------------------------
  Sum of atomic charges =     0.000000

                    Cartesian Multipole Moments
 -----------------------------------------------------------------
    Charge (ESU x 10^10)
                 0.0000
    Dipole Moment (Debye)
         X      -0.7693      Y       0.0001      Z       0.0024
       Tot       0.7693
    Quadrupole Moments (Debye-Ang)
        XX     -80.5049     XY      -0.0013     YY    -132.4329
        XZ       0.0025     YZ       0.0045     ZZ    -117.4026

 Total job time:  82.20s(wall), 629.08s(cpu)
        *  Thank you very much for using Q-Chem.  Have a nice day.  *
