 Q-Chem 5.4, Q-Chem, Inc., Pleasanton, CA (2021)
 Q-Chem 5.4.0 for Intel X86 EM64T Linux

User input:
--------------------------------------------------------------
$molecule
-1 2
C                 -0.1641410000      3.8389820000     -0.0493980000
C                 -1.3925580000      3.2170390000     -0.1738940000
C                 -1.4599700000      1.8447260000     -0.4891190000
C                  1.0346650000      3.1164620000     -0.2341220000
C                  0.9685740000      1.7296230000     -0.5531580000
C                 -0.2929290000      1.1211810000     -0.6740890000
C                  2.3203930000      3.7683150000     -0.1035030000
C                  3.4900270000      2.9460490000     -0.3118240000
C                  3.4623820000      1.6009680000     -0.6141110000
C                  2.1913830000      0.9242220000     -0.7587890000
O                  2.4944400000      4.9996350000      0.1782790000
O                  2.1193560000     -0.2995790000     -1.0448250000
H                 -0.0865780000      4.8930340000      0.1924560000
H                 -2.3068540000      3.7854300000     -0.0290710000
H                 -2.4253040000      1.3569130000     -0.5867210000
H                 -0.3148930000      0.0650190000     -0.9179950000
O                  4.6644950000      3.6282810000     -0.1759620000
C                  4.7296690000      0.8116520000     -0.8184220000
C                  5.1578250000      0.7201630000     -2.2959430000
C                  6.4264070000     -0.1142550000     -2.5042790000
C                  6.8646650000     -0.2157770000     -3.9697160000
C                  8.1311910000     -1.0530230000     -4.1830590000
C                  8.5599610000     -1.1481930000     -5.6510200000
H                  4.3479950000      4.5328370000      0.0428780000
H                  4.5633460000     -0.2036670000     -0.4441650000
H                  5.5405550000      1.2638560000     -0.2380980000
H                  5.3173360000      1.7328220000     -2.6854790000
H                  4.3329280000      0.2835190000     -2.8689490000
H                  6.2609200000     -1.1245940000     -2.1067920000
H                  7.2459730000      0.3161460000     -1.9122390000
H                  7.0295860000      0.7940890000     -4.3687320000
H                  6.0454590000     -0.6446920000     -4.5617850000
H                  7.9664450000     -2.0623680000     -3.7856590000
H                  8.9502450000     -0.6248330000     -3.5915130000
H                  7.7739560000     -1.6038400000     -6.2623290000
H                  9.4655420000     -1.7518890000     -5.7697560000
H                  8.7647050000     -0.1561040000     -6.0671020000
$end

$rem
BASIS  =  6-311++G(d,p)
GUI  =  2
JOB_TYPE  =  SP
METHOD  =  B3LYP
SCF_CONVERGENCE  = 8
SOLVENT_METHOD = sm12
$end

$smx
solvent dimethylformamide
charges CM5
$end

--------------------------------------------------------------

             Standard Nuclear Orientation (Angstroms)
    I     Atom           X                Y                Z
 ----------------------------------------------------------------
    1      C      -0.1641410000     3.8389820000    -0.0493980000
    2      C      -1.3925580000     3.2170390000    -0.1738940000
    3      C      -1.4599700000     1.8447260000    -0.4891190000
    4      C       1.0346650000     3.1164620000    -0.2341220000
    5      C       0.9685740000     1.7296230000    -0.5531580000
    6      C      -0.2929290000     1.1211810000    -0.6740890000
    7      C       2.3203930000     3.7683150000    -0.1035030000
    8      C       3.4900270000     2.9460490000    -0.3118240000
    9      C       3.4623820000     1.6009680000    -0.6141110000
   10      C       2.1913830000     0.9242220000    -0.7587890000
   11      O       2.4944400000     4.9996350000     0.1782790000
   12      O       2.1193560000    -0.2995790000    -1.0448250000
   13      H      -0.0865780000     4.8930340000     0.1924560000
   14      H      -2.3068540000     3.7854300000    -0.0290710000
   15      H      -2.4253040000     1.3569130000    -0.5867210000
   16      H      -0.3148930000     0.0650190000    -0.9179950000
   17      O       4.6644950000     3.6282810000    -0.1759620000
   18      C       4.7296690000     0.8116520000    -0.8184220000
   19      C       5.1578250000     0.7201630000    -2.2959430000
   20      C       6.4264070000    -0.1142550000    -2.5042790000
   21      C       6.8646650000    -0.2157770000    -3.9697160000
   22      C       8.1311910000    -1.0530230000    -4.1830590000
   23      C       8.5599610000    -1.1481930000    -5.6510200000
   24      H       4.3479950000     4.5328370000     0.0428780000
   25      H       4.5633460000    -0.2036670000    -0.4441650000
   26      H       5.5405550000     1.2638560000    -0.2380980000
   27      H       5.3173360000     1.7328220000    -2.6854790000
   28      H       4.3329280000     0.2835190000    -2.8689490000
   29      H       6.2609200000    -1.1245940000    -2.1067920000
   30      H       7.2459730000     0.3161460000    -1.9122390000
   31      H       7.0295860000     0.7940890000    -4.3687320000
   32      H       6.0454590000    -0.6446920000    -4.5617850000
   33      H       7.9664450000    -2.0623680000    -3.7856590000
   34      H       8.9502450000    -0.6248330000    -3.5915130000
   35      H       7.7739560000    -1.6038400000    -6.2623290000
   36      H       9.4655420000    -1.7518890000    -5.7697560000
   37      H       8.7647050000    -0.1561040000    -6.0671020000
 ----------------------------------------------------------------

   18    -846.5420528999      6.65e-09  Convergence criterion met
 Total energy in the final basis set =     -846.6291395245

                    Orbital Energies (a.u.)
 --------------------------------------------------------------

 Alpha MOs
 -- Occupied --
-19.1446 -19.0863 -19.0735 -10.2244 -10.2241 -10.2219 -10.1820 -10.1807
-10.1806 -10.1791 -10.1784 -10.1777 -10.1662 -10.1655 -10.1651 -10.1646
-10.1643 -10.1635 -10.1588  -1.0642  -0.9986  -0.9957  -0.8642  -0.8193
 -0.8039  -0.7759  -0.7577  -0.7459  -0.7082  -0.6751  -0.6474  -0.6225
 -0.6038  -0.5822  -0.5790  -0.5731  -0.5417  -0.5082  -0.4891  -0.4803
 -0.4658  -0.4597  -0.4450  -0.4396  -0.4349  -0.4305  -0.4213  -0.4137
 -0.4072  -0.3924  -0.3910  -0.3886  -0.3869  -0.3798  -0.3647  -0.3586
 -0.3517  -0.3462  -0.3446  -0.3401  -0.3298  -0.3296  -0.3247  -0.3175
 -0.2711  -0.2641  -0.2590  -0.2384  -0.2312  -0.1524

 Beta MOs
 -- Occupied --
-19.1441 -19.0796 -19.0679 -10.2233 -10.2231 -10.2193 -10.1820 -10.1803
-10.1798 -10.1787 -10.1782 -10.1770 -10.1662 -10.1652 -10.1646 -10.1646
-10.1643 -10.1635 -10.1588  -1.0621  -0.9889  -0.9844  -0.8619  -0.8175
 -0.8020  -0.7744  -0.7556  -0.7448  -0.7067  -0.6680  -0.6457  -0.6209
 -0.6018  -0.5813  -0.5789  -0.5707  -0.5400  -0.5061  -0.4875  -0.4788
 -0.4646  -0.4587  -0.4444  -0.4345  -0.4333  -0.4281  -0.4166  -0.4084
 -0.4051  -0.3903  -0.3877  -0.3853  -0.3808  -0.3778  -0.3583  -0.3529
 -0.3489  -0.3447  -0.3381  -0.3314  -0.3292  -0.3270  -0.3239  -0.3163
 -0.2570  -0.2530  -0.2508  -0.2331  -0.2212

          Ground-State Mulliken Net Atomic Charges

     Atom                 Charge (a.u.)    Spin (a.u.)
  --------------------------------------------------------
      1 C                     0.189330       0.073870
      2 C                     0.859722       0.001593
      3 C                     0.851015       0.075409
      4 C                    -0.653629       0.006142
      5 C                    -1.146467       0.072254
      6 C                    -0.164858      -0.000282
      7 C                    -1.524300       0.136739
      8 C                    -0.606587       0.060297
      9 C                     1.246794       0.053798
     10 C                    -2.018983       0.049108
     11 O                    -0.374681       0.248425
     12 O                    -0.291426       0.210371
     13 H                     0.170127      -0.004019
     14 H                     0.357575      -0.000679
     15 H                     0.341899      -0.005329
     16 H                     0.139870      -0.000288
     17 O                    -0.141066       0.015804
     18 C                    -0.257355       0.010063
     19 C                    -1.404184      -0.001527
     20 C                     0.284276       0.002502
     21 C                     0.663168      -0.003178
     22 C                     0.490447      -0.000060
     23 C                    -0.050913       0.000023
     24 H                     0.297169      -0.003970
     25 H                     0.137425       0.002787
     26 H                     0.195318      -0.000965
     27 H                     0.080562       0.002561
     28 H                     0.066781      -0.001761
     29 H                     0.153543       0.000702
     30 H                     0.159139      -0.000343
     31 H                     0.110754       0.000004
     32 H                     0.102268      -0.000030
     33 H                     0.110147      -0.000013
     34 H                     0.112435       0.000001
     35 H                     0.136531       0.000005
     36 H                     0.241370      -0.000013
     37 H                     0.136786      -0.000001
  --------------------------------------------------------
  Sum of atomic charges =    -1.000000

                    Cartesian Multipole Moments
 -----------------------------------------------------------------
    Charge (ESU x 10^10)
                -4.8032
    Dipole Moment (Debye)
         X     -11.4523      Y     -10.6479      Z       2.3439
       Tot      15.8123
    Quadrupole Moments (Debye-Ang)
        XX    -155.1926     XY     -26.0318     YY    -170.3098
        XZ       6.6856     YZ      -0.9417     ZZ    -126.0611

 Total job time:  1626.32s(wall), 11870.75s(cpu)
        *  Thank you very much for using Q-Chem.  Have a nice day.  *
