 Q-Chem 5.4, Q-Chem, Inc., Pleasanton, CA (2021)
 Q-Chem 5.4.0 for Intel X86 EM64T Linux

User input:
--------------------------------------------------------------
$molecule
0 1
O                  4.8779150000     -0.8658900000      0.0204230000
C                  3.6693760000     -0.2569790000      0.0587780000
C                  3.5809960000      1.1264500000      0.1256060000
C                  2.3346340000      1.7513520000      0.1650540000
C                  1.1629710000      1.0038190000      0.1383820000
C                 -0.1481380000      1.7094400000      0.1822550000
O                 -0.1868490000      2.9276600000      0.2402270000
C                 -1.3836920000      0.8702580000      0.1514550000
C                 -2.6574790000      1.4527590000      0.1886600000
O                 -2.8035210000      2.7989890000      0.2537900000
C                 -3.8011140000      0.6287000000      0.1579620000
C                 -3.7061100000     -0.7403080000      0.0921200000
C                 -2.4456080000     -1.3583440000      0.0532990000
O                 -2.4269950000     -2.6969130000     -0.0105110000
C                 -1.2826620000     -0.5558030000      0.0827590000
C                  0.0232620000     -1.2109510000      0.0415150000
O                  0.1077690000     -2.4688240000     -0.0192980000
C                  1.2363210000     -0.4065740000      0.0704160000
C                  2.4943830000     -1.0340520000      0.0306190000
O                  2.6767160000     -2.3691930000     -0.0346940000
H                  4.7363730000     -1.8225110000     -0.0239740000
H                  4.4975860000      1.7038080000      0.1461890000
H                  2.2575250000      2.8294890000      0.2171760000
H                 -3.7427430000      3.0148250000      0.2707530000
H                 -4.7818470000      1.0955290000      0.1874930000
H                 -4.5886580000     -1.3673000000      0.0688680000
H                 -1.4814490000     -2.9760640000     -0.0308210000
H                  1.7810380000     -2.7833740000     -0.0476460000
$end

$rem
BASIS  =  6-311++G(d,p)
GUI  =  2
JOB_TYPE  =  SP
METHOD  =  B3LYP
SCF_CONVERGENCE  = 8
SOLVENT_METHOD = sm12
$end

$smx
solvent dimethylformamide
charges CM5
$end

--------------------------------------------------------------

             Standard Nuclear Orientation (Angstroms)
    I     Atom           X                Y                Z
 ----------------------------------------------------------------
    1      O       4.8779150000    -0.8658900000     0.0204230000
    2      C       3.6693760000    -0.2569790000     0.0587780000
    3      C       3.5809960000     1.1264500000     0.1256060000
    4      C       2.3346340000     1.7513520000     0.1650540000
    5      C       1.1629710000     1.0038190000     0.1383820000
    6      C      -0.1481380000     1.7094400000     0.1822550000
    7      O      -0.1868490000     2.9276600000     0.2402270000
    8      C      -1.3836920000     0.8702580000     0.1514550000
    9      C      -2.6574790000     1.4527590000     0.1886600000
   10      O      -2.8035210000     2.7989890000     0.2537900000
   11      C      -3.8011140000     0.6287000000     0.1579620000
   12      C      -3.7061100000    -0.7403080000     0.0921200000
   13      C      -2.4456080000    -1.3583440000     0.0532990000
   14      O      -2.4269950000    -2.6969130000    -0.0105110000
   15      C      -1.2826620000    -0.5558030000     0.0827590000
   16      C       0.0232620000    -1.2109510000     0.0415150000
   17      O       0.1077690000    -2.4688240000    -0.0192980000
   18      C       1.2363210000    -0.4065740000     0.0704160000
   19      C       2.4943830000    -1.0340520000     0.0306190000
   20      O       2.6767160000    -2.3691930000    -0.0346940000
   21      H       4.7363730000    -1.8225110000    -0.0239740000
   22      H       4.4975860000     1.7038080000     0.1461890000
   23      H       2.2575250000     2.8294890000     0.2171760000
   24      H      -3.7427430000     3.0148250000     0.2707530000
   25      H      -4.7818470000     1.0955290000     0.1874930000
   26      H      -4.5886580000    -1.3673000000     0.0688680000
   27      H      -1.4814490000    -2.9760640000    -0.0308210000
   28      H       1.7810380000    -2.7833740000    -0.0476460000
 ----------------------------------------------------------------

   15    -989.9569876383      4.80e-09  Convergence criterion met
 Total energy in the final basis set =     -989.9907377100

                    Orbital Energies (a.u.)
 --------------------------------------------------------------

 Alpha MOs
 -- Occupied --
-19.1760 -19.1759 -19.1714 -19.1638 -19.1513 -19.1144 -10.2979 -10.2749
-10.2706 -10.2690 -10.2671 -10.2623 -10.2157 -10.2146 -10.2124 -10.2084
-10.2049 -10.2022 -10.2003 -10.1962  -1.1100  -1.0949  -1.0880  -1.0798
 -1.0612  -1.0508  -0.8953  -0.8798  -0.8202  -0.7824  -0.7741  -0.7674
 -0.7023  -0.6825  -0.6774  -0.6357  -0.6251  -0.5923  -0.5848  -0.5660
 -0.5561  -0.5310  -0.5238  -0.5115  -0.4939  -0.4823  -0.4787  -0.4679
 -0.4604  -0.4560  -0.4435  -0.4351  -0.4337  -0.4243  -0.4201  -0.4157
 -0.4057  -0.4004  -0.3928  -0.3863  -0.3834  -0.3823  -0.3500  -0.3354
 -0.3035  -0.2951  -0.2745  -0.2650  -0.2437  -0.2343

          Ground-State Mulliken Net Atomic Charges

     Atom                 Charge (a.u.)
  ----------------------------------------
      1 O                    -0.247208
      2 C                    -0.236393
      3 C                     0.376132
      4 C                     0.002995
      5 C                    -0.084416
      6 C                    -1.385517
      7 O                    -0.299967
      8 C                    -0.201467
      9 C                     0.036442
     10 O                    -0.211666
     11 C                     1.520802
     12 C                     0.840101
     13 C                    -0.410480
     14 O                    -0.354899
     15 C                    -0.101210
     16 C                    -0.985530
     17 O                    -0.368133
     18 C                     0.047465
     19 C                    -0.115902
     20 O                    -0.370092
     21 H                     0.307410
     22 H                     0.303308
     23 H                     0.186062
     24 H                     0.333441
     25 H                     0.384788
     26 H                     0.296383
     27 H                     0.343211
     28 H                     0.394340
  ----------------------------------------
  Sum of atomic charges =     0.000000

                    Cartesian Multipole Moments
 -----------------------------------------------------------------
    Charge (ESU x 10^10)
                 0.0000
    Dipole Moment (Debye)
         X      -3.7155      Y      -0.6163      Z       0.0004
       Tot       3.7663
    Quadrupole Moments (Debye-Ang)
        XX     -88.4279     XY      -8.8829     YY    -123.1951
        XZ      -0.9912     YZ      -0.3502     ZZ    -115.7238

 Total job time:  690.56s(wall), 5234.72s(cpu)
        *  Thank you very much for using Q-Chem.  Have a nice day.  *
