 Gaussian 16, Revision A.03,
 Gaussian 16:  ES64L-G16RevA.03 25-Dec-2016

 ----------------------------------------------------------------------
 #P UB3LYP/6-311++G(d,p) nosym opt freq SCRF=(PCM,Solvent=n,n-DiMethylF
 ormamide)
 ----------------------------------------------------------------------

 -------
 Reduced
 -------
 Symbolic Z-matrix:
 Charge = -2 Multiplicity = 1

 SCF Done:  E(UB3LYP) =  -846.490870249     A.U. after   15 cycles
 SCF Done:  E(UB3LYP) =  -846.493303420     A.U. after   12 cycles
 SCF Done:  E(UB3LYP) =  -846.493674303     A.U. after   12 cycles
 SCF Done:  E(UB3LYP) =  -846.493701085     A.U. after   12 cycles
 SCF Done:  E(UB3LYP) =  -846.493706548     A.U. after   12 cycles
 SCF Done:  E(UB3LYP) =  -846.493710811     A.U. after   11 cycles
 SCF Done:  E(UB3LYP) =  -846.493712091     A.U. after   10 cycles
 SCF Done:  E(UB3LYP) =  -846.493712641     A.U. after   10 cycles
 Optimization completed.
    -- Stationary point found.
 Normal termination of Gaussian 16 at Sat Feb 10 18:46:23 2024.

 ----------------------------------------------------------------------
 #P Geom=AllCheck Guess=TCheck SCRF=Check GenChk UB3LYP/6-311++G(d,p) F
 req
 ----------------------------------------------------------------------

 Structure from the checkpoint file:  "132-an.chk"
 -------
 Reduced
 -------
 Charge = -2 Multiplicity = 1

                          Input orientation:
 ---------------------------------------------------------------------
 Center     Atomic      Atomic             Coordinates (Angstroms)
 Number     Number       Type             X           Y           Z
 ---------------------------------------------------------------------
      1          6           0        6.878377   -1.625230   -0.240960
      2          6           0        7.460550   -0.675914   -1.051582
      3          6           0        6.626956    0.347515   -1.626399
      4          6           0        5.278680    0.338748   -1.344545
      5          6           0        4.648525   -0.630264   -0.510431
      6          6           0        5.487354   -1.659809    0.067876
      7          6           0        4.964979   -2.689197    0.923239
      8          6           0        3.550216   -2.623635    1.163963
      9          6           0        2.711395   -1.594069    0.585684
     10          6           0        3.233768   -0.564683   -0.269681
     11          6           0        2.920060   -3.592653    1.998069
     12          6           0        1.571777   -3.601448    2.279886
     13          6           0        0.738204   -2.577947    1.705169
     14          6           0        1.320371   -1.628655    0.894513
     15          8           0        5.723678   -3.617778    1.445786
     16          8           0        2.475028    0.363756   -0.792419
     17          6           0        0.975163   -4.663575    3.174782
     18          6           0       -0.746252   -2.549033    1.988421
     19          6           0        8.944931   -0.705085   -1.335200
     20          6           0        7.223633    1.409862   -2.520992
     21          1           0        7.494621   -2.402846    0.199654
     22          1           0        4.639864    1.105956   -1.770975
     23          1           0        3.558893   -4.359812    2.424561
     24          1           0        0.704118   -0.851070    0.453858
     25          1           0        1.745923   -5.355686    3.521737
     26          1           0        0.206687   -5.251779    2.659151
     27          1           0        0.491977   -4.232098    4.059553
     28          1           0       -0.958669   -2.450064    3.059638
     29          1           0       -1.246080   -3.467483    1.658043
     30          1           0       -1.221978   -1.709383    1.476463
     31          1           0        9.420823   -1.544174   -0.822477
     32          1           0        9.444837    0.213723   -1.006095
     33          1           0        9.157000   -0.805325   -2.406417
     34          1           0        7.707700    0.978608   -3.405336
     35          1           0        7.991429    1.998549   -2.004806
     36          1           0        6.452762    2.101567   -2.868505
 ---------------------------------------------------------------------

 SCF Done:  E(UB3LYP) =  -846.493712641     A.U. after    1 cycles

 Alpha  occ. eigenvalues --  -19.01256 -19.01255 -10.16592 -10.16591 -10.15255
 Alpha  occ. eigenvalues --  -10.15255 -10.15220 -10.15220 -10.15193 -10.15193
 Alpha  occ. eigenvalues --  -10.15189 -10.15189 -10.13796 -10.13796 -10.13787
 Alpha  occ. eigenvalues --  -10.13787 -10.12996 -10.12994 -10.12957 -10.12956
 Alpha  occ. eigenvalues --   -0.92315  -0.91888  -0.82942  -0.82645  -0.77049
 Alpha  occ. eigenvalues --   -0.74028  -0.73996  -0.73995  -0.68340  -0.67982
 Alpha  occ. eigenvalues --   -0.67575  -0.64240  -0.61352  -0.58235  -0.55717
 Alpha  occ. eigenvalues --   -0.55686  -0.51930  -0.47914  -0.47225  -0.45192
 Alpha  occ. eigenvalues --   -0.42880  -0.41841  -0.41762  -0.41693  -0.41677
 Alpha  occ. eigenvalues --   -0.39778  -0.38889  -0.38626  -0.38620  -0.38165
 Alpha  occ. eigenvalues --   -0.37860  -0.37080  -0.36975  -0.36866  -0.35531
 Alpha  occ. eigenvalues --   -0.34999  -0.34193  -0.33698  -0.31812  -0.31525
 Alpha  occ. eigenvalues --   -0.30782  -0.30547  -0.28915  -0.28042  -0.22543
 Alpha  occ. eigenvalues --   -0.21527  -0.21230  -0.20032  -0.19500  -0.18909
 Alpha  occ. eigenvalues --   -0.10214
 Alpha virt. eigenvalues --   -0.02014  -0.00291   0.00092   0.01108   0.01240
 Alpha virt. eigenvalues --    0.01705   0.01990   0.02157   0.03640   0.03733
 Alpha virt. eigenvalues --    0.03839   0.04152   0.04166   0.04900   0.05260

  Beta  occ. eigenvalues --  -19.01256 -19.01255 -10.16592 -10.16591 -10.15255
  Beta  occ. eigenvalues --  -10.15255 -10.15220 -10.15220 -10.15193 -10.15193
  Beta  occ. eigenvalues --  -10.15189 -10.15189 -10.13796 -10.13796 -10.13787
  Beta  occ. eigenvalues --  -10.13787 -10.12996 -10.12994 -10.12957 -10.12956
  Beta  occ. eigenvalues --   -0.92315  -0.91888  -0.82942  -0.82645  -0.77049
  Beta  occ. eigenvalues --   -0.74028  -0.73996  -0.73995  -0.68340  -0.67982
  Beta  occ. eigenvalues --   -0.67575  -0.64240  -0.61352  -0.58235  -0.55717
  Beta  occ. eigenvalues --   -0.55686  -0.51930  -0.47914  -0.47225  -0.45192
  Beta  occ. eigenvalues --   -0.42880  -0.41841  -0.41762  -0.41693  -0.41677
  Beta  occ. eigenvalues --   -0.39778  -0.38889  -0.38626  -0.38620  -0.38165
  Beta  occ. eigenvalues --   -0.37860  -0.37080  -0.36975  -0.36866  -0.35531
  Beta  occ. eigenvalues --   -0.34999  -0.34193  -0.33698  -0.31812  -0.31525
  Beta  occ. eigenvalues --   -0.30782  -0.30547  -0.28915  -0.28042  -0.22543
  Beta  occ. eigenvalues --   -0.21527  -0.21230  -0.20032  -0.19500  -0.18909
  Beta  occ. eigenvalues --   -0.10214
  Beta virt. eigenvalues --   -0.02014  -0.00291   0.00092   0.01108   0.01240
  Beta virt. eigenvalues --    0.01705   0.01990   0.02157   0.03640   0.03733
  Beta virt. eigenvalues --    0.03839   0.04152   0.04166   0.04900   0.05260

 Mulliken charges and spin densities:
               1          2
     1  C   -0.316886  -0.000000
     2  C    0.301887  -0.000000
     3  C    0.303016   0.000000
     4  C   -0.318920   0.000000
     5  C    0.177862  -0.000000
     6  C    0.177674  -0.000000
     7  C   -0.742461   0.000000
     8  C    0.177841  -0.000000
     9  C    0.177646  -0.000000
    10  C   -0.742443  -0.000000
    11  C   -0.318918   0.000000
    12  C    0.303014  -0.000000
    13  C    0.301896   0.000000
    14  C   -0.316893   0.000000
    15  O   -0.681364  -0.000000
    16  O   -0.681366  -0.000000
    17  C   -0.509177   0.000000
    18  C   -0.509252   0.000000
    19  C   -0.509261   0.000000
    20  C   -0.509167   0.000000
    21  H    0.112646  -0.000000
    22  H    0.112345   0.000000
    23  H    0.112346  -0.000000
    24  H    0.112646  -0.000000
    25  H    0.154203  -0.000000
    26  H    0.146103   0.000000
    27  H    0.146038   0.000000
    28  H    0.145950  -0.000000
    29  H    0.146126  -0.000000
    30  H    0.154226  -0.000000
    31  H    0.154226   0.000000
    32  H    0.146032   0.000000
    33  H    0.146043   0.000000
    34  H    0.145966   0.000000
    35  H    0.146174   0.000000
    36  H    0.154203  -0.000000
 Sum of Mulliken charges =  -2.00000   0.00000

 Dipole moment (field-independent basis, Debye):
    X=            -39.3801    Y=             15.6295    Z=             -3.1386  Tot=             42.4844
 Quadrupole moment (field-independent basis, Debye-Ang):
   XX=           -315.1227   YY=           -185.3460   ZZ=           -142.3346
   XY=             84.6452   XZ=            -23.2904   YZ=             21.8035

  Exact polarizability: 569.587  55.602 384.617-115.989-146.212 329.678
 Approx polarizability: 612.179  41.381 430.605-109.209-158.628 362.155

                      1                      2                      3
                      A                      A                      A
 Frequencies --     36.1633                61.5802                82.5480
 Red. masses --      4.8535                 3.2072                 4.2264
 Frc consts  --      0.0037                 0.0072                 0.0170
 IR Inten    --     23.3799                 0.6501                 0.0000

                      4                      5                      6
                      A                      A                      A
 Frequencies --    134.7560               138.4607               144.8982
 Red. masses --      6.0643                 2.9990                 3.8759
 Frc consts  --      0.0649                 0.0339                 0.0479
 IR Inten    --      7.8532                 0.0001                22.4697

                      7                      8                      9
                      A                      A                      A
 Frequencies --    151.9470               154.5690               190.6492
 Red. masses --      1.0949                 1.0695                 1.0860
 Frc consts  --      0.0149                 0.0151                 0.0233
 IR Inten    --      0.2046                 0.0000                 1.5533

                     10                     11                     12
                      A                      A                      A
 Frequencies --    198.0726               231.1274               239.3317
 Red. masses --      1.1206                 5.1044                 2.9904
 Frc consts  --      0.0259                 0.1607                 0.1009
 IR Inten    --      0.0000                 0.0000                 0.0049

                     13                     14                     15
                      A                      A                      A
 Frequencies --    253.7900               275.2989               287.5383
 Red. masses --      3.6240                 3.0295                 3.7480
 Frc consts  --      0.1375                 0.1353                 0.1826
 IR Inten    --      0.0000                 0.0000                22.0826

                     16                     17                     18
                      A                      A                      A
 Frequencies --    294.0070               325.9285               347.7707
 Red. masses --      2.6028                 3.9782                 5.9112
 Frc consts  --      0.1326                 0.2490                 0.4212
 IR Inten    --      9.4107                 0.0000                 0.0001

                     19                     20                     21
                      A                      A                      A
 Frequencies --    348.3172               354.7801               381.5524
 Red. masses --      9.6615                 4.0578                 3.8040
 Frc consts  --      0.6906                 0.3009                 0.3263
 IR Inten    --      1.6967                 0.0000                32.5866

                     22                     23                     24
                      A                      A                      A
 Frequencies --    433.3200               442.2559               488.6918
 Red. masses --      3.0578                 7.4876                 3.3294
 Frc consts  --      0.3383                 0.8629                 0.4685
 IR Inten    --     17.1012                 0.0000                 0.0000

                     25                     26                     27
                      A                      A                      A
 Frequencies --    493.5399               495.6735               557.0147
 Red. masses --     11.2793                 3.4989                 3.4727
 Frc consts  --      1.6187                 0.5065                 0.6348
 IR Inten    --      0.0000                 0.0000                34.2580

                     28                     29                     30
                      A                      A                      A
 Frequencies --    587.9622               591.2162               600.1641
 Red. masses --      4.7966                 6.2500                 5.3881
 Frc consts  --      0.9770                 1.2871                 1.1435
 IR Inten    --      0.0022                 0.8176                 0.0000

                     31                     32                     33
                      A                      A                      A
 Frequencies --    658.8199               709.2586               716.3097
 Red. masses --      3.9492                 6.8659                 5.9363
 Frc consts  --      1.0099                 2.0350                 1.7946
 IR Inten    --      0.0000                 0.0000                54.3524

                     34                     35                     36
                      A                      A                      A
 Frequencies --    721.1632               724.9021               732.2375
 Red. masses --      5.1028                 4.3110                 4.9823
 Frc consts  --      1.5636                 1.3347                 1.5739
 IR Inten    --     20.0415                 5.0002                51.8155

                     37                     38                     39
                      A                      A                      A
 Frequencies --    761.7117               787.1126               812.2454
 Red. masses --      3.4497                 6.0445                 4.4317
 Frc consts  --      1.1793                 2.2064                 1.7226
 IR Inten    --      0.0000                 0.0000                 0.0000

                     40                     41                     42
                      A                      A                      A
 Frequencies --    904.6605               905.2335               917.5972
 Red. masses --      1.4427                 1.4083                 1.3751
 Frc consts  --      0.6957                 0.6799                 0.6822
 IR Inten    --      0.0003                21.9413                 0.0125

                     43                     44                     45
                      A                      A                      A
 Frequencies --    918.5865               951.0460              1006.4143
 Red. masses --      1.3787                 2.3353                 1.4053
 Frc consts  --      0.6854                 1.2445                 0.8387
 IR Inten    --     41.9579                17.1635                 0.0000

                     46                     47                     48
                      A                      A                      A
 Frequencies --   1018.6305              1018.7159              1022.8645
 Red. masses --      1.6393                 2.0068                 1.5260
 Frc consts  --      1.0022                 1.2270                 0.9407
 IR Inten    --     13.9427                 2.8493                 0.0000

                     49                     50                     51
                      A                      A                      A
 Frequencies --   1034.4844              1045.6393              1046.0579
 Red. masses --      3.2205                 1.4233                 1.4260
 Frc consts  --      2.0306                 0.9169                 0.9193
 IR Inten    --    113.1671                 0.0012                19.1853

                     52                     53                     54
                      A                      A                      A
 Frequencies --   1061.4373              1061.5998              1144.7478
 Red. masses --      1.5533                 1.5529                 1.8237
 Frc consts  --      1.0311                 1.0311                 1.4081
 IR Inten    --      0.0007                 0.0518                 0.0001

                     55                     56                     57
                      A                      A                      A
 Frequencies --   1149.8470              1150.8236              1166.3983
 Red. masses --      5.7732                 4.3210                 3.3856
 Frc consts  --      4.4972                 3.3717                 2.7138
 IR Inten    --      0.0002              1528.5183               532.0700

                     58                     59                     60
                      A                      A                      A
 Frequencies --   1205.2715              1219.1170              1243.2512
 Red. masses --      2.4387                 3.5709                 5.0471
 Frc consts  --      2.0872                 3.1269                 4.5964
 IR Inten    --      0.0000               148.3479                 0.0007

                     61                     62                     63
                      A                      A                      A
 Frequencies --   1244.2534              1278.6252              1309.6775
 Red. masses --      1.6399                 1.9204                 5.3651
 Frc consts  --      1.4959                 1.8498                 5.4220
 IR Inten    --    210.3330                 0.0000                 0.0000

                     64                     65                     66
                      A                      A                      A
 Frequencies --   1339.2108              1359.3951              1400.7695
 Red. masses --      3.7057                 4.9042                 1.2649
 Frc consts  --      3.9158                 5.3396                 1.4624
 IR Inten    --   2264.4489               648.6961                 0.0000

                     67                     68                     69
                      A                      A                      A
 Frequencies --   1402.7057              1407.6233              1408.5787
 Red. masses --      1.6678                 1.2486                 1.2587
 Frc consts  --      1.9334                 1.4577                 1.4714
 IR Inten    --    316.9278                27.5244                 0.0000

                     70                     71                     72
                      A                      A                      A
 Frequencies --   1411.5234              1433.2169              1466.7204
 Red. masses --      3.2988                 4.3995                 1.0458
 Frc consts  --      3.8724                 5.3245                 1.3255
 IR Inten    --    147.3479                 0.0000                 0.0017

                     73                     74                     75
                      A                      A                      A
 Frequencies --   1466.7476              1469.0355              1475.1030
 Red. masses --      1.0472                 2.2026                 1.2669
 Frc consts  --      1.3274                 2.8006                 1.6242
 IR Inten    --      0.1582                43.3825                 0.0020

                     76                     77                     78
                      A                      A                      A
 Frequencies --   1477.9968              1478.0030              1480.7583
 Red. masses --      1.0458                 1.0443                 2.2859
 Frc consts  --      1.3460                 1.3440                 2.9530
 IR Inten    --     37.8776                 1.2100                40.8662

                     79                     80                     81
                      A                      A                      A
 Frequencies --   1481.3084              1484.6168              1496.2652
 Red. masses --      4.1949                 1.1130                 1.2173
 Frc consts  --      5.4233                 1.4454                 1.6058
 IR Inten    --      0.0001                71.2590                 0.0000

                     82                     83                     84
                      A                      A                      A
 Frequencies --   1506.3459              1515.9291              1572.2510
 Red. masses --      3.9000                 2.2068                 6.8211
 Frc consts  --      5.2139                 2.9879                 9.9346
 IR Inten    --      0.0000                57.0372                 0.0000

                     85                     86                     87
                      A                      A                      A
 Frequencies --   1629.2747              1632.3761              2996.7359
 Red. masses --      6.2235                 6.4369                 1.0394
 Frc consts  --      9.7336                10.1057                 5.4994
 IR Inten    --      0.0000                45.6680                27.1755

                     88                     89                     90
                      A                      A                      A
 Frequencies --   2996.8371              2999.1404              2999.9759
 Red. masses --      1.0393                 1.0385                 1.0385
 Frc consts  --      5.4997                 5.5036                 5.5068
 IR Inten    --      0.0465               692.4332                 0.0184

                     91                     92                     93
                      A                      A                      A
 Frequencies --   3031.6685              3031.6769              3034.5684
 Red. masses --      1.0996                 1.0996                 1.0995
 Frc consts  --      5.9546                 5.9546                 5.9655
 IR Inten    --      0.0252                 2.6394                 2.1371

                     94                     95                     96
                      A                      A                      A
 Frequencies --   3034.5825              3085.1240              3085.1319
 Red. masses --      1.0995                 1.0977                 1.0977
 Frc consts  --      5.9655                 6.1559                 6.1559
 IR Inten    --    183.6058                30.4650               145.1278

                     97                     98                     99
                      A                      A                      A
 Frequencies --   3086.6812              3086.6899              3150.3651
 Red. masses --      1.0977                 1.0977                 1.0882
 Frc consts  --      6.1622                 6.1622                 6.3633
 IR Inten    --     13.0272                 2.0653                 3.8688

                    100                    101                    102
                      A                      A                      A
 Frequencies --   3150.3757              3153.8446              3154.6428
 Red. masses --      1.0883                 1.0880                 1.0882
 Frc consts  --      6.3642                 6.3759                 6.3807
 IR Inten    --     72.5530                84.6168                 0.0020

 - Thermochemistry -
 -------------------
 Temperature   298.150 Kelvin.  Pressure   1.00000 Atm.
 Atom     1 has atomic number  6 and mass  12.00000

 Molecular mass:   264.11503 amu.
 Principal axes and moments of inertia in atomic units:
                           1         2         3
     Eigenvalues --  2223.084739243.15185**********
           X            0.79891  -0.57900   0.16281
           Y            0.39683   0.71084   0.58072
           Z           -0.45197  -0.39934   0.79766
 This molecule is an asymmetric top.
 Rotational symmetry number  1.
 Warning -- assumption of classical behavior for rotation
           may cause significant error
 Rotational temperatures (Kelvin)      0.03896     0.00937     0.00758
 Rotational constants (GHZ):           0.81182     0.19525     0.15801
 Zero-point vibrational energy     746741.7 (Joules/Mol)
                                  178.47555 (Kcal/Mol)
 Warning -- explicit consideration of  30 degrees of freedom as
           vibrations may cause significant error
 Vibrational temperatures:     52.03    88.60   118.77   193.88   199.21
          (Kelvin)            208.48   218.62   222.39   274.30   284.98
                              332.54   344.34   365.15   396.09   413.70
                              423.01   468.94   500.36   501.15   510.45
                              548.97   623.45   636.31   703.12   710.09
                              713.16   801.42   845.95   850.63   863.50
                              947.89  1020.46  1030.61  1037.59  1042.97
                             1053.53  1095.93  1132.48  1168.64  1301.60
                             1302.43  1320.22  1321.64  1368.34  1448.01
                             1465.58  1465.70  1471.67  1488.39  1504.44
                             1505.04  1527.17  1527.41  1647.04  1654.37
                             1655.78  1678.19  1734.12  1754.04  1788.76
                             1790.20  1839.66  1884.33  1926.83  1955.87
                             2015.39  2018.18  2025.26  2026.63  2030.87
                             2062.08  2110.28  2110.32  2113.61  2122.34
                             2126.51  2126.52  2130.48  2131.27  2136.03
                             2152.79  2167.30  2181.08  2262.12  2344.16
                             2348.63  4311.63  4311.78  4315.09  4316.30
                             4361.89  4361.91  4366.07  4366.09  4438.81
                             4438.82  4441.05  4441.06  4532.67  4532.69
                             4537.68  4538.83

 Zero-point correction=                           0.284419 (Hartree/Particle)
 Thermal correction to Energy=                    0.302361
 Thermal correction to Enthalpy=                  0.303306
 Thermal correction to Gibbs Free Energy=         0.239619
 Sum of electronic and zero-point Energies=           -846.209294
 Sum of electronic and thermal Energies=              -846.191351
 Sum of electronic and thermal Enthalpies=            -846.190407
 Sum of electronic and thermal Free Energies=         -846.254093

                     E (Thermal)             CV                S
                      KCal/Mol        Cal/Mol-Kelvin    Cal/Mol-Kelvin
 Total                  189.735             70.534            134.039
 Electronic               0.000              0.000              0.000
 Translational            0.889              2.981             42.613
 Rotational               0.889              2.981             33.817
 Vibrational            187.957             64.572             57.609
 Vibration     1          0.594              1.982              5.459
 Vibration     2          0.597              1.973              4.406
 Vibration     3          0.600              1.961              3.829
 Vibration     4          0.613              1.919              2.877
 Vibration     5          0.614              1.915              2.825
 Vibration     6          0.616              1.908              2.738
 Vibration     7          0.619              1.901              2.648
 Vibration     8          0.620              1.898              2.615
 Vibration     9          0.634              1.853              2.222
 Vibration    10          0.637              1.843              2.151
 Vibration    11          0.653              1.793              1.870
 Vibration    12          0.657              1.780              1.808
 Vibration    13          0.665              1.756              1.704
 Vibration    14          0.677              1.719              1.563
 Vibration    15          0.685              1.697              1.488
 Vibration    16          0.689              1.685              1.451
 Vibration    17          0.710              1.624              1.280
 Vibration    18          0.725              1.580              1.176
 Vibration    19          0.726              1.579              1.174
 Vibration    20          0.731              1.565              1.145
 Vibration    21          0.751              1.510              1.033
 Vibration    22          0.794              1.398              0.848
 Vibration    23          0.802              1.378              0.820
 Vibration    24          0.845              1.275              0.687
 Vibration    25          0.849              1.264              0.674
 Vibration    26          0.851              1.260              0.669
 Vibration    27          0.913              1.124              0.530
 Vibration    28          0.945              1.057              0.471
 Vibration    29          0.949              1.050              0.465
 Vibration    30          0.958              1.031              0.449

 Optimization completed.
    -- Stationary point found.
 Normal termination of Gaussian 16 at Sat Feb 10 21:17:04 2024.
