 Q-Chem 5.4, Q-Chem, Inc., Pleasanton, CA (2021)
 Q-Chem 5.4.0 for Intel X86 EM64T Linux

User input:
--------------------------------------------------------------
$molecule
-1 2
C                  3.4304930000      5.9716550000      0.6496610000
C                  2.1385670000      5.4358480000      1.0732140000
C                  1.9918310000      4.0947490000      1.3571030000
C                  3.1031870000      3.1770690000      1.2268010000
C                  4.3877230000      3.6986020000      0.8145130000
C                  4.5457560000      5.0383670000      0.5367570000
O                  3.5766410000      7.2010790000      0.3926380000
O                  2.9578200000      1.9234530000      1.4723610000
C                  5.8763950000      5.5979540000      0.1008820000
C                  5.5375140000      2.7280560000      0.6968240000
C                  1.0014910000      6.4248440000      1.1864610000
C                  0.6843290000      3.4951710000      1.8262860000
C                 -0.0069590000      2.5574930000      0.7838340000
C                 -0.2347150000      1.1295600000      1.2722940000
O                 -1.3292100000      0.5986630000      1.2560840000
O                  0.8452610000      0.4944980000      1.7118430000
H                  6.6522710000      5.4312780000      0.8584880000
H                  5.7812500000      6.6696760000     -0.0723280000
H                  6.2318730000      5.1224730000     -0.8217600000
H                  5.2038520000      1.7267640000      0.9669240000
H                  6.3699690000      3.0102590000      1.3528470000
H                  5.9372880000      2.7001420000     -0.3242700000
H                  1.3282790000      7.3863140000      0.7906920000
H                  0.6949550000      6.5767660000      2.2289510000
H                  0.1152280000      6.0968480000      0.6333640000
H                 -0.0140790000      4.2862870000      2.0976010000
H                  0.8758210000      2.9273470000      2.7421330000
H                  0.6127110000      2.5003170000     -0.1167080000
H                 -0.9786900000      2.9523680000      0.4859050000
H                  1.6773130000      1.0824320000      1.6367220000
$end
$rem
MAX_SCF_CYCLES=200
BASIS  =  6-311++G(d,p)
GUI  =  2
JOB_TYPE  =  SP
METHOD  =  B3LYP
SOLVENT_METHOD = PCM
$end
$pcm
theory = CPCM
$end
$solvent
dielectric 37.219
opticaldielectric 1.43
$end

--------------------------------------------------------------

             Standard Nuclear Orientation (Angstroms)
    I     Atom           X                Y                Z
 ----------------------------------------------------------------
    1      C       3.4304930000     5.9716550000     0.6496610000
    2      C       2.1385670000     5.4358480000     1.0732140000
    3      C       1.9918310000     4.0947490000     1.3571030000
    4      C       3.1031870000     3.1770690000     1.2268010000
    5      C       4.3877230000     3.6986020000     0.8145130000
    6      C       4.5457560000     5.0383670000     0.5367570000
    7      O       3.5766410000     7.2010790000     0.3926380000
    8      O       2.9578200000     1.9234530000     1.4723610000
    9      C       5.8763950000     5.5979540000     0.1008820000
   10      C       5.5375140000     2.7280560000     0.6968240000
   11      C       1.0014910000     6.4248440000     1.1864610000
   12      C       0.6843290000     3.4951710000     1.8262860000
   13      C      -0.0069590000     2.5574930000     0.7838340000
   14      C      -0.2347150000     1.1295600000     1.2722940000
   15      O      -1.3292100000     0.5986630000     1.2560840000
   16      O       0.8452610000     0.4944980000     1.7118430000
   17      H       6.6522710000     5.4312780000     0.8584880000
   18      H       5.7812500000     6.6696760000    -0.0723280000
   19      H       6.2318730000     5.1224730000    -0.8217600000
   20      H       5.2038520000     1.7267640000     0.9669240000
   21      H       6.3699690000     3.0102590000     1.3528470000
   22      H       5.9372880000     2.7001420000    -0.3242700000
   23      H       1.3282790000     7.3863140000     0.7906920000
   24      H       0.6949550000     6.5767660000     2.2289510000
   25      H       0.1152280000     6.0968480000     0.6333640000
   26      H      -0.0140790000     4.2862870000     2.0976010000
   27      H       0.8758210000     2.9273470000     2.7421330000
   28      H       0.6127110000     2.5003170000    -0.1167080000
   29      H      -0.9786900000     2.9523680000     0.4859050000
   30      H       1.6773130000     1.0824320000     1.6367220000
 ----------------------------------------------------------------

    8    -767.0047247193      8.62e-06  Convergence criterion met
 Total energy in the final basis set =     -767.0047247193

                    Orbital Energies (a.u.)
 --------------------------------------------------------------

 Alpha MOs
 -- Occupied --
-19.1441 -19.1071 -19.0891 -19.0778 -10.2998 -10.2230 -10.2180 -10.1776
-10.1717 -10.1704 -10.1676 -10.1669 -10.1663 -10.1516 -10.1516 -10.1509
 -1.0931  -1.0160  -1.0026  -1.0003  -0.8354  -0.8013  -0.7646  -0.7236
 -0.7086  -0.6805  -0.6394  -0.6282  -0.5978  -0.5492  -0.5445  -0.5158
 -0.5020  -0.4680  -0.4573  -0.4509  -0.4403  -0.4313  -0.4213  -0.4114
 -0.4038  -0.3970  -0.3899  -0.3864  -0.3854  -0.3818  -0.3725  -0.3671
 -0.3655  -0.3613  -0.3513  -0.3415  -0.3274  -0.3169  -0.2801  -0.2715
 -0.2597  -0.2388  -0.2322  -0.1638

 Beta MOs
 -- Occupied --
-19.1441 -19.1071 -19.0837 -19.0710 -10.2998 -10.2203 -10.2164 -10.1776
-10.1718 -10.1688 -10.1671 -10.1662 -10.1652 -10.1517 -10.1516 -10.1510
 -1.0931  -1.0140  -0.9942  -0.9885  -0.8303  -0.7998  -0.7630  -0.7200
 -0.7064  -0.6784  -0.6331  -0.6272  -0.5967  -0.5459  -0.5402  -0.5150
 -0.5006  -0.4675  -0.4561  -0.4476  -0.4354  -0.4270  -0.4170  -0.4089
 -0.3998  -0.3921  -0.3879  -0.3855  -0.3840  -0.3811  -0.3670  -0.3648
 -0.3563  -0.3498  -0.3405  -0.3387  -0.3259  -0.3164  -0.2782  -0.2550
 -0.2455  -0.2329  -0.2253

          Ground-State Mulliken Net Atomic Charges

     Atom                 Charge (a.u.)    Spin (a.u.)
  --------------------------------------------------------
      1 C                    -1.477043       0.066005
      2 C                     0.748502       0.122143
      3 C                     0.981137       0.037373
      4 C                    -1.135016       0.163093
      5 C                     0.579304       0.024286
      6 C                     0.854377       0.121230
      7 O                    -0.483612       0.253955
      8 O                    -0.555184       0.196714
      9 C                    -0.498348      -0.000531
     10 C                    -0.526073       0.000049
     11 C                    -0.645617      -0.004019
     12 C                    -0.459326      -0.002405
     13 C                    -0.451629       0.000214
     14 C                    -0.005862       0.001034
     15 O                    -0.409598       0.000711
     16 O                    -0.384573       0.002235
     17 H                     0.163662       0.004413
     18 H                     0.175133      -0.001715
     19 H                     0.164254       0.004344
     20 H                     0.174205      -0.000625
     21 H                     0.157923       0.002112
     22 H                     0.158902       0.002102
     23 H                     0.170183      -0.001894
     24 H                     0.185515       0.006110
     25 H                     0.172763       0.004569
     26 H                     0.199204       0.000174
     27 H                     0.201357       0.002841
     28 H                     0.223579       0.001072
     29 H                     0.208997      -0.000065
     30 H                     0.512883      -0.005525
  --------------------------------------------------------
  Sum of atomic charges =    -1.000000

                    Cartesian Multipole Moments
 -----------------------------------------------------------------
    Charge (ESU x 10^10)
                -4.8032
    Dipole Moment (Debye)
         X      -9.2285      Y     -15.3138      Z      -5.3983
       Tot      18.6767
    Quadrupole Moments (Debye-Ang)
        XX    -139.2681     XY     -62.1847     YY    -211.4253
        XZ      -7.6021     YZ      -5.4887     ZZ    -105.3016

 Total job time:  80.95s(wall), 380.66s(cpu)
        *  Thank you very much for using Q-Chem.  Have a nice day.  *
