 Gaussian 16, Revision A.03,
 Gaussian 16:  ES64L-G16RevA.03 25-Dec-2016

 ----------------------------------------------------------------------
 #P UB3LYP/6-311++G(d,p) nosym opt freq SCRF=(PCM,Solvent=n,n-DiMethylF
 ormamide)
 ----------------------------------------------------------------------

 -------
 Radical
 -------
 Symbolic Z-matrix:
 Charge = -1 Multiplicity = 2

 SCF Done:  E(UB3LYP) =  -1608.32080254     A.U. after   21 cycles
 SCF Done:  E(UB3LYP) =  -1608.32101569     A.U. after   16 cycles
 SCF Done:  E(UB3LYP) =  -1608.32104276     A.U. after   16 cycles
 SCF Done:  E(UB3LYP) =  -1608.32104675     A.U. after   16 cycles
 SCF Done:  E(UB3LYP) =  -1608.32106721     A.U. after   14 cycles
 SCF Done:  E(UB3LYP) =  -1608.32106780     A.U. after   11 cycles
 SCF Done:  E(UB3LYP) =  -1608.32106821     A.U. after   13 cycles
 Optimization completed.
    -- Stationary point found.
 Normal termination of Gaussian 16 at Sat Feb 10 16:37:25 2024.

 ----------------------------------------------------------------------
 #P Geom=AllCheck Guess=TCheck SCRF=Check GenChk UB3LYP/6-311++G(d,p) F
 req
 ----------------------------------------------------------------------

 Structure from the checkpoint file:  "122-rad.chk"
 -------
 Radical
 -------
 Charge = -1 Multiplicity = 2

                          Input orientation:
 ---------------------------------------------------------------------
 Center     Atomic      Atomic             Coordinates (Angstroms)
 Number     Number       Type             X           Y           Z
 ---------------------------------------------------------------------
      1         17           0       -2.482470    2.871345    1.595171
      2          6           0       -2.390652    1.207836    0.986362
      3          6           0       -3.611945    0.582256    0.828729
      4          6           0       -3.673014   -0.711415    0.282406
      5          6           0       -2.514680   -1.332211   -0.127346
      6          6           0       -1.260650   -0.700148    0.011101
      7          6           0       -0.079801   -1.403451   -0.479146
      8          8           0       -0.158645   -2.575584   -0.942325
      9          6           0        1.186663   -0.678890   -0.458496
     10          6           0        2.310738   -1.289655   -1.054181
     11          6           0        3.528139   -0.648521   -1.098927
     12          6           0        3.652638    0.644210   -0.561338
     13          6           0        2.566270    1.248967    0.040186
     14         17           0        2.850686    2.913167    0.583403
     15          6           0        1.297999    0.615570    0.144178
     16          6           0        0.156926    1.192390    0.873298
     17          8           0        0.309342    2.107407    1.711728
     18          6           0       -1.163143    0.595000    0.614571
     19          1           0       -4.518245    1.099869    1.115596
     20          1           0       -4.634496   -1.199262    0.170638
     21          1           0       -2.535358   -2.317634   -0.574041
     22          1           0        2.181426   -2.275639   -1.481113
     23          1           0        4.387854   -1.119904   -1.561120
     24          1           0        4.592419    1.177296   -0.626532
 ---------------------------------------------------------------------

 SCF Done:  E(UB3LYP) =  -1608.32106821     A.U. after    1 cycles

 Alpha  occ. eigenvalues -- -101.54849-101.54845 -19.08183 -19.07910 -10.24073
 Alpha  occ. eigenvalues --  -10.24071 -10.23996 -10.22864 -10.19310 -10.19309
 Alpha  occ. eigenvalues --  -10.18363 -10.18362 -10.18360 -10.18360 -10.18077
 Alpha  occ. eigenvalues --  -10.18076 -10.17549 -10.17546  -9.46327  -9.46323
 Alpha  occ. eigenvalues --   -7.22779  -7.22776  -7.21844  -7.21841  -7.21747
 Alpha  occ. eigenvalues --   -7.21743  -1.01402  -1.00388  -0.89034  -0.88858
 Alpha  occ. eigenvalues --   -0.84285  -0.83356  -0.79458  -0.75278  -0.74370
 Alpha  occ. eigenvalues --   -0.73773  -0.67536  -0.64668  -0.63173  -0.58569
 Alpha  occ. eigenvalues --   -0.56034  -0.54262  -0.53198  -0.48314  -0.47814
 Alpha  occ. eigenvalues --   -0.47267  -0.46968  -0.43577  -0.43469  -0.43448
 Alpha  occ. eigenvalues --   -0.42904  -0.41881  -0.41198  -0.39532  -0.39122
 Alpha  occ. eigenvalues --   -0.38647  -0.36782  -0.36601  -0.36007  -0.34938
 Alpha  occ. eigenvalues --   -0.33532  -0.32740  -0.32155  -0.30973  -0.27541
 Alpha  occ. eigenvalues --   -0.25978  -0.25333  -0.25323  -0.24841  -0.23501
 Alpha  occ. eigenvalues --   -0.14666
 Alpha virt. eigenvalues --   -0.06355  -0.03191  -0.01487  -0.00215   0.00476
 Alpha virt. eigenvalues --    0.00503   0.01382   0.01778   0.02855   0.02974
 Alpha virt. eigenvalues --    0.03838   0.04371   0.04543   0.04746   0.05259

  Beta  occ. eigenvalues -- -101.54849-101.54845 -19.07624 -19.07334 -10.24081
  Beta  occ. eigenvalues --  -10.24080 -10.23869 -10.22676 -10.19216 -10.19215
  Beta  occ. eigenvalues --  -10.18302 -10.18300 -10.18286 -10.18283 -10.18032
  Beta  occ. eigenvalues --  -10.18032 -10.17539 -10.17536  -9.46326  -9.46323
  Beta  occ. eigenvalues --   -7.22779  -7.22776  -7.21841  -7.21837  -7.21747
  Beta  occ. eigenvalues --   -7.21744  -1.00445  -0.99369  -0.88869  -0.88787
  Beta  occ. eigenvalues --   -0.84100  -0.83284  -0.79094  -0.75080  -0.74072
  Beta  occ. eigenvalues --   -0.73652  -0.66845  -0.64477  -0.62913  -0.58488
  Beta  occ. eigenvalues --   -0.55812  -0.53983  -0.53079  -0.48107  -0.47626
  Beta  occ. eigenvalues --   -0.47093  -0.46900  -0.43487  -0.43402  -0.42772
  Beta  occ. eigenvalues --   -0.42479  -0.41339  -0.40844  -0.39303  -0.38808
  Beta  occ. eigenvalues --   -0.36934  -0.36557  -0.35874  -0.35782  -0.34513
  Beta  occ. eigenvalues --   -0.33358  -0.32089  -0.31996  -0.30888  -0.25495
  Beta  occ. eigenvalues --   -0.25430  -0.24989  -0.24422  -0.24322  -0.23023
  Beta virt. eigenvalues --   -0.08784  -0.05373  -0.02098  -0.01260  -0.00199
  Beta virt. eigenvalues --    0.00497   0.00505   0.01389   0.01789   0.02854
  Beta virt. eigenvalues --    0.03048   0.04255   0.04438   0.04946   0.05260

 Mulliken charges and spin densities:
               1          2
     1  Cl   0.405420  -0.001263
     2  C    0.614202   0.004193
     3  C   -0.333653   0.040340
     4  C   -0.761011   0.033425
     5  C    0.311114   0.034270
     6  C    0.325094   0.025988
     7  C   -0.865980   0.098322
     8  O   -0.441258   0.215571
     9  C    0.326944   0.026149
    10  C    0.312959   0.034366
    11  C   -0.761772   0.033396
    12  C   -0.330563   0.040419
    13  C    0.618024   0.004094
    14  Cl   0.405086  -0.001238
    15  C    0.423221   0.080564
    16  C   -2.535514   0.066648
    17  O   -0.281267   0.200688
    18  C    0.427742   0.080586
    19  H    0.202036  -0.003622
    20  H    0.186664  -0.002752
    21  H    0.181877  -0.001880
    22  H    0.181934  -0.001883
    23  H    0.186616  -0.002751
    24  H    0.202083  -0.003631
 Sum of Mulliken charges =  -1.00000   1.00000

 Dipole moment (field-independent basis, Debye):
    X=             -0.5923    Y=             -2.8043    Z=             -3.2239  Tot=              4.3138
 Quadrupole moment (field-independent basis, Debye-Ang):
   XX=           -114.4810   YY=           -154.0721   ZZ=           -132.3235
   XY=             -2.6382   XZ=             -3.4178   YZ=            -15.6470

  Exact polarizability: 467.794  20.062 363.879 -53.332  99.926 204.132
 Approx polarizability: 481.170  23.784 425.732 -49.255 121.155 239.114

                      1                      2                      3
                      A                      A                      A
 Frequencies --     42.9075                50.2026                75.1019
 Red. masses --     10.2644                 8.9365                11.1272
 Frc consts  --      0.0111                 0.0133                 0.0370
 IR Inten    --      0.2498                12.6915                 2.4467

                      4                      5                      6
                      A                      A                      A
 Frequencies --    153.7599               164.1986               188.6897
 Red. masses --     12.6059                 9.7250                 4.4241
 Frc consts  --      0.1756                 0.1545                 0.0928
 IR Inten    --      3.3115                 6.5498                 0.0273

                      7                      8                      9
                      A                      A                      A
 Frequencies --    209.1305               218.2647               263.9895
 Red. masses --      5.1822                13.8984                 7.0960
 Frc consts  --      0.1335                 0.3901                 0.2914
 IR Inten    --      3.4468                 0.0379                 0.2307

                     10                     11                     12
                      A                      A                      A
 Frequencies --    306.9571               326.8664               379.5784
 Red. masses --      7.7027                14.4441                 9.4923
 Frc consts  --      0.4276                 0.9092                 0.8058
 IR Inten    --      1.1425                 0.0723                 5.2291

                     13                     14                     15
                      A                      A                      A
 Frequencies --    381.1380               391.8309               398.8053
 Red. masses --      7.2010                11.5171                 6.5550
 Frc consts  --      0.6163                 1.0418                 0.6143
 IR Inten    --      8.2856                15.4212                 0.3283

                     16                     17                     18
                      A                      A                      A
 Frequencies --    430.6843               480.1723               489.1180
 Red. masses --      8.3154                 8.6108                 6.0365
 Frc consts  --      0.9088                 1.1697                 0.8509
 IR Inten    --     20.6278                 5.4030                 5.6412

                     19                     20                     21
                      A                      A                      A
 Frequencies --    498.7085               513.4404               550.9783
 Red. masses --      4.1277                 8.8814                 5.3232
 Frc consts  --      0.6049                 1.3795                 0.9521
 IR Inten    --      0.4363                 3.2482                 2.2641

                     22                     23                     24
                      A                      A                      A
 Frequencies --    610.1977               644.2220               680.1971
 Red. masses --      5.3683                 5.1451                 7.0783
 Frc consts  --      1.1777                 1.2581                 1.9295
 IR Inten    --     35.2295                34.3585                25.2125

                     25                     26                     27
                      A                      A                      A
 Frequencies --    713.3447               722.7841               730.9783
 Red. masses --      5.3911                 3.3393                 4.6469
 Frc consts  --      1.6163                 1.0278                 1.4629
 IR Inten    --     25.3588                82.8935                17.7576

                     28                     29                     30
                      A                      A                      A
 Frequencies --    759.8896               784.8230               793.8725
 Red. masses --      6.5001                 2.0165                 1.4986
 Frc consts  --      2.2114                 0.7318                 0.5565
 IR Inten    --     99.3263                73.5085                 2.7032

                     31                     32                     33
                      A                      A                      A
 Frequencies --    825.8424               846.8424               915.0658
 Red. masses --      4.0625                 8.9632                 1.3818
 Frc consts  --      1.6324                 3.7872                 0.6817
 IR Inten    --     29.9232               184.7356                 2.1901

                     34                     35                     36
                      A                      A                      A
 Frequencies --    916.8559               925.4568               970.5875
 Red. masses --      1.4110                 6.6233                 7.9950
 Frc consts  --      0.6988                 3.3422                 4.4375
 IR Inten    --      0.3270                 8.5820                 5.6348

                     37                     38                     39
                      A                      A                      A
 Frequencies --    996.6390               998.1021              1081.9286
 Red. masses --      1.3104                 1.3188                 2.4049
 Frc consts  --      0.7669                 0.7740                 1.6586
 IR Inten    --      0.0716                 2.2717                 3.3493

                     40                     41                     42
                      A                      A                      A
 Frequencies --   1091.0388              1125.9860              1126.2471
 Red. masses --      1.8873                 3.9088                 2.4057
 Frc consts  --      1.3237                 2.9198                 1.7979
 IR Inten    --     79.2199                29.2398                 0.0804

                     43                     44                     45
                      A                      A                      A
 Frequencies --   1157.7772              1175.7063              1194.5348
 Red. masses --      2.0203                 1.6152                 1.9133
 Frc consts  --      1.5956                 1.3155                 1.6085
 IR Inten    --     81.1171                 0.7321                 1.5630

                     46                     47                     48
                      A                      A                      A
 Frequencies --   1223.2807              1230.3472              1315.5108
 Red. masses --      2.2793                 2.4057                 3.6970
 Frc consts  --      2.0096                 2.1456                 3.7696
 IR Inten    --      6.1466               217.1457                 7.2339

                     49                     50                     51
                      A                      A                      A
 Frequencies --   1336.7148              1347.0142              1384.2910
 Red. masses --     10.5209                 4.3327                 3.8198
 Frc consts  --     11.0760                 4.6319                 4.3127
 IR Inten    --     15.8620                48.5726              1085.8779

                     52                     53                     54
                      A                      A                      A
 Frequencies --   1409.8613              1454.3285              1468.6047
 Red. masses --      2.8856                 2.6850                 3.3935
 Frc consts  --      3.3794                 3.3459                 4.3123
 IR Inten    --    100.3933                81.8154                99.5583

                     55                     56                     57
                      A                      A                      A
 Frequencies --   1497.8391              1536.3591              1545.0407
 Red. masses --      5.0648                 6.4045                 5.1407
 Frc consts  --      6.6949                 8.9067                 7.2302
 IR Inten    --   1485.2291               229.8876               161.1886

                     58                     59                     60
                      A                      A                      A
 Frequencies --   1598.6765              1609.3495              1620.9518
 Red. masses --      8.9921                 5.6020                 6.5979
 Frc consts  --     13.5404                 8.5485                10.2140
 IR Inten    --     61.2017                20.2672                16.8331

                     61                     62                     63
                      A                      A                      A
 Frequencies --   3175.1484              3175.3212              3197.4362
 Red. masses --      1.0877                 1.0879                 1.0918
 Frc consts  --      6.4610                 6.4628                 6.5762
 IR Inten    --     22.3808                12.2305                 3.2549

                     64                     65                     66
                      A                      A                      A
 Frequencies --   3197.5840              3203.6832              3204.2727
 Red. masses --      1.0918                 1.0944                 1.0943
 Frc consts  --      6.5770                 6.6178                 6.6200
 IR Inten    --      3.9370                34.3808                 6.1277

 - Thermochemistry -
 -------------------
 Temperature   298.150 Kelvin.  Pressure   1.00000 Atm.
 Atom     1 has atomic number 17 and mass  34.96885

 Molecular mass:   275.97448 amu.
 Principal axes and moments of inertia in atomic units:
                           1         2         3
     Eigenvalues --  3491.673555891.053169286.85328
           X            0.98222   0.06639   0.17558
           Y            0.00832   0.91905  -0.39406
           Z           -0.18753   0.38852   0.90216
 This molecule is an asymmetric top.
 Rotational symmetry number  1.
 Warning -- assumption of classical behavior for rotation
           may cause significant error
 Rotational temperatures (Kelvin)      0.02481     0.01470     0.00933
 Rotational constants (GHZ):           0.51687     0.30635     0.19433
 Zero-point vibrational energy     412921.3 (Joules/Mol)
                                   98.69057 (Kcal/Mol)
 Warning -- explicit consideration of  22 degrees of freedom as
           vibrations may cause significant error
 Vibrational temperatures:     61.73    72.23   108.05   221.23   236.25
          (Kelvin)            271.48   300.89   314.03   379.82   441.64
                              470.29   546.13   548.37   563.76   573.79
                              619.66   690.86   703.73   717.53   738.73
                              792.73   877.94   926.89   978.65  1026.34
                             1039.93  1051.71  1093.31  1129.19  1142.21
                             1188.20  1218.42  1316.58  1319.15  1331.53
                             1396.46  1433.94  1436.05  1556.65  1569.76
                             1620.04  1620.42  1665.78  1691.58  1718.67
                             1760.03  1770.20  1892.73  1923.23  1938.05
                             1991.69  2028.48  2092.45  2112.99  2155.06
                             2210.48  2222.97  2300.14  2315.49  2332.19
                             4568.33  4568.58  4600.40  4600.61  4609.39
                             4610.23

 Zero-point correction=                           0.157273 (Hartree/Particle)
 Thermal correction to Energy=                    0.171064
 Thermal correction to Enthalpy=                  0.172008
 Thermal correction to Gibbs Free Energy=         0.115077
 Sum of electronic and zero-point Energies=          -1608.163795
 Sum of electronic and thermal Energies=             -1608.150004
 Sum of electronic and thermal Enthalpies=           -1608.149060
 Sum of electronic and thermal Free Energies=        -1608.205992

                     E (Thermal)             CV                S
                      KCal/Mol        Cal/Mol-Kelvin    Cal/Mol-Kelvin
 Total                  107.344             54.050            119.822
 Electronic               0.000              0.000              1.377
 Translational            0.889              2.981             42.744
 Rotational               0.889              2.981             33.612
 Vibrational            105.567             48.088             42.088
 Vibration     1          0.595              1.980              5.120
 Vibration     2          0.595              1.978              4.809
 Vibration     3          0.599              1.966              4.015
 Vibration     4          0.619              1.898              2.625
 Vibration     5          0.623              1.886              2.501
 Vibration     6          0.633              1.855              2.241
 Vibration     7          0.642              1.827              2.051
 Vibration     8          0.646              1.813              1.973
 Vibration     9          0.671              1.739              1.635
 Vibration    10          0.697              1.660              1.379
 Vibration    11          0.711              1.622              1.276
 Vibration    12          0.750              1.514              1.041
 Vibration    13          0.751              1.510              1.035
 Vibration    14          0.759              1.488              0.993
 Vibration    15          0.765              1.473              0.967
 Vibration    16          0.792              1.403              0.856
 Vibration    17          0.837              1.294              0.710
 Vibration    18          0.845              1.274              0.686
 Vibration    19          0.854              1.253              0.661
 Vibration    20          0.869              1.220              0.625
 Vibration    21          0.906              1.138              0.542
 Vibration    22          0.969              1.010              0.432

                           ! Non-Optimized Parameters !
 Normal termination of Gaussian 16 at Sat Feb 10 17:43:02 2024.
