 Gaussian 16, Revision A.03,
 Gaussian 16:  ES64L-G16RevA.03 25-Dec-2016

 --------------------------------------
 #P UB3LYP/6-311++G(d,p) nosym opt freq
 --------------------------------------

 -------
 Reduced
 -------
 Symbolic Z-matrix:
 Charge = -3 Multiplicity = 1

 SCF Done:  E(UB3LYP) =  -1158.40879193     A.U. after   43 cycles
 SCF Done:  E(UB3LYP) =  -1158.42434058     A.U. after   27 cycles
 SCF Done:  E(UB3LYP) =  -1158.42715123     A.U. after   27 cycles
 SCF Done:  E(UB3LYP) =  -1158.42764617     A.U. after   25 cycles
 SCF Done:  E(UB3LYP) =  -1158.42767286     A.U. after   24 cycles
 SCF Done:  E(UB3LYP) =  -1158.42767363     A.U. after   25 cycles
 SCF Done:  E(UB3LYP) =  -1158.42768267     A.U. after   24 cycles
 SCF Done:  E(UB3LYP) =  -1158.42768461     A.U. after   28 cycles
 Optimization completed.
    -- Stationary point found.
 Normal termination of Gaussian 16 at Thu Dec 28 20:51:13 2023.

 ----------------------------------------------------------------------
 #P Geom=AllCheck Guess=TCheck SCRF=Check GenChk UB3LYP/6-311++G(d,p) F
 req
 ----------------------------------------------------------------------

 Structure from the checkpoint file:  "315-an.chk"
 -------
 Reduced
 -------
 Charge = -3 Multiplicity = 1

                          Input orientation:
 ---------------------------------------------------------------------
 Center     Atomic      Atomic             Coordinates (Angstroms)
 Number     Number       Type             X           Y           Z
 ---------------------------------------------------------------------
      1          6           0       -5.034591   -0.074764   -3.959684
      2          6           0       -4.480526   -0.055353   -5.231280
      3          6           0       -3.075457   -0.012345   -5.378819
      4          6           0       -4.240655   -0.050020   -2.793868
      5          6           0       -2.818433    0.027418   -2.944473
      6          6           0       -2.274124    0.027964   -4.250037
      7          6           0       -4.908682   -0.093693   -1.468542
      8          6           0       -3.996151   -0.033208   -0.341088
      9          6           0       -2.619882    0.044377   -0.509368
     10          6           0       -1.943853    0.083474   -1.773699
     11          8           0       -6.162968   -0.166972   -1.386529
     12          8           0       -0.668371    0.151989   -1.874242
     13         16           0       -4.621312   -0.065164    1.394848
     14          8           0       -5.496646    1.133605    1.573034
     15          8           0       -5.341065   -1.361902    1.584551
     16          8           0       -3.390477    0.015712    2.254190
     17          1           0       -6.109813   -0.112927   -3.816726
     18          1           0       -5.116991   -0.075877   -6.115634
     19          1           0       -2.634424   -0.007425   -6.375781
     20          1           0       -1.192242    0.064905   -4.330835
     21          1           0       -2.001247    0.082177    0.379930
 ---------------------------------------------------------------------

 SCF Done:  E(UB3LYP) =  -1158.42768461     A.U. after    4 cycles

 Alpha  occ. eigenvalues --  -88.68552 -18.72897 -18.72843 -18.72834 -18.72706
 Alpha  occ. eigenvalues --  -18.72415  -9.88610  -9.87919  -9.85504  -9.85396
 Alpha  occ. eigenvalues --   -9.85009  -9.84938  -9.84317  -9.84159  -9.84089
 Alpha  occ. eigenvalues --   -9.82365  -7.74375  -5.70655  -5.70637  -5.70552
 Alpha  occ. eigenvalues --   -0.74085  -0.64721  -0.63924  -0.60530  -0.60351
 Alpha  occ. eigenvalues --   -0.52821  -0.46702  -0.42379  -0.41117  -0.33921
 Alpha  occ. eigenvalues --   -0.29915  -0.28355  -0.24124  -0.21687  -0.17480
 Alpha  occ. eigenvalues --   -0.16311  -0.13471  -0.12546  -0.10440  -0.10028
 Alpha  occ. eigenvalues --   -0.08985  -0.08439  -0.07820  -0.07002  -0.06073
 Alpha  occ. eigenvalues --   -0.05045  -0.02479  -0.01994  -0.01782  -0.00790
 Alpha  occ. eigenvalues --    0.02868   0.03132   0.05537   0.05901   0.07042
 Alpha  occ. eigenvalues --    0.07116   0.07829   0.09300   0.10313   0.10906
 Alpha  occ. eigenvalues --    0.11363   0.20476
 Alpha virt. eigenvalues --    0.22056   0.23553   0.26729   0.28122   0.28832
 Alpha virt. eigenvalues --    0.29182   0.30922   0.32616   0.33179   0.34097
 Alpha virt. eigenvalues --    0.34564   0.34816   0.35400   0.35675   0.36410

  Beta  occ. eigenvalues --  -88.68552 -18.72897 -18.72843 -18.72834 -18.72706
  Beta  occ. eigenvalues --  -18.72415  -9.88610  -9.87919  -9.85504  -9.85396
  Beta  occ. eigenvalues --   -9.85009  -9.84938  -9.84317  -9.84159  -9.84089
  Beta  occ. eigenvalues --   -9.82365  -7.74375  -5.70655  -5.70637  -5.70552
  Beta  occ. eigenvalues --   -0.74085  -0.64721  -0.63924  -0.60530  -0.60351
  Beta  occ. eigenvalues --   -0.52821  -0.46702  -0.42379  -0.41117  -0.33921
  Beta  occ. eigenvalues --   -0.29915  -0.28355  -0.24124  -0.21687  -0.17480
  Beta  occ. eigenvalues --   -0.16311  -0.13471  -0.12546  -0.10440  -0.10028
  Beta  occ. eigenvalues --   -0.08985  -0.08439  -0.07820  -0.07002  -0.06073
  Beta  occ. eigenvalues --   -0.05045  -0.02479  -0.01994  -0.01782  -0.00790
  Beta  occ. eigenvalues --    0.02868   0.03132   0.05537   0.05901   0.07042
  Beta  occ. eigenvalues --    0.07116   0.07829   0.09300   0.10313   0.10906
  Beta  occ. eigenvalues --    0.11363   0.20476
  Beta virt. eigenvalues --    0.22056   0.23553   0.26729   0.28122   0.28832
  Beta virt. eigenvalues --    0.29182   0.30922   0.32616   0.33179   0.34097
  Beta virt. eigenvalues --    0.34564   0.34816   0.35400   0.35675   0.36410

 Mulliken charges and spin densities:
               1          2
     1  C   -0.517596  -0.000000
     2  C    1.545149  -0.000000
     3  C    2.261247   0.000000
     4  C    0.498096  -0.000000
     5  C    0.293948   0.000000
     6  C   -0.714488   0.000000
     7  C   -0.489594   0.000000
     8  C   -0.275212   0.000000
     9  C    0.058962   0.000000
    10  C   -0.712602  -0.000000
    11  O   -0.363636   0.000000
    12  O   -0.492346   0.000000
    13  S    0.678985   0.000000
    14  O   -0.356010   0.000000
    15  O   -0.347901   0.000000
    16  O   -0.435966  -0.000000
    17  H    0.232287   0.000000
    18  H   -1.860417   0.000000
    19  H   -2.473819  -0.000000
    20  H    0.262135  -0.000000
    21  H    0.208778   0.000000
 Sum of Mulliken charges =  -3.00000   0.00000

 Dipole moment (field-independent basis, Debye):
    X=             56.5185    Y=              0.5148    Z=             29.4977  Tot=             63.7551
 Quadrupole moment (field-independent basis, Debye-Ang):
   XX=           -404.1090   YY=           -132.3994   ZZ=           -399.0807
   XY=             -2.5656   XZ=            -92.5453   YZ=             -0.4287

  Exact polarizability:1113.277 -64.815 175.809 -28.631   2.4981319.461
 Approx polarizability:1390.029 -24.621 240.522 450.907  58.4288855.263

                      1                      2                      3
                      A                      A                      A
 Frequencies --     45.4341                56.2802               134.5229
 Red. masses --     12.1473                10.0824                 5.2588
 Frc consts  --      0.0148                 0.0188                 0.0561
 IR Inten    --      1.7859                11.1263                 0.8074

                      4                      5                      6
                      A                      A                      A
 Frequencies --    136.7847               143.6543               215.2074
 Red. masses --      7.4437                11.2605                 6.8212
 Frc consts  --      0.0821                 0.1369                 0.1861
 IR Inten    --      1.6330                 5.5884                65.2574

                      7                      8                      9
                      A                      A                      A
 Frequencies --    229.7536               271.0510               278.2214
 Red. masses --     12.4532                 6.9978                 6.6197
 Frc consts  --      0.3873                 0.3029                 0.3019
 IR Inten    --      1.1738                 5.4390                12.7936

                     10                     11                     12
                      A                      A                      A
 Frequencies --    296.3881               356.3664               403.9078
 Red. masses --     15.2693                10.9058                 8.6572
 Frc consts  --      0.7903                 0.8160                 0.8321
 IR Inten    --     18.9092                83.9466                11.2770

                     13                     14                     15
                      A                      A                      A
 Frequencies --    434.3259               460.0999               472.0011
 Red. masses --      3.3481                11.0963                 6.0700
 Frc consts  --      0.3721                 1.3840                 0.7968
 IR Inten    --     19.2167               499.7845               103.9959

                     16                     17                     18
                      A                      A                      A
 Frequencies --    480.8355               491.6180               535.1835
 Red. masses --      7.7154                16.4548                 8.9231
 Frc consts  --      1.0510                 2.3431                 1.5058
 IR Inten    --    163.0460                11.7485                31.5452

                     19                     20                     21
                      A                      A                      A
 Frequencies --    571.1768               617.4568               654.1588
 Red. masses --      8.5382                13.6221                 3.7959
 Frc consts  --      1.6412                 3.0599                 0.9571
 IR Inten    --    150.3410               458.3742                 9.0837

                     22                     23                     24
                      A                      A                      A
 Frequencies --    662.9806               701.7555               718.4786
 Red. masses --      6.1427                 5.5277                 6.0972
 Frc consts  --      1.5908                 1.6039                 1.8544
 IR Inten    --    139.7942                36.2198                 6.8529

                     25                     26                     27
                      A                      A                      A
 Frequencies --    779.4114               806.4356               828.1090
 Red. masses --      5.0855                 8.2213                 5.4853
 Frc consts  --      1.8202                 3.1502                 2.2163
 IR Inten    --      4.5526               161.9902                95.1280

                     28                     29                     30
                      A                      A                      A
 Frequencies --    879.7946               892.2392               900.8385
 Red. masses --      1.3665                 1.4255                 1.4951
 Frc consts  --      0.6232                 0.6686                 0.7148
 IR Inten    --      9.3430                42.8513                36.1521

                     31                     32                     33
                      A                      A                      A
 Frequencies --    953.2191              1011.2947              1022.9399
 Red. masses --     15.7598                 1.2567                 2.6370
 Frc consts  --      8.4370                 0.7572                 1.6258
 IR Inten    --   1182.9117                32.9999                63.1981

                     34                     35                     36
                      A                      A                      A
 Frequencies --   1073.2003              1089.6699              1096.4621
 Red. masses --      3.3425                 3.0557                 5.6135
 Frc consts  --      2.2682                 2.1377                 3.9763
 IR Inten    --     22.2387                27.9075               195.0268

                     37                     38                     39
                      A                      A                      A
 Frequencies --   1123.8326              1135.6727              1148.7920
 Red. masses --     20.4124                 1.9617                 2.7262
 Frc consts  --     15.1896                 1.4907                 2.1198
 IR Inten    --    299.9410               345.2755               116.9600

                     40                     41                     42
                      A                      A                      A
 Frequencies --   1192.0105              1224.5928              1270.5923
 Red. masses --      1.4326                 1.6595                 1.8695
 Frc consts  --      1.1993                 1.4662                 1.7782
 IR Inten    --   1651.4585               326.8552               563.4725

                     43                     44                     45
                      A                      A                      A
 Frequencies --   1285.3110              1351.5642              1386.9267
 Red. masses --      2.3521                 6.1126                 3.4278
 Frc consts  --      2.2894                 6.5788                 3.8848
 IR Inten    --   1168.5011               689.0148               399.9163

                     46                     47                     48
                      A                      A                      A
 Frequencies --   1408.8453              1443.0072              1463.8002
 Red. masses --      4.6925                 5.1790                 3.4566
 Frc consts  --      5.4876                 6.3538                 4.3638
 IR Inten    --    209.1734               422.3677               336.5073

                     49                     50                     51
                      A                      A                      A
 Frequencies --   1517.2692              1552.1010              1596.2760
 Red. masses --      8.9925                 6.5803                 5.4282
 Frc consts  --     12.1971                 9.3398                 8.1494
 IR Inten    --    775.6463              3430.7080               628.6403

                     52                     53                     54
                      A                      A                      A
 Frequencies --   1728.2993              3107.6083              3146.3814
 Red. masses --      1.6992                 1.0913                 1.0884
 Frc consts  --      2.9903                 6.2094                 6.3481
 IR Inten    --  10014.4164               261.8617               511.7856

                     55                     56                     57
                      A                      A                      A
 Frequencies --   3156.8208              3165.1368              3178.0730
 Red. masses --      1.0903                 1.0821                 1.0876
 Frc consts  --      6.4018                 6.3870                 6.4722
 IR Inten    --     61.2920              2304.1319                 3.7206

 - Thermochemistry -
 -------------------
 Temperature   298.150 Kelvin.  Pressure   1.00000 Atm.
 Atom     1 has atomic number  6 and mass  12.00000

 Molecular mass:   236.98577 amu.
 Principal axes and moments of inertia in atomic units:
                           1         2         3
     Eigenvalues --  1799.557865494.124266936.35477
           X           -0.24629   0.96768  -0.05425
           Y           -0.01137   0.05308   0.99853
           Z            0.96913   0.24654  -0.00208
 This molecule is an asymmetric top.
 Rotational symmetry number  1.
 Warning -- assumption of classical behavior for rotation
           may cause significant error
 Rotational temperatures (Kelvin)      0.04813     0.01576     0.01249
 Rotational constants (GHZ):           1.00288     0.32849     0.26019
 Zero-point vibrational energy     348616.8 (Joules/Mol)
                                   83.32141 (Kcal/Mol)
 Warning -- explicit consideration of  20 degrees of freedom as
           vibrations may cause significant error
 Vibrational temperatures:     65.37    80.97   193.55   196.80   206.69
          (Kelvin)            309.64   330.56   389.98   400.30   426.44
                              512.73   581.13   624.90   661.98   679.10
                              691.81   707.33   770.01   821.80   888.38
                              941.19   953.88  1009.67  1033.73  1121.40
                             1160.28  1191.46  1265.83  1283.73  1296.11
                             1371.47  1455.03  1471.78  1544.10  1567.79
                             1577.56  1616.94  1633.98  1652.86  1715.04
                             1761.92  1828.10  1849.28  1944.60  1995.48
                             2027.01  2076.17  2106.08  2183.01  2233.13
                             2296.69  2486.64  4471.16  4526.94  4541.96
                             4553.93  4572.54

 Zero-point correction=                           0.132781 (Hartree/Particle)
 Thermal correction to Energy=                    0.145330
 Thermal correction to Enthalpy=                  0.146274
 Thermal correction to Gibbs Free Energy=         0.093067
 Sum of electronic and zero-point Energies=          -1158.294903
 Sum of electronic and thermal Energies=             -1158.282354
 Sum of electronic and thermal Enthalpies=           -1158.281410
 Sum of electronic and thermal Free Energies=        -1158.334618

                     E (Thermal)             CV                S
                      KCal/Mol        Cal/Mol-Kelvin    Cal/Mol-Kelvin
 Total                   91.196             48.426            111.984
 Electronic               0.000              0.000              0.000
 Translational            0.889              2.981             42.290
 Rotational               0.889              2.981             32.595
 Vibrational             89.419             42.464             37.100
 Vibration     1          0.595              1.979              5.007
 Vibration     2          0.596              1.975              4.584
 Vibration     3          0.613              1.919              2.880
 Vibration     4          0.614              1.917              2.848
 Vibration     5          0.616              1.909              2.755
 Vibration     6          0.645              1.818              1.999
 Vibration     7          0.652              1.796              1.881
 Vibration     8          0.675              1.727              1.589
 Vibration     9          0.679              1.714              1.545
 Vibration    10          0.690              1.680              1.437
 Vibration    11          0.732              1.562              1.138
 Vibration    12          0.769              1.462              0.948
 Vibration    13          0.795              1.395              0.845
 Vibration    14          0.818              1.339              0.766
 Vibration    15          0.829              1.312              0.732
 Vibration    16          0.837              1.293              0.708
 Vibration    17          0.847              1.269              0.679
 Vibration    18          0.890              1.172              0.576
 Vibration    19          0.927              1.094              0.502
 Vibration    20          0.977              0.995              0.421

                           ! Non-Optimized Parameters !
 Normal termination of Gaussian 16 at Thu Dec 28 21:19:51 2023.
