 Gaussian 16, Revision A.03,
 Gaussian 16:  ES64L-G16RevA.03 25-Dec-2016

 ----------------------------------------------------------------------
 #P UB3LYP/6-311++G(d,p) nosym opt freq SCRF=(PCM,Solvent=n,n-DiMethylF
 ormamide)
 ----------------------------------------------------------------------

 -------
 Reduced
 -------
 Symbolic Z-matrix:
 Charge = -2 Multiplicity = 1

 SCF Done:  E(UB3LYP) =  -744.547022032     A.U. after   20 cycles
 SCF Done:  E(UB3LYP) =  -744.550727136     A.U. after   15 cycles
 SCF Done:  E(UB3LYP) =  -744.551361544     A.U. after   16 cycles
 SCF Done:  E(UB3LYP) =  -744.551379570     A.U. after   14 cycles
 SCF Done:  E(UB3LYP) =  -744.551394708     A.U. after   14 cycles
 SCF Done:  E(UB3LYP) =  -744.551401168     A.U. after   13 cycles
 SCF Done:  E(UB3LYP) =  -744.551402524     A.U. after   13 cycles
 SCF Done:  E(UB3LYP) =  -744.551403001     A.U. after   13 cycles
 Optimization completed.
    -- Stationary point found.
 Normal termination of Gaussian 16 at Sun Feb 11 16:16:00 2024.

 ----------------------------------------------------------------------
 #P Geom=AllCheck Guess=TCheck SCRF=Check GenChk UB3LYP/6-311++G(d,p) F
 req
 ----------------------------------------------------------------------

 Structure from the checkpoint file:  "320-an.chk"
 -------
 Reduced
 -------
 Charge = -2 Multiplicity = 1

                          Input orientation:
 ---------------------------------------------------------------------
 Center     Atomic      Atomic             Coordinates (Angstroms)
 Number     Number       Type             X           Y           Z
 ---------------------------------------------------------------------
      1          6           0       -0.524932    3.863195    0.360948
      2          6           0        0.555977    2.962488    0.391012
      3          6           0        0.422319    1.689386   -0.168364
      4          6           0       -0.826013    1.359945   -0.754971
      5          6           0        1.546443    0.734083   -0.167812
      6          6           0        1.511244   -0.691710    0.102920
      7          6           0        2.874206    1.031180   -0.391945
      8          6           0        2.849312   -1.177752    0.030597
      9          6           0        0.489007   -1.598193    0.437439
     10          6           0        0.805959   -2.931686    0.666329
     11          6           0        2.136278   -3.390542    0.570873
     12          6           0        3.172814   -2.520186    0.255959
     13          7           0        3.657807   -0.105629   -0.261428
     14          1           0       -0.948874    0.383815   -1.220015
     15          1           0        3.329961    1.976356   -0.642994
     16          1           0       -0.536553   -1.257256    0.516183
     17          1           0        0.020201   -3.633530    0.924156
     18          1           0        2.354812   -4.437502    0.750601
     19          1           0        4.198081   -2.868450    0.192542
     20          1           0        4.652111   -0.145149   -0.417433
     21          6           0       -1.786467    3.570705   -0.212714
     22          6           0       -1.940974    2.229609   -0.820164
     23          8           0       -2.766210    4.431023   -0.212995
     24          8           0       -3.059942    1.875195   -1.391002
     25          1           0       -0.408525    4.846394    0.816261
     26          1           0        1.486889    3.250912    0.872715
 ---------------------------------------------------------------------

 SCF Done:  E(UB3LYP) =  -744.551403001     A.U. after    2 cycles

 Alpha  occ. eigenvalues --  -19.01200 -19.01065 -14.34712 -10.20053 -10.18834
 Alpha  occ. eigenvalues --  -10.17120 -10.16720 -10.16623 -10.16478 -10.16234
 Alpha  occ. eigenvalues --  -10.16111 -10.16080 -10.15782 -10.13427 -10.12254
 Alpha  occ. eigenvalues --  -10.11253 -10.11084  -0.97265  -0.92973  -0.90030
 Alpha  occ. eigenvalues --   -0.83827  -0.80159  -0.76457  -0.73283  -0.71597
 Alpha  occ. eigenvalues --   -0.67971  -0.65424  -0.61885  -0.58875  -0.57390
 Alpha  occ. eigenvalues --   -0.54483  -0.53443  -0.50793  -0.47871  -0.46808
 Alpha  occ. eigenvalues --   -0.43939  -0.42929  -0.42472  -0.42308  -0.41122
 Alpha  occ. eigenvalues --   -0.39665  -0.38817  -0.36242  -0.35868  -0.35412
 Alpha  occ. eigenvalues --   -0.34893  -0.33836  -0.33618  -0.31837  -0.30927
 Alpha  occ. eigenvalues --   -0.28967  -0.27402  -0.26150  -0.22449  -0.20673
 Alpha  occ. eigenvalues --   -0.19739  -0.17833  -0.17288  -0.12072
 Alpha virt. eigenvalues --   -0.01949  -0.00099   0.00902   0.01112   0.01449
 Alpha virt. eigenvalues --    0.02209   0.02680   0.02899   0.03320   0.03705
 Alpha virt. eigenvalues --    0.04210   0.04803   0.05182   0.05885   0.06535

  Beta  occ. eigenvalues --  -19.01200 -19.01065 -14.34712 -10.20053 -10.18834
  Beta  occ. eigenvalues --  -10.17120 -10.16720 -10.16623 -10.16478 -10.16234
  Beta  occ. eigenvalues --  -10.16111 -10.16080 -10.15782 -10.13427 -10.12254
  Beta  occ. eigenvalues --  -10.11253 -10.11084  -0.97265  -0.92973  -0.90030
  Beta  occ. eigenvalues --   -0.83827  -0.80159  -0.76457  -0.73283  -0.71597
  Beta  occ. eigenvalues --   -0.67971  -0.65424  -0.61885  -0.58875  -0.57390
  Beta  occ. eigenvalues --   -0.54483  -0.53443  -0.50793  -0.47871  -0.46808
  Beta  occ. eigenvalues --   -0.43939  -0.42929  -0.42472  -0.42308  -0.41122
  Beta  occ. eigenvalues --   -0.39665  -0.38817  -0.36242  -0.35868  -0.35412
  Beta  occ. eigenvalues --   -0.34893  -0.33836  -0.33618  -0.31837  -0.30927
  Beta  occ. eigenvalues --   -0.28967  -0.27402  -0.26150  -0.22449  -0.20673
  Beta  occ. eigenvalues --   -0.19739  -0.17833  -0.17288  -0.12072
  Beta virt. eigenvalues --   -0.01949  -0.00099   0.00902   0.01112   0.01449
  Beta virt. eigenvalues --    0.02209   0.02680   0.02899   0.03320   0.03705
  Beta virt. eigenvalues --    0.04210   0.04803   0.05182   0.05885   0.06535

 Mulliken charges and spin densities:
               1          2
     1  C    0.226845   0.000000
     2  C   -0.959010  -0.000000
     3  C    1.055343   0.000000
     4  C   -0.691422  -0.000000
     5  C    0.045078  -0.000000
     6  C    1.331299  -0.000000
     7  C   -0.205801   0.000000
     8  C    0.186808  -0.000000
     9  C   -1.029042   0.000000
    10  C   -0.570806   0.000000
    11  C   -0.236002  -0.000000
    12  C   -0.544975   0.000000
    13  N   -0.119786  -0.000000
    14  H    0.125543   0.000000
    15  H    0.192398   0.000000
    16  H    0.151433  -0.000000
    17  H    0.180214  -0.000000
    18  H    0.177068  -0.000000
    19  H    0.175684   0.000000
    20  H    0.332999   0.000000
    21  C   -0.533970  -0.000000
    22  C   -0.059774   0.000000
    23  O   -0.728957   0.000000
    24  O   -0.745247   0.000000
    25  H    0.126715   0.000000
    26  H    0.117367  -0.000000
 Sum of Mulliken charges =  -2.00000  -0.00000

 Dipole moment (field-independent basis, Debye):
    X=             23.3562    Y=            -26.4813    Z=              5.3620  Tot=             35.7144
 Quadrupole moment (field-independent basis, Debye-Ang):
   XX=           -153.2838   YY=           -205.3450   ZZ=           -120.1359
   XY=             69.6504   XZ=            -21.9383   YZ=             11.8157

  Exact polarizability: 364.161 -45.518 376.915  17.281  -3.033 183.972
 Approx polarizability: 418.470 -29.432 400.384  15.041  -1.720 203.619

                      1                      2                      3
                      A                      A                      A
 Frequencies --     38.0721                59.8395                72.6847
 Red. masses --      5.3397                 6.8007                 5.6494
 Frc consts  --      0.0046                 0.0143                 0.0176
 IR Inten    --      2.1160                 3.5336                 4.7589

                      4                      5                      6
                      A                      A                      A
 Frequencies --    135.6560               192.6295               219.0339
 Red. masses --      6.9735                 5.6008                 3.8367
 Frc consts  --      0.0756                 0.1224                 0.1084
 IR Inten    --      1.7007                 3.2957                17.4590

                      7                      8                      9
                      A                      A                      A
 Frequencies --    233.1589               280.1786               311.3435
 Red. masses --      6.4230                 7.2690                 5.5454
 Frc consts  --      0.2057                 0.3362                 0.3167
 IR Inten    --      7.8558                 7.5256                13.1611

                     10                     11                     12
                      A                      A                      A
 Frequencies --    357.9107               368.8839               416.9890
 Red. masses --      2.2179                14.2921                 2.2313
 Frc consts  --      0.1674                 1.1458                 0.2286
 IR Inten    --     80.0390                 2.1862                49.8397

                     13                     14                     15
                      A                      A                      A
 Frequencies --    433.0648               468.8866               474.5955
 Red. masses --      2.8151                 3.6157                 3.9957
 Frc consts  --      0.3111                 0.4684                 0.5303
 IR Inten    --      4.4574                 0.7866                 3.2976

                     16                     17                     18
                      A                      A                      A
 Frequencies --    505.2928               563.0520               587.5501
 Red. masses --      5.8552                 6.9342                 3.2005
 Frc consts  --      0.8808                 1.2952                 0.6510
 IR Inten    --     22.4478                 5.9887                13.9220

                     19                     20                     21
                      A                      A                      A
 Frequencies --    598.2537               601.8534               638.0310
 Red. masses --      4.6488                 7.4606                 4.0758
 Frc consts  --      0.9803                 1.5922                 0.9776
 IR Inten    --      3.9429                47.9055                18.5527

                     22                     23                     24
                      A                      A                      A
 Frequencies --    651.5038               671.3176               729.6453
 Red. masses --      2.7773                 6.0507                 1.7008
 Frc consts  --      0.6946                 1.6066                 0.5335
 IR Inten    --     11.8625                 9.6445                22.8600

                     25                     26                     27
                      A                      A                      A
 Frequencies --    746.4447               758.1433               771.3078
 Red. masses --      1.2911                 5.7669                 3.7944
 Frc consts  --      0.4239                 1.9530                 1.3300
 IR Inten    --    154.5128                18.3842                 1.6776

                     28                     29                     30
                      A                      A                      A
 Frequencies --    778.5048               793.0520               803.9353
 Red. masses --      3.7126                 2.1247                 2.5561
 Frc consts  --      1.3257                 0.7873                 0.9733
 IR Inten    --      3.7961                71.0811                 6.2604

                     31                     32                     33
                      A                      A                      A
 Frequencies --    832.8171               854.5030               857.1685
 Red. masses --      1.5973                 1.4251                 1.3855
 Frc consts  --      0.6527                 0.6131                 0.5998
 IR Inten    --     62.5384                 2.3987                 4.0315

                     34                     35                     36
                      A                      A                      A
 Frequencies --    885.1675               906.9870               945.0036
 Red. masses --      4.8724                 7.2173                 1.3646
 Frc consts  --      2.2493                 3.4981                 0.7180
 IR Inten    --      0.3518                49.6190                 3.1889

                     37                     38                     39
                      A                      A                      A
 Frequencies --    975.9023              1003.9792              1026.4704
 Red. masses --      1.2580                 2.9560                 2.2034
 Frc consts  --      0.7059                 1.7555                 1.3678
 IR Inten    --      0.2042                47.7357                40.5932

                     40                     41                     42
                      A                      A                      A
 Frequencies --   1093.0857              1111.7798              1114.1060
 Red. masses --      1.5904                 1.7050                 1.9879
 Frc consts  --      1.1196                 1.2417                 1.4538
 IR Inten    --    128.1054                76.8718                 5.6922

                     43                     44                     45
                      A                      A                      A
 Frequencies --   1148.6552              1166.6926              1224.7103
 Red. masses --      1.5564                 1.1527                 1.8582
 Frc consts  --      1.2099                 0.9244                 1.6421
 IR Inten    --     23.1426                 5.7670                 0.8715

                     46                     47                     48
                      A                      A                      A
 Frequencies --   1244.7089              1253.3189              1261.0484
 Red. masses --      2.4551                 2.0021                 8.7382
 Frc consts  --      2.2411                 1.8529                 8.1872
 IR Inten    --    125.6684                29.7007               980.3762

                     49                     50                     51
                      A                      A                      A
 Frequencies --   1289.4023              1309.6576              1316.5119
 Red. masses --      2.2926                 2.3600                 3.0288
 Frc consts  --      2.2457                 2.3849                 3.0930
 IR Inten    --     92.1912               149.6458               661.0814

                     52                     53                     54
                      A                      A                      A
 Frequencies --   1344.0447              1368.1987              1392.6749
 Red. masses --      2.8857                 5.9065                 4.3364
 Frc consts  --      3.0714                 6.5145                 4.9554
 IR Inten    --    211.9187                98.8491               172.2630

                     55                     56                     57
                      A                      A                      A
 Frequencies --   1441.6278              1471.8732              1488.3895
 Red. masses --      2.2082                 2.7966                 4.6148
 Frc consts  --      2.7040                 3.5696                 6.0233
 IR Inten    --     14.0940                74.9614              1030.8579

                     58                     59                     60
                      A                      A                      A
 Frequencies --   1511.0068              1519.7097              1550.5014
 Red. masses --      3.0288                 4.6877                 4.9956
 Frc consts  --      4.0743                 6.3787                 7.0759
 IR Inten    --    106.2233               161.6387                61.4235

                     61                     62                     63
                      A                      A                      A
 Frequencies --   1575.2479              1599.5620              1643.5702
 Red. masses --      5.4722                 5.6155                 6.0264
 Frc consts  --      8.0004                 8.4653                 9.5914
 IR Inten    --     47.2307                 5.2990                 6.3069

                     64                     65                     66
                      A                      A                      A
 Frequencies --   3094.6768              3114.0835              3133.5312
 Red. masses --      1.0855                 1.0874                 1.0911
 Frc consts  --      6.1253                 6.2131                 6.3123
 IR Inten    --    126.7558                83.3368                53.8108

                     67                     68                     69
                      A                      A                      A
 Frequencies --   3156.9657              3166.4865              3178.8182
 Red. masses --      1.0854                 1.0893                 1.0941
 Frc consts  --      6.3733                 6.4354                 6.5139
 IR Inten    --      0.8087                23.7752                44.5495

                     70                     71                     72
                      A                      A                      A
 Frequencies --   3187.3293              3244.8878              3658.6724
 Red. masses --      1.0949                 1.0961                 1.0808
 Frc consts  --      6.5537                 6.8000                 8.5237
 IR Inten    --     25.3624                 5.1621               167.3211

 - Thermochemistry -
 -------------------
 Temperature   298.150 Kelvin.  Pressure   1.00000 Atm.
 Atom     1 has atomic number  6 and mass  12.00000

 Molecular mass:   223.06333 amu.
 Principal axes and moments of inertia in atomic units:
                           1         2         3
     Eigenvalues --  1563.123517039.475128237.83591
           X           -0.63767   0.76440  -0.09525
           Y            0.76422   0.64329   0.04631
           Z           -0.09667   0.04326   0.99438
 This molecule is an asymmetric top.
 Rotational symmetry number  1.
 Warning -- assumption of classical behavior for rotation
           may cause significant error
 Rotational temperatures (Kelvin)      0.05541     0.01230     0.01051
 Rotational constants (GHZ):           1.15457     0.25637     0.21908
 Zero-point vibrational energy     501979.1 (Joules/Mol)
                                  119.97588 (Kcal/Mol)
 Warning -- explicit consideration of  20 degrees of freedom as
           vibrations may cause significant error
 Vibrational temperatures:     54.78    86.10   104.58   195.18   277.15
          (Kelvin)            315.14   335.46   403.11   447.95   514.95
                              530.74   599.95   623.08   674.62   682.84
                              727.00   810.11   845.35   860.75   865.93
                              917.98   937.37   965.88  1049.80  1073.97
                             1090.80  1109.74  1120.09  1141.02  1156.68
                             1198.24  1229.44  1233.27  1273.56  1304.95
                             1359.65  1404.11  1444.50  1476.86  1572.71
                             1599.60  1602.95  1652.66  1678.61  1762.08
                             1790.86  1803.25  1814.37  1855.16  1884.31
                             1894.17  1933.78  1968.53  2003.75  2074.18
                             2117.70  2141.46  2174.00  2186.52  2230.83
                             2266.43  2301.41  2364.73  4452.55  4480.47
                             4508.45  4542.17  4555.87  4573.61  4585.86
                             4668.67  5264.01

 Zero-point correction=                           0.191194 (Hartree/Particle)
 Thermal correction to Energy=                    0.204014
 Thermal correction to Enthalpy=                  0.204959
 Thermal correction to Gibbs Free Energy=         0.151165
 Sum of electronic and zero-point Energies=           -744.360209
 Sum of electronic and thermal Energies=              -744.347389
 Sum of electronic and thermal Enthalpies=            -744.346444
 Sum of electronic and thermal Free Energies=         -744.400238

                     E (Thermal)             CV                S
                      KCal/Mol        Cal/Mol-Kelvin    Cal/Mol-Kelvin
 Total                  128.021             52.041            113.218
 Electronic               0.000              0.000              0.000
 Translational            0.889              2.981             42.109
 Rotational               0.889              2.981             32.872
 Vibrational            126.243             46.079             38.237
 Vibration     1          0.594              1.982              5.357
 Vibration     2          0.597              1.973              4.462
 Vibration     3          0.599              1.967              4.079
 Vibration     4          0.613              1.918              2.864
 Vibration     5          0.635              1.850              2.202
 Vibration     6          0.647              1.812              1.967
 Vibration     7          0.654              1.790              1.854
 Vibration     8          0.680              1.710              1.533
 Vibration     9          0.700              1.652              1.355
 Vibration    10          0.733              1.559              1.131
 Vibration    11          0.741              1.536              1.084
 Vibration    12          0.780              1.433              0.902
 Vibration    13          0.794              1.398              0.849
 Vibration    14          0.826              1.319              0.741
 Vibration    15          0.831              1.306              0.725
 Vibration    16          0.861              1.238              0.645
 Vibration    17          0.919              1.111              0.518
 Vibration    18          0.945              1.058              0.472
 Vibration    19          0.956              1.036              0.453
 Vibration    20          0.960              1.028              0.446

                           ! Non-Optimized Parameters !
 Normal termination of Gaussian 16 at Sun Feb 11 16:57:14 2024.
