 Q-Chem 5.4, Q-Chem, Inc., Pleasanton, CA (2021)
 Q-Chem 5.4.0 for Intel X86 EM64T Linux

User input:
--------------------------------------------------------------
$molecule
-1 2
O                  4.3902410000     -1.5195130000     -0.4074750000
C                  3.2545170000     -0.7547890000     -0.3137030000
C                  3.3368150000      0.6372900000     -0.3667290000
C                  2.1880520000      1.4182480000     -0.2722990000
O                  2.3132090000      2.7855180000     -0.3289890000
C                  0.9065140000      0.8296920000     -0.1203670000
C                 -0.3231430000      1.6283880000     -0.0183680000
O                 -0.3444370000      2.8725170000     -0.0560730000
C                 -1.5850120000      0.8715250000      0.1366980000
C                 -2.7927790000      1.5878450000      0.2388070000
C                 -4.0039640000      0.9366250000      0.3853310000
C                 -4.0400470000     -0.4739550000      0.4344800000
C                 -2.8710160000     -1.1993280000      0.3365590000
C                 -1.6225610000     -0.5482330000      0.1861990000
C                 -0.4093230000     -1.3217260000      0.0851080000
O                 -0.4327490000     -2.6118960000      0.1288120000
C                  0.8399540000     -0.6079310000     -0.0674350000
C                  2.0246330000     -1.3781130000     -0.1659170000
O                  2.0194780000     -2.7384420000     -0.1220440000
H                  4.0867620000     -2.4380750000     -0.3469280000
H                  4.3121170000      1.1016140000     -0.4829410000
H                  3.2503570000      2.9814600000     -0.4324970000
H                 -2.7326180000      2.6691940000      0.1976950000
H                 -4.9248000000      1.5067140000      0.4624050000
H                 -4.9901530000     -0.9875920000      0.5495020000
H                 -2.8719150000     -2.2822460000      0.3713890000
H                  1.0218670000     -2.9647910000     -0.0112180000
$end

$rem
BASIS  =  6-311++G(d,p)
GUI  =  2
JOB_TYPE  =  SP
METHOD  =  B3LYP
SCF_CONVERGENCE  = 8
SOLVENT_METHOD = sm12
$end

$smx
solvent dimethylformamide
charges CM5
$end

--------------------------------------------------------------

             Standard Nuclear Orientation (Angstroms)
    I     Atom           X                Y                Z
 ----------------------------------------------------------------
    1      O       4.3902410000    -1.5195130000    -0.4074750000
    2      C       3.2545170000    -0.7547890000    -0.3137030000
    3      C       3.3368150000     0.6372900000    -0.3667290000
    4      C       2.1880520000     1.4182480000    -0.2722990000
    5      O       2.3132090000     2.7855180000    -0.3289890000
    6      C       0.9065140000     0.8296920000    -0.1203670000
    7      C      -0.3231430000     1.6283880000    -0.0183680000
    8      O      -0.3444370000     2.8725170000    -0.0560730000
    9      C      -1.5850120000     0.8715250000     0.1366980000
   10      C      -2.7927790000     1.5878450000     0.2388070000
   11      C      -4.0039640000     0.9366250000     0.3853310000
   12      C      -4.0400470000    -0.4739550000     0.4344800000
   13      C      -2.8710160000    -1.1993280000     0.3365590000
   14      C      -1.6225610000    -0.5482330000     0.1861990000
   15      C      -0.4093230000    -1.3217260000     0.0851080000
   16      O      -0.4327490000    -2.6118960000     0.1288120000
   17      C       0.8399540000    -0.6079310000    -0.0674350000
   18      C       2.0246330000    -1.3781130000    -0.1659170000
   19      O       2.0194780000    -2.7384420000    -0.1220440000
   20      H       4.0867620000    -2.4380750000    -0.3469280000
   21      H       4.3121170000     1.1016140000    -0.4829410000
   22      H       3.2503570000     2.9814600000    -0.4324970000
   23      H      -2.7326180000     2.6691940000     0.1976950000
   24      H      -4.9248000000     1.5067140000     0.4624050000
   25      H      -4.9901530000    -0.9875920000     0.5495020000
   26      H      -2.8719150000    -2.2822460000     0.3713890000
   27      H       1.0218670000    -2.9647910000    -0.0112180000
 ----------------------------------------------------------------

   18    -914.7677842849      9.18e-09  Convergence criterion met
 Total energy in the final basis set =     -914.8608622777

                    Orbital Energies (a.u.)
 --------------------------------------------------------------

 Alpha MOs
 -- Occupied --
-19.1593 -19.1526 -19.1315 -19.0892 -19.0745 -10.2441 -10.2371 -10.2338
-10.2299 -10.2288 -10.1851 -10.1824 -10.1808 -10.1806 -10.1802 -10.1789
-10.1788 -10.1786 -10.1779  -1.0770  -1.0642  -1.0447  -1.0058  -0.9999
 -0.8669  -0.8527  -0.7926  -0.7587  -0.7487  -0.7408  -0.6768  -0.6548
 -0.6366  -0.6081  -0.5842  -0.5755  -0.5412  -0.5272  -0.5098  -0.4955
 -0.4818  -0.4690  -0.4564  -0.4492  -0.4423  -0.4316  -0.4210  -0.4157
 -0.4138  -0.4075  -0.4049  -0.3840  -0.3793  -0.3730  -0.3700  -0.3648
 -0.3605  -0.3501  -0.3445  -0.3043  -0.2692  -0.2638  -0.2585  -0.2480
 -0.2344  -0.2153  -0.1432

 Beta MOs
 -- Occupied --
-19.1590 -19.1525 -19.1307 -19.0837 -19.0699 -10.2442 -10.2364 -10.2332
-10.2277 -10.2269 -10.1854 -10.1825 -10.1803 -10.1798 -10.1797 -10.1785
-10.1781 -10.1779 -10.1774  -1.0760  -1.0638  -1.0423  -0.9981  -0.9909
 -0.8644  -0.8514  -0.7888  -0.7564  -0.7471  -0.7384  -0.6701  -0.6533
 -0.6339  -0.6071  -0.5833  -0.5736  -0.5393  -0.5261  -0.5088  -0.4940
 -0.4794  -0.4681  -0.4549  -0.4430  -0.4410  -0.4312  -0.4180  -0.4128
 -0.4074  -0.4034  -0.3981  -0.3829  -0.3721  -0.3704  -0.3689  -0.3591
 -0.3526  -0.3431  -0.3399  -0.2964  -0.2573  -0.2540  -0.2531  -0.2422
 -0.2301  -0.2050

          Ground-State Mulliken Net Atomic Charges

     Atom                 Charge (a.u.)    Spin (a.u.)
  --------------------------------------------------------
      1 O                    -0.191957       0.008196
      2 C                     0.662134       0.043921
      3 C                     1.827124       0.067563
      4 C                     0.403600       0.007601
      5 O                    -0.139848       0.003341
      6 C                    -0.535764       0.023443
      7 C                    -1.841033       0.010033
      8 O                    -0.290395       0.172815
      9 C                    -1.379379       0.087318
     10 C                    -0.073248      -0.016434
     11 C                     0.862247       0.090726
     12 C                     0.856189      -0.005722
     13 C                     0.134320       0.081021
     14 C                    -0.764618      -0.017012
     15 C                    -1.609772       0.178499
     16 O                    -0.349328       0.202846
     17 C                    -0.451577      -0.037560
     18 C                    -0.112319       0.095689
     19 O                    -0.427939       0.023993
     20 H                     0.320313      -0.000276
     21 H                     0.334575      -0.005790
     22 H                     0.352097      -0.000543
     23 H                     0.144065       0.001302
     24 H                     0.341221      -0.006334
     25 H                     0.357679      -0.000235
     26 H                     0.177945      -0.003454
     27 H                     0.393666      -0.004945
  --------------------------------------------------------
  Sum of atomic charges =    -1.000000

                    Cartesian Multipole Moments
 -----------------------------------------------------------------
    Charge (ESU x 10^10)
                -4.8032
    Dipole Moment (Debye)
         X       0.4158      Y      -0.1155      Z      -0.0422
       Tot       0.4336
    Quadrupole Moments (Debye-Ang)
        XX    -119.8352     XY       8.6847     YY    -141.8049
        XZ       0.1317     YZ      -0.0769     ZZ    -115.9619

 Total job time:  730.24s(wall), 5660.98s(cpu)
        *  Thank you very much for using Q-Chem.  Have a nice day.  *
