 Gaussian 16, Revision A.03,
 Gaussian 16:  ES64L-G16RevA.03 25-Dec-2016

 --------------------------------------
 #P UB3LYP/6-311++G(d,p) nosym opt freq
 --------------------------------------

 -------
 Radical
 -------
 Symbolic Z-matrix:
 Charge = -1 Multiplicity = 2

 SCF Done:  E(UB3LYP) =  -914.771026037     A.U. after   24 cycles
 Optimization completed.
    -- Stationary point found.
 Normal termination of Gaussian 16 at Sun Jan  7 05:04:49 2024.

 ----------------------------------------------------------------------
 #P Geom=AllCheck Guess=TCheck SCRF=Check GenChk UB3LYP/6-311++G(d,p) F
 req
 ----------------------------------------------------------------------

 Structure from the checkpoint file:  "200-rad.chk"
 -------
 Radical
 -------
 Charge = -1 Multiplicity = 2

                          Input orientation:
 ---------------------------------------------------------------------
 Center     Atomic      Atomic             Coordinates (Angstroms)
 Number     Number       Type             X           Y           Z
 ---------------------------------------------------------------------
      1          8           0        4.390241   -1.519513   -0.407475
      2          6           0        3.254517   -0.754789   -0.313703
      3          6           0        3.336815    0.637290   -0.366729
      4          6           0        2.188052    1.418248   -0.272299
      5          8           0        2.313209    2.785518   -0.328989
      6          6           0        0.906514    0.829692   -0.120367
      7          6           0       -0.323143    1.628388   -0.018368
      8          8           0       -0.344437    2.872517   -0.056073
      9          6           0       -1.585012    0.871525    0.136698
     10          6           0       -2.792779    1.587845    0.238807
     11          6           0       -4.003964    0.936625    0.385331
     12          6           0       -4.040047   -0.473955    0.434480
     13          6           0       -2.871016   -1.199328    0.336559
     14          6           0       -1.622561   -0.548233    0.186199
     15          6           0       -0.409323   -1.321726    0.085108
     16          8           0       -0.432749   -2.611896    0.128812
     17          6           0        0.839954   -0.607931   -0.067435
     18          6           0        2.024633   -1.378113   -0.165917
     19          8           0        2.019478   -2.738442   -0.122044
     20          1           0        4.086762   -2.438075   -0.346928
     21          1           0        4.312117    1.101614   -0.482941
     22          1           0        3.250357    2.981460   -0.432497
     23          1           0       -2.732618    2.669194    0.197695
     24          1           0       -4.924800    1.506714    0.462405
     25          1           0       -4.990153   -0.987592    0.549502
     26          1           0       -2.871915   -2.282246    0.371389
     27          1           0        1.021867   -2.964791   -0.011218
 ---------------------------------------------------------------------

 SCF Done:  E(UB3LYP) =  -914.771026037     A.U. after    1 cycles

 Alpha  occ. eigenvalues --  -19.04573 -19.03930 -19.01067 -18.96471 -18.94928
 Alpha  occ. eigenvalues --  -10.12477 -10.11788 -10.10860 -10.10774 -10.10534
 Alpha  occ. eigenvalues --  -10.06382 -10.06212 -10.06178 -10.06177 -10.05802
 Alpha  occ. eigenvalues --  -10.05697 -10.05634 -10.05564 -10.05459  -0.96176
 Alpha  occ. eigenvalues --   -0.95126  -0.92460  -0.88030  -0.87567  -0.74529
 Alpha  occ. eigenvalues --   -0.73213  -0.67146  -0.63655  -0.62845  -0.62085
 Alpha  occ. eigenvalues --   -0.55531  -0.53537  -0.51596  -0.48935  -0.46896
 Alpha  occ. eigenvalues --   -0.45278  -0.42134  -0.40791  -0.39236  -0.37632
 Alpha  occ. eigenvalues --   -0.36260  -0.34771  -0.33696  -0.32892  -0.32373
 Alpha  occ. eigenvalues --   -0.30960  -0.29889  -0.29572  -0.29430  -0.28612
 Alpha  occ. eigenvalues --   -0.28296  -0.26829  -0.25872  -0.25774  -0.24944
 Alpha  occ. eigenvalues --   -0.24344  -0.24078  -0.22937  -0.22226  -0.18480
 Alpha  occ. eigenvalues --   -0.14716  -0.14076  -0.13463  -0.12810  -0.10904
 Alpha  occ. eigenvalues --   -0.09451  -0.01983
 Alpha virt. eigenvalues --    0.06982   0.07778   0.08073   0.09329   0.09410
 Alpha virt. eigenvalues --    0.10043   0.11471   0.12295   0.12504   0.13171
 Alpha virt. eigenvalues --    0.14629   0.15136   0.15377   0.15790   0.16577

  Beta  occ. eigenvalues --  -19.04550 -19.03922 -19.01003 -18.95908 -18.94455
  Beta  occ. eigenvalues --  -10.12499 -10.11719 -10.10815 -10.10680 -10.10226
  Beta  occ. eigenvalues --  -10.06389 -10.06228 -10.06090 -10.06061 -10.05736
  Beta  occ. eigenvalues --  -10.05651 -10.05617 -10.05601 -10.05314  -0.96090
  Beta  occ. eigenvalues --   -0.95110  -0.92244  -0.87235  -0.86634  -0.74280
  Beta  occ. eigenvalues --   -0.73084  -0.66758  -0.63437  -0.62675  -0.61860
  Beta  occ. eigenvalues --   -0.54871  -0.53386  -0.51323  -0.48834  -0.46805
  Beta  occ. eigenvalues --   -0.45100  -0.41934  -0.40689  -0.39137  -0.37508
  Beta  occ. eigenvalues --   -0.36003  -0.34671  -0.33545  -0.32359  -0.32239
  Beta  occ. eigenvalues --   -0.30922  -0.29637  -0.29451  -0.28820  -0.27835
  Beta  occ. eigenvalues --   -0.27832  -0.26714  -0.25715  -0.25178  -0.24818
  Beta  occ. eigenvalues --   -0.23932  -0.22854  -0.22067  -0.21880  -0.17755
  Beta  occ. eigenvalues --   -0.13466  -0.13008  -0.12923  -0.12217  -0.10457
  Beta  occ. eigenvalues --   -0.08482
  Beta virt. eigenvalues --    0.03694   0.07775   0.07838   0.08066   0.09419
  Beta virt. eigenvalues --    0.10037   0.10311   0.11475   0.12292   0.12936
  Beta virt. eigenvalues --    0.13169   0.14652   0.15206   0.15377   0.16209

 Mulliken charges and spin densities:
               1          2
     1  O   -0.293019   0.007027
     2  C   -0.448203   0.043162
     3  C    0.150423   0.071506
     4  C   -0.128967  -0.003762
     5  O   -0.176978   0.001435
     6  C    0.494284   0.039615
     7  C   -0.404175   0.004999
     8  O   -0.334930   0.178798
     9  C   -0.128452   0.090688
    10  C    0.120280  -0.023049
    11  C   -0.496877   0.093957
    12  C   -0.457371  -0.006911
    13  C    0.078380   0.074717
    14  C    0.287538  -0.015435
    15  C   -0.385618   0.181214
    16  O   -0.440565   0.205126
    17  C    0.853267  -0.027055
    18  C   -0.404626   0.084841
    19  O   -0.486247   0.020431
    20  H    0.279129  -0.000336
    21  H    0.122972  -0.006411
    22  H    0.239118  -0.000695
    23  H    0.153384   0.001553
    24  H    0.124111  -0.006930
    25  H    0.124524  -0.000219
    26  H    0.155506  -0.003294
    27  H    0.403113  -0.004972
 Sum of Mulliken charges =  -1.00000   1.00000

 Dipole moment (field-independent basis, Debye):
    X=             -0.0467    Y=             -0.0505    Z=              0.0052  Tot=              0.0689
 Quadrupole moment (field-independent basis, Debye-Ang):
   XX=           -128.8452   YY=           -142.1873   ZZ=           -115.7192
   XY=              8.2720   XZ=              1.1094   YZ=             -0.0059

  Exact polarizability: 341.045 -11.163 230.341 -25.095  -3.147  98.504
 Approx polarizability: 518.994 -19.830 437.091 -37.377  -7.049 156.871

                      1                      2                      3
                      A                      A                      A
 Frequencies --     44.9285                65.2463               114.9005
 Red. masses --      7.4395                 7.8305                 6.9509
 Frc consts  --      0.0088                 0.0196                 0.0541
 IR Inten    --      6.2016                 0.4140                 0.4613

                      4                      5                      6
                      A                      A                      A
 Frequencies --    140.6328               164.8744               194.0636
 Red. masses --      6.3786                 6.1185                 5.9833
 Frc consts  --      0.0743                 0.0980                 0.1328
 IR Inten    --      0.3090                 0.4882                 3.3917

                      7                      8                      9
                      A                      A                      A
 Frequencies --    199.1325               256.4870               281.1857
 Red. masses --      3.9088                 1.3280                 5.4755
 Frc consts  --      0.0913                 0.0515                 0.2551
 IR Inten    --      8.9312                57.4239                 1.5495

                     10                     11                     12
                      A                      A                      A
 Frequencies --    289.0429               306.3796               345.5154
 Red. masses --      5.8830                 7.1336                 7.2940
 Frc consts  --      0.2896                 0.3945                 0.5130
 IR Inten    --      8.9344                 2.4800                 0.4859

                     13                     14                     15
                      A                      A                      A
 Frequencies --    361.3716               382.3970               408.5466
 Red. masses --      9.8235                 7.4190                 6.5703
 Frc consts  --      0.7558                 0.6392                 0.6461
 IR Inten    --      0.4060                 9.5974                23.0168

                     16                     17                     18
                      A                      A                      A
 Frequencies --    417.5033               430.0123               445.8256
 Red. masses --      4.5413                10.5303                 3.5613
 Frc consts  --      0.4664                 1.1472                 0.4171
 IR Inten    --      5.3950                26.7484                13.0329

                     19                     20                     21
                      A                      A                      A
 Frequencies --    472.4118               479.5774               508.9486
 Red. masses --     10.2543                 1.5209                 8.2150
 Frc consts  --      1.3483                 0.2061                 1.2537
 IR Inten    --      0.6908                91.0285                 0.8047

                     22                     23                     24
                      A                      A                      A
 Frequencies --    522.7025               531.5978               585.7524
 Red. masses --      2.4914                 9.0959                 7.4617
 Frc consts  --      0.4011                 1.5145                 1.5084
 IR Inten    --     12.5885                14.1772                32.2633

                     25                     26                     27
                      A                      A                      A
 Frequencies --    619.5511               644.2442               658.7260
 Red. masses --      4.5772                 7.4718                 6.3805
 Frc consts  --      1.0351                 1.8272                 1.6312
 IR Inten    --      2.1468                 3.7238                 6.5284

                     28                     29                     30
                      A                      A                      A
 Frequencies --    700.8389               719.5776               722.3256
 Red. masses --      7.0428                 5.3814                 2.3496
 Frc consts  --      2.0381                 1.6417                 0.7223
 IR Inten    --      5.6702                17.5517                28.7343

                     31                     32                     33
                      A                      A                      A
 Frequencies --    735.5709               762.7483               775.5316
 Red. masses --      6.7033                 1.4358                 2.3244
 Frc consts  --      2.1369                 0.4922                 0.8237
 IR Inten    --     19.7664                63.9838                 4.6730

                     34                     35                     36
                      A                      A                      A
 Frequencies --    800.2255               845.2962               867.3252
 Red. masses --      4.1539                 7.6394                 1.4872
 Frc consts  --      1.5672                 3.2161                 0.6592
 IR Inten    --      1.0992                54.7853                 0.3589

                     37                     38                     39
                      A                      A                      A
 Frequencies --    904.1029               945.2504               978.8382
 Red. masses --      8.0711                 6.3395                 1.3149
 Frc consts  --      3.8870                 3.3373                 0.7423
 IR Inten    --     21.1613                81.4547                 5.6250

                     40                     41                     42
                      A                      A                      A
 Frequencies --    984.4661               987.3806              1032.9209
 Red. masses --      1.2988                 1.0563                 2.6009
 Frc consts  --      0.7416                 0.6068                 1.6350
 IR Inten    --      0.0104                62.3893                35.7432

                     43                     44                     45
                      A                      A                      A
 Frequencies --   1068.0467              1107.8453              1131.0281
 Red. masses --      3.6595                 2.4338                 3.5021
 Frc consts  --      2.4595                 1.7599                 2.6395
 IR Inten    --     56.4558                 0.4328                80.5865

                     46                     47                     48
                      A                      A                      A
 Frequencies --   1152.8543              1185.6658              1207.5984
 Red. masses --      1.4555                 1.4439                 1.9065
 Frc consts  --      1.1397                 1.1960                 1.6381
 IR Inten    --      3.5047                15.2847                36.8353

                     49                     50                     51
                      A                      A                      A
 Frequencies --   1210.8873              1240.0219              1247.9181
 Red. masses --      1.9899                 3.1496                 2.0592
 Frc consts  --      1.7190                 2.8534                 1.8894
 IR Inten    --     54.5402                21.6198               132.9343

                     52                     53                     54
                      A                      A                      A
 Frequencies --   1299.6261              1302.9895              1338.4307
 Red. masses --      3.6142                 2.8483                 4.0095
 Frc consts  --      3.5966                 2.8492                 4.2318
 IR Inten    --     66.6627                86.1970               243.7178

                     55                     56                     57
                      A                      A                      A
 Frequencies --   1361.6517              1387.4193              1416.6070
 Red. masses --     10.1405                 3.4417                 3.4170
 Frc consts  --     11.0775                 3.9034                 4.0401
 IR Inten    --      3.6812               124.4651               455.9256

                     58                     59                     60
                      A                      A                      A
 Frequencies --   1422.1044              1476.5939              1479.8534
 Red. masses --      2.9179                 2.8693                 2.8562
 Frc consts  --      3.4769                 3.6859                 3.6853
 IR Inten    --     57.5035                72.6986                 0.1716

                     61                     62                     63
                      A                      A                      A
 Frequencies --   1500.9213              1553.6457              1571.3117
 Red. masses --      2.7362                 3.7265                 6.6816
 Frc consts  --      3.6317                 5.2997                 9.7198
 IR Inten    --    360.5557                58.4326               374.2869

                     64                     65                     66
                      A                      A                      A
 Frequencies --   1588.6135              1621.9782              1631.5943
 Red. masses --      4.5603                 5.8530                 4.2616
 Frc consts  --      6.7808                 9.0724                 6.6842
 IR Inten    --    192.0332                89.5037               114.7080

                     67                     68                     69
                      A                      A                      A
 Frequencies --   1662.1439              2610.3072              3135.7408
 Red. masses --      5.1858                 1.0787                 1.0849
 Frc consts  --      8.4411                 4.3304                 6.2852
 IR Inten    --     55.9476               481.0099                18.9021

                     70                     71                     72
                      A                      A                      A
 Frequencies --   3146.5389              3155.0866              3185.1664
 Red. masses --      1.0897                 1.0913                 1.0915
 Frc consts  --      6.3566                 6.4004                 6.5243
 IR Inten    --     24.9335                49.7198                13.6839

                     73                     74                     75
                      A                      A                      A
 Frequencies --   3188.8849              3731.0922              3814.8828
 Red. masses --      1.0925                 1.0648                 1.0655
 Frc consts  --      6.5457                 8.7336                 9.1362
 IR Inten    --     23.0228                71.4917                23.2817

 - Thermochemistry -
 -------------------
 Temperature   298.150 Kelvin.  Pressure   1.00000 Atm.
 Atom     1 has atomic number  8 and mass  15.99491

 Molecular mass:   256.03717 amu.
 Principal axes and moments of inertia in atomic units:
                           1         2         3
     Eigenvalues --  2651.911575811.639118463.55059
           X            0.98465   0.14076   0.10319
           Y           -0.14471   0.98896   0.03181
           Z           -0.09758  -0.04625   0.99415
 This molecule is an asymmetric top.
 Rotational symmetry number  1.
 Warning -- assumption of classical behavior for rotation
           may cause significant error
 Rotational temperatures (Kelvin)      0.03266     0.01490     0.01023
 Rotational constants (GHZ):           0.68054     0.31054     0.21324
 Zero-point vibrational energy     495068.6 (Joules/Mol)
                                  118.32424 (Kcal/Mol)
 Warning -- explicit consideration of  25 degrees of freedom as
           vibrations may cause significant error
 Vibrational temperatures:     64.64    93.87   165.32   202.34   237.22
          (Kelvin)            279.21   286.51   369.03   404.56   415.87
                              440.81   497.12   519.93   550.18   587.81
                              600.69   618.69   641.44   679.70   690.00
                              732.26   752.05   764.85   842.77   891.40
                              926.92   947.76  1008.35  1035.31  1039.27
                             1058.32  1097.42  1115.82  1151.35  1216.19
                             1247.89  1300.80  1360.00  1408.33  1416.43
                             1420.62  1486.14  1536.68  1593.94  1627.30
                             1658.70  1705.91  1737.46  1742.20  1784.11
                             1795.48  1869.87  1874.71  1925.70  1959.11
                             1996.19  2038.18  2046.09  2124.49  2129.18
                             2159.49  2235.35  2260.77  2285.66  2333.66
                             2347.50  2391.45  3755.65  4511.63  4527.17
                             4539.47  4582.74  4588.09  5368.21  5488.77

 Zero-point correction=                           0.188562 (Hartree/Particle)
 Thermal correction to Energy=                    0.203130
 Thermal correction to Enthalpy=                  0.204074
 Thermal correction to Gibbs Free Energy=         0.146821
 Sum of electronic and zero-point Energies=           -914.582464
 Sum of electronic and thermal Energies=              -914.567896
 Sum of electronic and thermal Enthalpies=            -914.566952
 Sum of electronic and thermal Free Energies=         -914.624205

                     E (Thermal)             CV                S
                      KCal/Mol        Cal/Mol-Kelvin    Cal/Mol-Kelvin
 Total                  127.466             58.837            120.498
 Electronic               0.000              0.000              1.377
 Translational            0.889              2.981             42.520
 Rotational               0.889              2.981             33.233
 Vibrational            125.688             52.876             43.367
 Vibration     1          0.595              1.979              5.029
 Vibration     2          0.597              1.971              4.292
 Vibration     3          0.608              1.937              3.184
 Vibration     4          0.615              1.913              2.795
 Vibration     5          0.623              1.886              2.493
 Vibration     6          0.635              1.848              2.189
 Vibration     7          0.637              1.841              2.141
 Vibration     8          0.666              1.752              1.686
 Vibration     9          0.681              1.708              1.526
 Vibration    10          0.686              1.694              1.480
 Vibration    11          0.697              1.662              1.382
 Vibration    12          0.724              1.584              1.187
 Vibration    13          0.736              1.552              1.116
 Vibration    14          0.752              1.508              1.030
 Vibration    15          0.773              1.452              0.932
 Vibration    16          0.781              1.432              0.900
 Vibration    17          0.791              1.405              0.859
 Vibration    18          0.805              1.370              0.808
 Vibration    19          0.829              1.311              0.731
 Vibration    20          0.836              1.295              0.711
 Vibration    21          0.864              1.230              0.636
 Vibration    22          0.878              1.200              0.604
 Vibration    23          0.887              1.180              0.584
 Vibration    24          0.943              1.062              0.475
 Vibration    25          0.980              0.991              0.417

 Optimization completed.
    -- Stationary point found.
 Normal termination of Gaussian 16 at Sun Jan  7 06:19:24 2024.
