 Q-Chem 5.4, Q-Chem, Inc., Pleasanton, CA (2021)
 Q-Chem 5.4.0 for Intel X86 EM64T Linux

User input:
--------------------------------------------------------------
$molecule
-2 1
N                 -4.7629730000      0.3641810000      0.3583680000
C                 -3.7789880000     -0.1876320000      0.6740300000
C                 -2.5953100000     -0.8392160000      1.0431380000
C                 -2.7144110000     -1.9121250000      1.9357130000
N                 -2.8022190000     -2.8109890000      2.6818440000
C                 -1.2858000000     -0.4158020000      0.5168140000
C                 -1.1507380000      0.6623150000     -0.3812240000
C                  0.0867510000      1.0623870000     -0.8786360000
C                  1.2858310000      0.4156950000     -0.5168970000
C                  1.1507780000     -0.6623360000      0.3812010000
C                 -0.0866830000     -1.0624290000      0.8786340000
C                  2.5953610000      0.8391710000     -1.0432340000
C                  3.7790830000      0.1876130000     -0.6742690000
N                  4.7628630000     -0.3645190000     -0.3586290000
C                  2.7144200000      1.9122230000     -1.9355750000
N                  2.8018470000      2.8112940000     -2.6814590000
H                 -2.0403540000      1.1995790000     -0.6963320000
H                  0.1279700000      1.9006250000     -1.5678530000
H                  2.0404230000     -1.1994950000      0.6963530000
H                 -0.1278490000     -1.9005380000      1.5680120000
$end
$rem
MAX_SCF_CYCLES=200
BASIS  =  6-311++G(d,p)
GUI  =  2
JOB_TYPE  =  SP
METHOD  =  B3LYP
SOLVENT_METHOD = PCM
$end
$pcm
theory = CPCM
$end
$solvent
dielectric 37.219
opticaldielectric 1.43
$end

--------------------------------------------------------------

             Standard Nuclear Orientation (Angstroms)
    I     Atom           X                Y                Z
 ----------------------------------------------------------------
    1      N      -4.7629730000     0.3641810000     0.3583680000
    2      C      -3.7789880000    -0.1876320000     0.6740300000
    3      C      -2.5953100000    -0.8392160000     1.0431380000
    4      C      -2.7144110000    -1.9121250000     1.9357130000
    5      N      -2.8022190000    -2.8109890000     2.6818440000
    6      C      -1.2858000000    -0.4158020000     0.5168140000
    7      C      -1.1507380000     0.6623150000    -0.3812240000
    8      C       0.0867510000     1.0623870000    -0.8786360000
    9      C       1.2858310000     0.4156950000    -0.5168970000
   10      C       1.1507780000    -0.6623360000     0.3812010000
   11      C      -0.0866830000    -1.0624290000     0.8786340000
   12      C       2.5953610000     0.8391710000    -1.0432340000
   13      C       3.7790830000     0.1876130000    -0.6742690000
   14      N       4.7628630000    -0.3645190000    -0.3586290000
   15      C       2.7144200000     1.9122230000    -1.9355750000
   16      N       2.8018470000     2.8112940000    -2.6814590000
   17      H      -2.0403540000     1.1995790000    -0.6963320000
   18      H       0.1279700000     1.9006250000    -1.5678530000
   19      H       2.0404230000    -1.1994950000     0.6963530000
   20      H      -0.1278490000    -1.9005380000     1.5680120000
 ----------------------------------------------------------------

    8    -679.1035430926      4.76e-06  Convergence criterion met
 Total energy in the final basis set =     -679.1035430926

                    Orbital Energies (a.u.)
 --------------------------------------------------------------

 Alpha MOs
 -- Occupied --
-14.2886 -14.2886 -14.2886 -14.2886 -10.2015 -10.2014 -10.2014 -10.2014
-10.1804 -10.1804 -10.1801 -10.1801 -10.1611 -10.1611 -10.1606 -10.1606
 -0.8977  -0.8968  -0.8858  -0.8858  -0.8517  -0.7988  -0.7583  -0.7350
 -0.6992  -0.6116  -0.5935  -0.5599  -0.5327  -0.5201  -0.4785  -0.4317
 -0.4305  -0.4064  -0.3958  -0.3852  -0.3757  -0.3680  -0.3647  -0.3632
 -0.3612  -0.3496  -0.3325  -0.3309  -0.3308  -0.3266  -0.3264  -0.3194
 -0.3168  -0.2769  -0.2474  -0.2037  -0.1573

          Ground-State Mulliken Net Atomic Charges

     Atom                 Charge (a.u.)
  ----------------------------------------
      1 N                    -0.438247
      2 C                    -1.338349
      3 C                     2.173378
      4 C                    -1.337298
      5 N                    -0.438286
      6 C                     1.459401
      7 C                    -0.683600
      8 C                    -0.682830
      9 C                     1.458741
     10 C                    -0.683523
     11 C                    -0.682627
     12 C                     2.173601
     13 C                    -1.338584
     14 N                    -0.438283
     15 C                    -1.337368
     16 N                    -0.438362
     17 H                     0.142971
     18 H                     0.143143
     19 H                     0.142975
     20 H                     0.143149
  ----------------------------------------
  Sum of atomic charges =    -2.000000

                    Cartesian Multipole Moments
 -----------------------------------------------------------------
    Charge (ESU x 10^10)
                -9.6064
    Dipole Moment (Debye)
         X       0.0008      Y       0.0001      Z       0.0002
       Tot       0.0009
    Quadrupole Moments (Debye-Ang)
        XX    -240.1124     XY     -27.2106     YY    -138.5740
        XZ      41.3832     YZ      34.4645     ZZ    -134.8285

 Total job time:  52.38s(wall), 185.40s(cpu)
        *  Thank you very much for using Q-Chem.  Have a nice day.  *
