 Gaussian 16, Revision A.03,
 Gaussian 16:  ES64L-G16RevA.03 25-Dec-2016

 --------------------------------------
 #P UB3LYP/6-311++G(d,p) nosym opt freq
 --------------------------------------

 -------
 Radical
 -------
 Symbolic Z-matrix:
 Charge = -1 Multiplicity = 2

 SCF Done:  E(UB3LYP) =  -1897.07488684     A.U. after   24 cycles
 Optimization completed.
    -- Stationary point found.
 Normal termination of Gaussian 16 at Sun Jan  7 07:10:34 2024.

 ----------------------------------------------------------------------
 #P Geom=AllCheck Guess=TCheck SCRF=Check GenChk UB3LYP/6-311++G(d,p) F
 req
 ----------------------------------------------------------------------

 Structure from the checkpoint file:  "220-rad.chk"
 -------
 Radical
 -------
 Charge = -1 Multiplicity = 2

                          Input orientation:
 ---------------------------------------------------------------------
 Center     Atomic      Atomic             Coordinates (Angstroms)
 Number     Number       Type             X           Y           Z
 ---------------------------------------------------------------------
      1          6           0        4.979056   -2.705514    0.011740
      2          6           0        5.697277   -1.754447   -0.685368
      3          6           0        5.060837   -0.669776   -1.331390
      4          6           0        3.578623   -2.602026    0.097718
      5          6           0        2.917807   -1.515788   -0.544480
      6          6           0        3.691075   -0.568206   -1.255618
      7          6           0        2.843600   -3.621600    0.858551
      8          6           0        1.384599   -3.454426    0.903495
      9          6           0        0.728337   -2.366358    0.259729
     10          6           0        1.465742   -1.350528   -0.490634
     11          6           0        0.620208   -4.399080    1.612464
     12          6           0       -0.679998   -2.266321    0.349959
     13          6           0       -1.422675   -3.188612    1.050061
     14          8           0        3.421196   -4.561588    1.436941
     15          8           0        0.885931   -0.391085   -1.054452
     16          1           0        5.465323   -3.543757    0.494845
     17          1           0       -2.501103   -3.115249    1.110906
     18          1           0        3.162308    0.242682   -1.741812
     19          1           0        1.132661   -5.227282    2.085718
     20          1           0       -1.154107   -1.434171   -0.156269
     21          6           0       -0.751640   -4.259975    1.683154
     22         16           0        7.473256   -1.860770   -0.730214
     23         16           0       -1.699242   -5.424576    2.638756
     24          8           0       -0.895268   -6.629033    2.864139
     25          8           0       -3.058557   -5.537757    2.100960
     26          7           0       -1.911217   -4.594315    4.121367
     27          1           0       -1.114383   -4.766218    4.728885
     28          1           0       -2.762972   -4.945131    4.551986
     29          8           0        7.883550   -3.217782   -0.358660
     30          8           0        7.989158   -1.246703   -1.957625
     31          7           0        7.936206   -0.766728    0.503112
     32          1           0        5.650204    0.051495   -1.883213
     33          1           0        8.867180   -0.424969    0.278436
     34          1           0        7.944759   -1.243834    1.400812
 ---------------------------------------------------------------------

 SCF Done:  E(UB3LYP) =  -1897.07488684     A.U. after    2 cycles

 Alpha  occ. eigenvalues --  -88.98346 -88.98346 -19.03545 -19.03545 -19.03543
 Alpha  occ. eigenvalues --  -19.03543 -18.98492 -18.97937 -14.26617 -14.26616
 Alpha  occ. eigenvalues --  -10.13782 -10.12844 -10.12081 -10.12081 -10.09890
 Alpha  occ. eigenvalues --  -10.09889 -10.09845 -10.09844 -10.08959 -10.08957
 Alpha  occ. eigenvalues --  -10.08904 -10.08904 -10.08704 -10.08704  -8.04530
 Alpha  occ. eigenvalues --   -8.04530  -6.00838  -6.00838  -6.00770  -6.00769
 Alpha  occ. eigenvalues --   -6.00593  -6.00592  -1.03855  -1.03855  -0.92801
 Alpha  occ. eigenvalues --   -0.92800  -0.91493  -0.90581  -0.83226  -0.83225
 Alpha  occ. eigenvalues --   -0.78495  -0.77889  -0.71512  -0.68394  -0.67611
 Alpha  occ. eigenvalues --   -0.66877  -0.61377  -0.58888  -0.57712  -0.53646
 Alpha  occ. eigenvalues --   -0.52748  -0.50631  -0.47902  -0.46658  -0.46628
 Alpha  occ. eigenvalues --   -0.44822  -0.44819  -0.42897  -0.42401  -0.41179
 Alpha  occ. eigenvalues --   -0.39835  -0.39245  -0.38276  -0.36776  -0.36460
 Alpha  occ. eigenvalues --   -0.34823  -0.34473  -0.33891  -0.33380  -0.33351
 Alpha  occ. eigenvalues --   -0.31955  -0.30609  -0.29329  -0.29184  -0.28618
 Alpha  occ. eigenvalues --   -0.28121  -0.27845  -0.26852  -0.26279  -0.25897
 Alpha  occ. eigenvalues --   -0.25115  -0.24879  -0.23851  -0.23764  -0.22773
 Alpha  occ. eigenvalues --   -0.22720  -0.21409  -0.21227  -0.18054  -0.17886
 Alpha  occ. eigenvalues --   -0.17347  -0.16935  -0.15128  -0.14233  -0.05318
 Alpha virt. eigenvalues --    0.02721   0.03895   0.05511   0.05626   0.07696
 Alpha virt. eigenvalues --    0.08738   0.09196   0.09351   0.09996   0.10114
 Alpha virt. eigenvalues --    0.11430   0.11780   0.11896   0.12918   0.13159

  Beta  occ. eigenvalues --  -88.98346 -88.98346 -19.03543 -19.03543 -19.03536
  Beta  occ. eigenvalues --  -19.03536 -18.97969 -18.97248 -14.26611 -14.26611
  Beta  occ. eigenvalues --  -10.13710 -10.12728 -10.12014 -10.12014 -10.09931
  Beta  occ. eigenvalues --  -10.09931 -10.09780 -10.09780 -10.08850 -10.08849
  Beta  occ. eigenvalues --  -10.08805 -10.08804 -10.08711 -10.08710  -8.04530
  Beta  occ. eigenvalues --   -8.04530  -6.00835  -6.00835  -6.00769  -6.00769
  Beta  occ. eigenvalues --   -6.00594  -6.00594  -1.03841  -1.03841  -0.92791
  Beta  occ. eigenvalues --   -0.92790  -0.90610  -0.89402  -0.83212  -0.83211
  Beta  occ. eigenvalues --   -0.78257  -0.77772  -0.71103  -0.68233  -0.67396
  Beta  occ. eigenvalues --   -0.66736  -0.61067  -0.58754  -0.57247  -0.53486
  Beta  occ. eigenvalues --   -0.52569  -0.50563  -0.47784  -0.46611  -0.46431
  Beta  occ. eigenvalues --   -0.44774  -0.44756  -0.42830  -0.42309  -0.41100
  Beta  occ. eigenvalues --   -0.39733  -0.39027  -0.38205  -0.36722  -0.36417
  Beta  occ. eigenvalues --   -0.34798  -0.34443  -0.33679  -0.33272  -0.32257
  Beta  occ. eigenvalues --   -0.31577  -0.30088  -0.29213  -0.28880  -0.28067
  Beta  occ. eigenvalues --   -0.27789  -0.26772  -0.26387  -0.25756  -0.25398
  Beta  occ. eigenvalues --   -0.25095  -0.24661  -0.23793  -0.23739  -0.22714
  Beta  occ. eigenvalues --   -0.22689  -0.21338  -0.20984  -0.17591  -0.16460
  Beta  occ. eigenvalues --   -0.16292  -0.15665  -0.14601  -0.13629
  Beta virt. eigenvalues --    0.00518   0.03395   0.04849   0.05522   0.05700
  Beta virt. eigenvalues --    0.07907   0.08769   0.09200   0.09399   0.10000
  Beta virt. eigenvalues --    0.10584   0.11530   0.11847   0.11928   0.12953

 Mulliken charges and spin densities:
               1          2
     1  C   -0.085828  -0.023964
     2  C   -0.320009   0.034032
     3  C   -0.382285   0.055765
     4  C    0.208313   0.065864
     5  C    0.705369   0.069060
     6  C   -0.207112   0.021666
     7  C   -0.957345   0.034632
     8  C    0.207314   0.065857
     9  C    0.705298   0.069046
    10  C   -0.421867   0.058947
    11  C   -0.086202  -0.023971
    12  C   -0.206831   0.021680
    13  C   -0.382667   0.055753
    14  O   -0.310127   0.194487
    15  O   -0.334072   0.258604
    16  H    0.249012   0.000920
    17  H    0.226549  -0.003618
    18  H    0.166350  -0.001437
    19  H    0.248985   0.000921
    20  H    0.166369  -0.001438
    21  C   -0.318679   0.034053
    22  S    0.225002   0.007052
    23  S    0.225182   0.007031
    24  O   -0.183924   0.002089
    25  O   -0.268958  -0.001845
    26  N   -0.380859  -0.000076
    27  H    0.270843  -0.000214
    28  H    0.289186   0.001391
    29  O   -0.183791   0.002087
    30  O   -0.268939  -0.001848
    31  N   -0.380852  -0.000083
    32  H    0.226569  -0.003620
    33  H    0.289188   0.001390
    34  H    0.270820  -0.000213
 Sum of Mulliken charges =  -1.00000   1.00000

 Dipole moment (field-independent basis, Debye):
    X=            -11.2847    Y=             17.1913    Z=              2.1189  Tot=             20.6731
 Quadrupole moment (field-independent basis, Debye-Ang):
   XX=           -246.9451   YY=           -254.3637   ZZ=           -157.5787
   XY=             33.0280   XZ=             24.4357   YZ=             12.0969

  Exact polarizability: 448.231  66.388 254.027 -74.929 -81.090 211.776
 Approx polarizability: 629.772  34.144 444.566 -65.650-142.470 337.727

                      1                      2                      3
                      A                      A                      A
 Frequencies --     22.5957                25.4150                37.0787
 Red. masses --      8.2200                 7.5128                 8.6464
 Frc consts  --      0.0025                 0.0029                 0.0070
 IR Inten    --      1.1769                 0.5829                 3.1145

                      4                      5                      6
                      A                      A                      A
 Frequencies --     56.9466                74.8622                85.4831
 Red. masses --      5.6671                 9.8091                 6.7163
 Frc consts  --      0.0108                 0.0324                 0.0289
 IR Inten    --      3.8453                 0.0217                 4.6542

                      7                      8                      9
                      A                      A                      A
 Frequencies --    118.1539               133.0384               136.1557
 Red. masses --      2.4748                 2.1742                 7.4513
 Frc consts  --      0.0204                 0.0227                 0.0814
 IR Inten    --     38.3756                 5.0306                 3.0003

                     10                     11                     12
                      A                      A                      A
 Frequencies --    160.8206               166.9862               185.9362
 Red. masses --      4.4938                 1.8287                 4.2940
 Frc consts  --      0.0685                 0.0300                 0.0875
 IR Inten    --      3.9274                46.9995                 2.2444

                     13                     14                     15
                      A                      A                      A
 Frequencies --    196.7036               230.3540               234.9174
 Red. masses --      3.9768                 7.9149                 3.9004
 Frc consts  --      0.0907                 0.2475                 0.1268
 IR Inten    --      1.8979                 4.6441                15.9516

                     16                     17                     18
                      A                      A                      A
 Frequencies --    255.1310               271.6686               321.2579
 Red. masses --     11.4002                10.9585                 3.6832
 Frc consts  --      0.4372                 0.4765                 0.2240
 IR Inten    --      0.0904                 3.2461                10.5013

                     19                     20                     21
                      A                      A                      A
 Frequencies --    338.7425               348.5060               357.5061
 Red. masses --      3.8808                 5.1985                 5.1639
 Frc consts  --      0.2624                 0.3720                 0.3889
 IR Inten    --     32.0172                 6.4599                14.7513

                     22                     23                     24
                      A                      A                      A
 Frequencies --    390.5602               421.0706               430.9998
 Red. masses --     10.1971                 3.6477                 6.4305
 Frc consts  --      0.9164                 0.3810                 0.7038
 IR Inten    --      5.8587                 0.3762                 7.4069

                     25                     26                     27
                      A                      A                      A
 Frequencies --    431.5030               436.4066               448.4565
 Red. masses --      7.1236                 7.0999                 7.1548
 Frc consts  --      0.7815                 0.7967                 0.8478
 IR Inten    --     30.0738                10.3050                 0.0628

                     28                     29                     30
                      A                      A                      A
 Frequencies --    462.2440               473.3277               481.5724
 Red. masses --      4.2311                 4.9052                 7.1469
 Frc consts  --      0.5326                 0.6475                 0.9765
 IR Inten    --     30.8677                15.4804                32.6352

                     31                     32                     33
                      A                      A                      A
 Frequencies --    498.1992               505.0000               550.8527
 Red. masses --     10.3151                 9.2792                 5.9489
 Frc consts  --      1.5085                 1.3943                 1.0635
 IR Inten    --      3.2852                17.5738               219.9257

                     34                     35                     36
                      A                      A                      A
 Frequencies --    565.9715               567.8200               637.0655
 Red. masses --      6.2688                 7.1453                 4.3650
 Frc consts  --      1.1831                 1.3573                 1.0438
 IR Inten    --     53.6684               123.1076                 3.9270

                     37                     38                     39
                      A                      A                      A
 Frequencies --    651.3557               670.1131               673.8584
 Red. masses --      7.4862                 6.5589                 4.7113
 Frc consts  --      1.8713                 1.7353                 1.2604
 IR Inten    --      5.1851               168.9069               120.5861

                     40                     41                     42
                      A                      A                      A
 Frequencies --    687.7895               704.0502               715.6059
 Red. masses --      4.1386                 6.8129                 5.3411
 Frc consts  --      1.1535                 1.9897                 1.6115
 IR Inten    --    279.9497                 0.6152                 7.8254

                     43                     44                     45
                      A                      A                      A
 Frequencies --    728.1383               728.6570               802.1637
 Red. masses --      5.7936                 4.8212                 3.2522
 Frc consts  --      1.8098                 1.5082                 1.2330
 IR Inten    --     34.4277                 4.1495                 1.9662

                     46                     47                     48
                      A                      A                      A
 Frequencies --    824.5703               834.8353               841.2422
 Red. masses --      1.3696                 2.6936                 1.9843
 Frc consts  --      0.5487                 1.1061                 0.8274
 IR Inten    --      4.5670                64.8500                25.7561

                     49                     50                     51
                      A                      A                      A
 Frequencies --    852.7966               868.5156               933.8272
 Red. masses --      1.7067                 2.7640                 6.5764
 Frc consts  --      0.7313                 1.2284                 3.3789
 IR Inten    --    242.6216                56.7507                 3.0576

                     52                     53                     54
                      A                      A                      A
 Frequencies --    956.0578               962.5930               988.3107
 Red. masses --      1.3341                 1.3847                 4.4913
 Frc consts  --      0.7185                 0.7559                 2.5847
 IR Inten    --      0.1046                 7.1608                 8.1459

                     55                     56                     57
                      A                      A                      A
 Frequencies --    991.9392               994.9585              1061.4250
 Red. masses --      1.3650                 1.3311                 2.5679
 Frc consts  --      0.7913                 0.7764                 1.7046
 IR Inten    --      1.9132                 4.4864                36.1242

                     58                     59                     60
                      A                      A                      A
 Frequencies --   1062.7617              1084.2240              1086.9110
 Red. masses --      2.7179                 2.3452                 2.2520
 Frc consts  --      1.8087                 1.6243                 1.5675
 IR Inten    --     71.1188                76.4009               372.2072

                     61                     62                     63
                      A                      A                      A
 Frequencies --   1110.2726              1112.3862              1134.4672
 Red. masses --      1.8330                 1.8547                 1.8281
 Frc consts  --      1.3313                 1.3522                 1.3862
 IR Inten    --    562.1027               127.1627                72.9569

                     64                     65                     66
                      A                      A                      A
 Frequencies --   1135.9837              1180.6947              1188.9785
 Red. masses --      2.2243                 3.1003                 7.5239
 Frc consts  --      1.6911                 2.5464                 6.2668
 IR Inten    --     17.1969                18.5851               192.7022

                     67                     68                     69
                      A                      A                      A
 Frequencies --   1197.1717              1225.4929              1253.5411
 Red. masses --      2.4299                 1.5843                 1.6195
 Frc consts  --      2.0519                 1.4018                 1.4994
 IR Inten    --      2.2916                 4.3258                96.7992

                     70                     71                     72
                      A                      A                      A
 Frequencies --   1285.5131              1286.4024              1312.0080
 Red. masses --      9.6180                 8.4050                 2.0770
 Frc consts  --      9.3646                 8.1949                 2.1065
 IR Inten    --    146.3999               206.0192                10.5969

                     73                     74                     75
                      A                      A                      A
 Frequencies --   1366.5269              1368.2018              1386.0719
 Red. masses --     11.0117                11.6956                 3.7506
 Frc consts  --     12.1155                12.8995                 4.2454
 IR Inten    --     98.1497                 0.0187               152.3713

                     76                     77                     78
                      A                      A                      A
 Frequencies --   1449.2165              1475.0102              1478.1291
 Red. masses --      3.4842                 3.4061                 2.4323
 Frc consts  --      4.3114                 4.3661                 3.1311
 IR Inten    --      4.3130                42.6852                18.1106

                     79                     80                     81
                      A                      A                      A
 Frequencies --   1510.2648              1547.2213              1547.6677
 Red. masses --      8.3499                 6.8317                 7.4687
 Frc consts  --     11.2212                 9.6357                10.5402
 IR Inten    --    459.8886               142.4626                69.7442

                     82                     83                     84
                      A                      A                      A
 Frequencies --   1584.2024              1584.5912              1604.8227
 Red. masses --      1.1120                 1.1107                 5.5170
 Frc consts  --      1.6443                 1.6432                 8.3716
 IR Inten    --      2.1049                44.4913               153.3370

                     85                     86                     87
                      A                      A                      A
 Frequencies --   1607.2118              1638.2729              3186.2562
 Red. masses --      8.4726                 8.5670                 1.0868
 Frc consts  --     12.8947                13.5472                 6.5007
 IR Inten    --     24.5099                58.4438                 6.5750

                     88                     89                     90
                      A                      A                      A
 Frequencies --   3186.3800              3201.5039              3201.6969
 Red. masses --      1.0869                 1.0944                 1.0944
 Frc consts  --      6.5016                 6.6091                 6.6099
 IR Inten    --      0.2988                 1.5716                 4.0176

                     91                     92                     93
                      A                      A                      A
 Frequencies --   3203.9323              3204.3353              3484.7275
 Red. masses --      1.0904                 1.0906                 1.0466
 Frc consts  --      6.5950                 6.5976                 7.4882
 IR Inten    --      1.9866                 8.6278                15.1069

                     94                     95                     96
                      A                      A                      A
 Frequencies --   3484.8225              3588.7860              3588.8812
 Red. masses --      1.0466                 1.0969                 1.0968
 Frc consts  --      7.4887                 8.3233                 8.3237
 IR Inten    --     17.1291                19.0100                16.2813

 - Thermochemistry -
 -------------------
 Temperature   298.150 Kelvin.  Pressure   1.00000 Atm.
 Atom     1 has atomic number  6 and mass  12.00000

 Molecular mass:   365.99803 amu.
 Principal axes and moments of inertia in atomic units:
                           1         2         3
     Eigenvalues --  3283.52633********************
           X            0.88186  -0.46579   0.07323
           Y            0.34264   0.73975   0.57911
           Z           -0.32391  -0.48560   0.81196
 This molecule is an asymmetric top.
 Rotational symmetry number  1.
 Warning -- assumption of classical behavior for rotation
           may cause significant error
 Rotational temperatures (Kelvin)      0.02638     0.00405     0.00363
 Rotational constants (GHZ):           0.54964     0.08447     0.07566
 Zero-point vibrational energy     602126.3 (Joules/Mol)
                                  143.91164 (Kcal/Mol)
 Warning -- explicit consideration of  35 degrees of freedom as
           vibrations may cause significant error
 Vibrational temperatures:     32.51    36.57    53.35    81.93   107.71
          (Kelvin)            122.99   170.00   191.41   195.90   231.38
                              240.26   267.52   283.01   331.43   337.99
                              367.08   390.87   462.22   487.37   501.42
                              514.37   561.93   605.83   620.11   620.84
                              627.89   645.23   665.07   681.01   692.88
                              716.80   726.58   792.55   814.31   816.97
                              916.60   937.16   964.14   969.53   989.58
                             1012.97  1029.60  1047.63  1048.37  1154.13
                             1186.37  1201.14  1210.36  1226.98  1249.60
                             1343.57  1375.55  1384.96  1421.96  1427.18
                             1431.52  1527.15  1529.08  1559.96  1563.82
                             1597.43  1600.48  1632.25  1634.43  1698.76
                             1710.67  1722.46  1763.21  1803.57  1849.57
                             1850.85  1887.69  1966.13  1968.54  1994.25
                             2085.10  2122.21  2126.70  2172.93  2226.11
                             2226.75  2279.31  2279.87  2308.98  2312.42
                             2357.11  4584.31  4584.49  4606.25  4606.53
                             4609.74  4610.32  5013.75  5013.88  5163.46
                             5163.60

 Zero-point correction=                           0.229338 (Hartree/Particle)
 Thermal correction to Energy=                    0.250601
 Thermal correction to Enthalpy=                  0.251545
 Thermal correction to Gibbs Free Energy=         0.176922
 Sum of electronic and zero-point Energies=          -1896.845549
 Sum of electronic and thermal Energies=             -1896.824286
 Sum of electronic and thermal Enthalpies=           -1896.823342
 Sum of electronic and thermal Free Energies=        -1896.897965

                     E (Thermal)             CV                S
                      KCal/Mol        Cal/Mol-Kelvin    Cal/Mol-Kelvin
 Total                  157.254             81.189            157.056
 Electronic               0.000              0.000              1.377
 Translational            0.889              2.981             43.585
 Rotational               0.889              2.981             35.769
 Vibrational            155.477             75.227             76.325
 Vibration     1          0.593              1.985              6.392
 Vibration     2          0.593              1.985              6.159
 Vibration     3          0.594              1.982              5.409
 Vibration     4          0.596              1.975              4.560
 Vibration     5          0.599              1.966              4.021
 Vibration     6          0.601              1.959              3.761
 Vibration     7          0.608              1.934              3.130
 Vibration     8          0.613              1.920              2.902
 Vibration     9          0.614              1.917              2.857
 Vibration    10          0.622              1.890              2.540
 Vibration    11          0.624              1.883              2.469
 Vibration    12          0.632              1.859              2.268
 Vibration    13          0.636              1.844              2.164
 Vibration    14          0.652              1.795              1.876
 Vibration    15          0.655              1.787              1.841
 Vibration    16          0.666              1.754              1.695
 Vibration    17          0.675              1.725              1.586
 Vibration    18          0.707              1.633              1.304
 Vibration    19          0.719              1.598              1.218
 Vibration    20          0.726              1.578              1.173
 Vibration    21          0.733              1.560              1.133
 Vibration    22          0.758              1.490              0.998
 Vibration    23          0.784              1.424              0.888
 Vibration    24          0.792              1.403              0.855
 Vibration    25          0.793              1.402              0.854
 Vibration    26          0.797              1.391              0.838
 Vibration    27          0.807              1.364              0.800
 Vibration    28          0.820              1.334              0.760
 Vibration    29          0.830              1.309              0.728
 Vibration    30          0.838              1.291              0.706
 Vibration    31          0.854              1.254              0.663
 Vibration    32          0.860              1.239              0.646
 Vibration    33          0.906              1.138              0.542
 Vibration    34          0.922              1.105              0.512
 Vibration    35          0.924              1.101              0.508

 Optimization completed.
    -- Stationary point found.
 Normal termination of Gaussian 16 at Sun Jan  7 10:56:31 2024.
