 Q-Chem 5.4, Q-Chem, Inc., Pleasanton, CA (2021)
 Q-Chem 5.4.0 for Intel X86 EM64T Linux

User input:
--------------------------------------------------------------
$molecule
-1 2
C                  4.9790560000     -2.7055140000      0.0117400000
C                  5.6972770000     -1.7544470000     -0.6853680000
C                  5.0608370000     -0.6697760000     -1.3313900000
C                  3.5786230000     -2.6020260000      0.0977180000
C                  2.9178070000     -1.5157880000     -0.5444800000
C                  3.6910750000     -0.5682060000     -1.2556180000
C                  2.8436000000     -3.6216000000      0.8585510000
C                  1.3845990000     -3.4544260000      0.9034950000
C                  0.7283370000     -2.3663580000      0.2597290000
C                  1.4657420000     -1.3505280000     -0.4906340000
C                  0.6202080000     -4.3990800000      1.6124640000
C                 -0.6799980000     -2.2663210000      0.3499590000
C                 -1.4226750000     -3.1886120000      1.0500610000
O                  3.4211960000     -4.5615880000      1.4369410000
O                  0.8859310000     -0.3910850000     -1.0544520000
H                  5.4653230000     -3.5437570000      0.4948450000
H                 -2.5011030000     -3.1152490000      1.1109060000
H                  3.1623080000      0.2426820000     -1.7418120000
H                  1.1326610000     -5.2272820000      2.0857180000
H                 -1.1541070000     -1.4341710000     -0.1562690000
C                 -0.7516400000     -4.2599750000      1.6831540000
S                  7.4732560000     -1.8607700000     -0.7302140000
S                 -1.6992420000     -5.4245760000      2.6387560000
O                 -0.8952680000     -6.6290330000      2.8641390000
O                 -3.0585570000     -5.5377570000      2.1009600000
N                 -1.9112170000     -4.5943150000      4.1213670000
H                 -1.1143830000     -4.7662180000      4.7288850000
H                 -2.7629720000     -4.9451310000      4.5519860000
O                  7.8835500000     -3.2177820000     -0.3586600000
O                  7.9891580000     -1.2467030000     -1.9576250000
N                  7.9362060000     -0.7667280000      0.5031120000
H                  5.6502040000      0.0514950000     -1.8832130000
H                  8.8671800000     -0.4249690000      0.2784360000
H                  7.9447590000     -1.2438340000      1.4008120000
$end
$rem
MAX_SCF_CYCLES=200
BASIS  =  6-311++G(d,p)
GUI  =  2
JOB_TYPE  =  SP
METHOD  =  B3LYP
SOLVENT_METHOD = COSMO
$end
$solvent
dielectric 37.219
opticaldielectric 1.43
$end

--------------------------------------------------------------

             Standard Nuclear Orientation (Angstroms)
    I     Atom           X                Y                Z
 ----------------------------------------------------------------
    1      C       2.4712811532    -0.6668404610    -0.1491758190
    2      C       3.6563284160     0.0401649357    -0.1029615230
    3      C       3.6759845464     1.4518813686    -0.0282499057
    4      C       1.2439045879     0.0198755805    -0.1133649928
    5      C       1.2413627687     1.4422195650    -0.0362924387
    6      C       2.4783041760     2.1279389533     0.0002749953
    7      C      -0.0000743021    -0.7610568565    -0.1496672808
    8      C      -1.2439868154     0.0199791681    -0.1133986311
    9      C      -1.2413777140     1.4423156084    -0.0362060722
   10      C       0.0000275678     2.2142037273     0.0064906831
   11      C      -2.4713941273    -0.6666630342    -0.1493930770
   12      C      -2.4782824690     2.1280837534     0.0004682372
   13      C      -3.6760064379     1.4520833351    -0.0280511278
   14      O      -0.0001414147    -2.0058141245    -0.1977184051
   15      O       0.0000874277     3.4670199880     0.0775808833
   16      H       2.4564005666    -1.7472187525    -0.2203002081
   17      H      -4.6216007168     1.9789241219    -0.0085206363
   18      H       2.4473332767     3.2096465975     0.0499526596
   19      H      -2.4565509966    -1.7470236511    -0.2207835345
   20      H      -2.4472781443     3.2097887891     0.0501945058
   21      C      -3.6564068758     0.0403790942    -0.1030203823
   22      S       5.2005897017    -0.8442753151    -0.0819930592
   23      S      -5.2006309768    -0.8441272025    -0.0820261248
   24      O      -4.9773395783    -2.2132299408    -0.5548759925
   25      O      -6.2639398202    -0.0260584157    -0.6735576194
   26      N      -5.5833151405    -0.8721022436     1.5868574344
   27      H      -5.1363016020    -1.6710452164     2.0289458960
   28      H      -6.5941308487    -0.9450389614     1.6700620516
   29      O       4.9770920728    -2.2138585196    -0.5533376947
   30      O       6.2635204470    -0.0267840148    -0.6749999071
   31      N       5.5842239089    -0.8704352034     1.5866842847
   32      H       4.6216033701     1.9786853571    -0.0088453320
   33      H       6.5950892143    -0.9431974814     1.6694374894
   34      H       5.1375149809    -1.6689066007     2.0299259124
 ----------------------------------------------------------------

    9   -1897.0748402587      8.67e-06  Convergence criterion met
 Total energy in the final basis set =    -1897.0748402587
    4   -1897.1700192723      7.60e-06  Convergence criterion met
 Total energy in the final basis set =    -1897.1700192723

                    Orbital Energies (a.u.)
 --------------------------------------------------------------

 Alpha MOs
 -- Occupied --
-89.0814 -89.0814 -19.1357 -19.1357 -19.1351 -19.1351 -19.0981 -19.0925
-14.3437 -14.3437 -10.2484 -10.2396 -10.2220 -10.2220 -10.2011 -10.2011
-10.1976 -10.1976 -10.1942 -10.1942 -10.1938 -10.1938 -10.1877 -10.1877
 -8.1431  -8.1431  -6.1059  -6.1059  -6.1058  -6.1058  -6.1039  -6.1039
 -1.1375  -1.1374  -1.0289  -1.0288  -1.0286  -1.0197  -0.9120  -0.9120
 -0.8875  -0.8800  -0.8180  -0.7849  -0.7783  -0.7706  -0.7141  -0.6865
 -0.6809  -0.6342  -0.6279  -0.6054  -0.5794  -0.5616  -0.5597  -0.5308
 -0.5281  -0.5253  -0.5222  -0.5123  -0.4986  -0.4968  -0.4827  -0.4696
 -0.4665  -0.4493  -0.4458  -0.4440  -0.4412  -0.4376  -0.4336  -0.4136
 -0.3997  -0.3956  -0.3928  -0.3776  -0.3755  -0.3699  -0.3662  -0.3626
 -0.3506  -0.3499  -0.3391  -0.3381  -0.3286  -0.3277  -0.3059  -0.3058
 -0.2856  -0.2801  -0.2771  -0.2703  -0.2658  -0.2560  -0.1619

 Beta MOs
 -- Occupied --
-89.0814 -89.0814 -19.1357 -19.1357 -19.1350 -19.1350 -19.0932 -19.0862
-14.3437 -14.3437 -10.2473 -10.2379 -10.2213 -10.2213 -10.2014 -10.2014
-10.1970 -10.1970 -10.1933 -10.1933 -10.1929 -10.1929 -10.1877 -10.1877
 -8.1431  -8.1431  -6.1059  -6.1059  -6.1058  -6.1058  -6.1039  -6.1039
 -1.1373  -1.1373  -1.0288  -1.0288  -1.0202  -1.0087  -0.9119  -0.9118
 -0.8851  -0.8789  -0.8140  -0.7833  -0.7759  -0.7691  -0.7105  -0.6852
 -0.6763  -0.6326  -0.6262  -0.6047  -0.5774  -0.5598  -0.5590  -0.5303
 -0.5275  -0.5248  -0.5213  -0.5116  -0.4977  -0.4944  -0.4820  -0.4690
 -0.4661  -0.4490  -0.4451  -0.4419  -0.4365  -0.4289  -0.4287  -0.4106
 -0.3943  -0.3896  -0.3772  -0.3762  -0.3752  -0.3691  -0.3612  -0.3565
 -0.3504  -0.3489  -0.3386  -0.3378  -0.3281  -0.3274  -0.3048  -0.3016
 -0.2770  -0.2684  -0.2666  -0.2645  -0.2609  -0.2505

          Ground-State Mulliken Net Atomic Charges

     Atom                 Charge (a.u.)    Spin (a.u.)
  --------------------------------------------------------
      1 C                    -0.056456      -0.016364
      2 C                    -0.352370       0.033089
      3 C                    -0.432264       0.054388
      4 C                     0.187514       0.057105
      5 C                     0.654444       0.052952
      6 C                    -0.240608       0.029196
      7 C                    -0.846186       0.065778
      8 C                     0.186795       0.057093
      9 C                     0.654813       0.052916
     10 C                    -0.141203       0.097249
     11 C                    -0.056888      -0.016362
     12 C                    -0.239690       0.029201
     13 C                    -0.432058       0.054367
     14 O                    -0.416665       0.179750
     15 O                    -0.447126       0.231606
     16 H                     0.247484       0.000750
     17 H                     0.279553      -0.003518
     18 H                     0.187106      -0.001403
     19 H                     0.247407       0.000750
     20 H                     0.187206      -0.001404
     21 C                    -0.351878       0.033099
     22 S                     0.365885       0.005509
     23 S                     0.366211       0.005497
     24 O                    -0.274342       0.001921
     25 O                    -0.337573      -0.001891
     26 N                    -0.479161       0.000478
     27 H                     0.324889      -0.000257
     28 H                     0.350383       0.000893
     29 O                    -0.274037       0.001918
     30 O                    -0.337136      -0.001894
     31 N                    -0.478725       0.000474
     32 H                     0.279406      -0.003520
     33 H                     0.350257       0.000892
     34 H                     0.324979      -0.000257
  --------------------------------------------------------
  Sum of atomic charges =    -1.000035

                    Cartesian Multipole Moments
 -----------------------------------------------------------------
    Charge (ESU x 10^10)
                -4.8034
    Dipole Moment (Debye)
         X       0.0017      Y      -0.7798      Z       7.9849
       Tot       8.0229
    Quadrupole Moments (Debye-Ang)
        XX    -214.7491     XY       0.0198     YY    -193.5900
        XZ       0.0110     YZ     -16.4440     ZZ    -154.1836

 Total job time:  146.62s(wall), 1054.05s(cpu)
        *  Thank you very much for using Q-Chem.  Have a nice day.  *
