 Q-Chem 5.4, Q-Chem, Inc., Pleasanton, CA (2021)
 Q-Chem 5.4.0 for Intel X86 EM64T Linux

User input:
--------------------------------------------------------------
$molecule
0 1
O                  0.0959190000      2.9134330000      0.8807940000
C                  0.0577340000      1.7533670000      0.5300940000
C                  1.2162720000      0.8256960000      0.3147210000
C                  2.5726860000      1.0655720000      0.4611840000
C                  3.4633710000      0.0196830000      0.1956910000
C                  2.9843400000     -1.2284580000     -0.2056790000
C                  1.6116430000     -1.4673730000     -0.3527670000
C                  0.7271970000     -0.4302490000     -0.0895670000
C                 -0.7533810000     -0.3631120000     -0.1505200000
C                 -1.7030690000     -1.3170030000     -0.4893060000
C                 -3.0562880000     -0.9543770000     -0.4543160000
C                 -3.4518490000      0.3330520000     -0.0888540000
C                 -2.4949980000      1.2953610000      0.2527730000
C                 -1.1584870000      0.9334370000      0.2170630000
H                  2.9249480000      2.0420840000      0.7739770000
H                  4.5306370000      0.1761350000      0.3012420000
H                  3.6876360000     -2.0287830000     -0.4076140000
H                  1.2595770000     -2.4439870000     -0.6655570000
H                 -1.4167550000     -2.3226590000     -0.7759910000
H                 -3.8098350000     -1.6888460000     -0.7163640000
H                 -4.5055650000      0.5861090000     -0.0703920000
H                 -2.7817330000      2.3009160000      0.5393900000
$end
$rem
MAX_SCF_CYCLES=200
BASIS  =  6-311++G(d,p)
GUI  =  2
JOB_TYPE  =  SP
METHOD  =  B3LYP
SOLVENT_METHOD = COSMO
$end
$solvent
dielectric 37.219
opticaldielectric 1.43
$end

--------------------------------------------------------------

             Standard Nuclear Orientation (Angstroms)
    I     Atom           X                Y                Z
 ----------------------------------------------------------------
    1      O      -0.0000706893    -2.7925249758    -0.0001005778
    2      C      -0.0000522586    -1.5800062318    -0.0000396131
    3      C      -1.1895609290    -0.6666396933    -0.0000524877
    4      C      -2.5385993551    -0.9811967890     0.0000073847
    5      C      -3.4640471660     0.0682013468     0.0000753525
    6      C      -3.0259115177     1.3935170395     0.0000894868
    7      C      -1.6605513677     1.7078480197     0.0000086920
    8      C      -0.7416333794     0.6673025452    -0.0000595981
    9      C       0.7417188573     0.6673036994    -0.0000859551
   10      C       1.6603776671     1.7078118825    -0.0001429826
   11      C       3.0260408405     1.3933477984    -0.0000224465
   12      C       3.4641151882     0.0683590267     0.0001476259
   13      C       2.5385710415    -0.9812501800     0.0001266970
   14      C       1.1896459782    -0.6667235608    -0.0000089022
   15      H      -2.8588575823    -2.0170241546     0.0000015423
   16      H      -4.5265731153    -0.1456059495     0.0001364524
   17      H      -3.7558179803     2.1954893971     0.0001724527
   18      H      -1.3404935134     2.7437659347     0.0000364550
   19      H       1.3408623070     2.7438707179    -0.0002450578
   20      H       3.7557035083     2.1955568351    -0.0000377127
   21      H       4.5265554587    -0.1459229295     0.0002661415
   22      H       2.8585048367    -2.0171794642     0.0002148271
 ----------------------------------------------------------------

    9    -575.5811188040      2.56e-06  Convergence criterion met
 Total energy in the final basis set =     -575.5811188040
    5    -575.5933021345      5.41e-06  Convergence criterion met
 Total energy in the final basis set =     -575.5933021345

                    Orbital Energies (a.u.)
 --------------------------------------------------------------

 Alpha MOs
 -- Occupied --
-19.1354 -10.2790 -10.2028 -10.2026 -10.1946 -10.1946 -10.1924 -10.1924
-10.1909 -10.1909 -10.1906 -10.1905 -10.1875 -10.1875  -1.0668  -0.9055
 -0.8662  -0.8132  -0.7782  -0.7628  -0.7357  -0.6787  -0.6447  -0.6065
 -0.5939  -0.5735  -0.5232  -0.5172  -0.4931  -0.4662  -0.4642  -0.4503
 -0.4459  -0.4457  -0.4403  -0.4321  -0.3877  -0.3842  -0.3782  -0.3768
 -0.3624  -0.3534  -0.3053  -0.2798  -0.2758  -0.2717  -0.2403

          Ground-State Mulliken Net Atomic Charges

     Atom                 Charge (a.u.)
  ----------------------------------------
      1 O                    -0.341285
      2 C                    -0.171663
      3 C                     0.770559
      4 C                    -0.112201
      5 C                    -0.372065
      6 C                    -0.301054
      7 C                    -0.464554
      8 C                    -0.071560
      9 C                    -0.072353
     10 C                    -0.464454
     11 C                    -0.301446
     12 C                    -0.372385
     13 C                    -0.112410
     14 C                     0.771147
     15 H                     0.196446
     16 H                     0.215003
     17 H                     0.228083
     18 H                     0.168469
     19 H                     0.168263
     20 H                     0.228023
     21 H                     0.215006
     22 H                     0.196434
  ----------------------------------------
  Sum of atomic charges =     0.000000

                    Cartesian Multipole Moments
 -----------------------------------------------------------------
    Charge (ESU x 10^10)
                 0.0000
    Dipole Moment (Debye)
         X      -0.0010      Y       5.3166      Z       0.0007
       Tot       5.3166
    Quadrupole Moments (Debye-Ang)
        XX     -59.4299     XY      -0.0027     YY     -83.0081
        XZ      -0.0004     YZ      -0.0006     ZZ     -85.3064

 Total job time:  57.31s(wall), 259.85s(cpu)
        *  Thank you very much for using Q-Chem.  Have a nice day.  *
