 Gaussian 16, Revision A.03,
 Gaussian 16:  ES64L-G16RevA.03 25-Dec-2016

 ----------------------------------------------------------------
 #P UB3LYP/6-311++G(d,p) SCRF=(PCM,Solvent=n,n-DiMethylFormamide)
 ----------------------------------------------------------------

 ------------------
 Quinone PCM in DMF
 ------------------
 Symbolic Z-matrix:
 Charge =  0 Multiplicity = 1

                         Standard orientation:
 ---------------------------------------------------------------------
 Center     Atomic      Atomic             Coordinates (Angstroms)
 Number     Number       Type             X           Y           Z
 ---------------------------------------------------------------------
      1          6           0       -2.490805    1.383620   -0.000153
      2          6           0       -3.708848    0.707508    0.000051
      3          6           0       -3.708868   -0.707527    0.000060
      4          6           0       -2.490812   -1.383623   -0.000079
      5          6           0       -1.271855   -0.701719   -0.000143
      6          6           0       -1.271846    0.701730   -0.000213
      7          6           0        0.000002    1.478873   -0.000294
      8          6           0        1.271857    0.701742   -0.000079
      9          6           0        1.271851   -0.701745   -0.000040
     10          6           0       -0.000017   -1.478872   -0.000209
     11          6           0        2.490790    1.383613    0.000078
     12          6           0        3.708879    0.707495    0.000210
     13          6           0        3.708867   -0.707496    0.000180
     14          6           0        2.490778   -1.383614    0.000092
     15          8           0        0.000004    2.700910   -0.000488
     16          8           0       -0.000030   -2.700910   -0.000402
     17          6           0        5.003295    1.480446    0.000328
     18          6           0        5.003257   -1.480466    0.000105
     19          6           0       -5.003250    1.480507    0.000371
     20          6           0       -5.003287   -1.480484    0.000304
     21          1           0       -2.465830    2.467230   -0.000224
     22          1           0       -2.465783   -2.467231   -0.000057
     23          1           0        2.465869    2.467223    0.000016
     24          1           0        2.465887   -2.467227    0.000075
     25          1           0        4.817781    2.555225    0.000281
     26          1           0        5.611412    1.242392   -0.878540
     27          1           0        5.611302    1.242477    0.879296
     28          1           0        5.611250   -1.242410   -0.878867
     29          1           0        4.817688   -2.555232    0.000017
     30          1           0        5.611434   -1.242544    0.878968
     31          1           0       -4.817633    2.555269    0.000287
     32          1           0       -5.611009    1.242551    0.879516
     33          1           0       -5.611632    1.242562   -0.878340
     34          1           0       -5.611503   -1.242685   -0.878548
     35          1           0       -5.611197   -1.242268    0.879292
     36          1           0       -4.817761   -2.555262    0.000539
 ---------------------------------------------------------------------

 SCF Done:  E(UB3LYP) =  -846.277595724     A.U. after   14 cycles

 The electronic state is 1-A.
 Alpha  occ. eigenvalues --  -19.12718 -19.12717 -10.27907 -10.27906 -10.20403
 Alpha  occ. eigenvalues --  -10.20402 -10.20355 -10.20355 -10.20222 -10.20221
 Alpha  occ. eigenvalues --  -10.20170 -10.20170 -10.19083 -10.19082 -10.19081
 Alpha  occ. eigenvalues --  -10.19081 -10.17363 -10.17363 -10.17363 -10.17362
 Alpha  occ. eigenvalues --   -1.06231  -1.06056  -0.89358  -0.88417  -0.82815
 Alpha  occ. eigenvalues --   -0.79720  -0.78656  -0.78575  -0.72961  -0.72261
 Alpha  occ. eigenvalues --   -0.71933  -0.68590  -0.66037  -0.63221  -0.61283
 Alpha  occ. eigenvalues --   -0.60855  -0.58281  -0.53973  -0.53029  -0.50988
 Alpha  occ. eigenvalues --   -0.48286  -0.47675  -0.46566  -0.45714  -0.45457
 Alpha  occ. eigenvalues --   -0.44737  -0.44596  -0.44594  -0.43718  -0.43690
 Alpha  occ. eigenvalues --   -0.42821  -0.41690  -0.40849  -0.40765  -0.39766
 Alpha  occ. eigenvalues --   -0.39649  -0.39501  -0.39485  -0.37328  -0.37131
 Alpha  occ. eigenvalues --   -0.36176  -0.36078  -0.35504  -0.35130  -0.28509
 Alpha  occ. eigenvalues --   -0.27382  -0.27199  -0.27160  -0.26951  -0.25726
 Alpha virt. eigenvalues --   -0.11407  -0.06765  -0.02996  -0.02163  -0.00948
 Alpha virt. eigenvalues --   -0.00476   0.00730   0.01052   0.01484   0.02775
 Alpha virt. eigenvalues --    0.03220   0.03240   0.03308   0.03319   0.03349

  Beta  occ. eigenvalues --  -19.12718 -19.12717 -10.27907 -10.27906 -10.20403
  Beta  occ. eigenvalues --  -10.20402 -10.20355 -10.20355 -10.20222 -10.20221
  Beta  occ. eigenvalues --  -10.20170 -10.20170 -10.19083 -10.19082 -10.19081
  Beta  occ. eigenvalues --  -10.19081 -10.17363 -10.17363 -10.17363 -10.17362
  Beta  occ. eigenvalues --   -1.06231  -1.06056  -0.89358  -0.88417  -0.82815
  Beta  occ. eigenvalues --   -0.79720  -0.78656  -0.78575  -0.72961  -0.72261
  Beta  occ. eigenvalues --   -0.71933  -0.68590  -0.66037  -0.63221  -0.61283
  Beta  occ. eigenvalues --   -0.60855  -0.58281  -0.53973  -0.53029  -0.50988
  Beta  occ. eigenvalues --   -0.48286  -0.47675  -0.46566  -0.45714  -0.45457
  Beta  occ. eigenvalues --   -0.44737  -0.44596  -0.44594  -0.43718  -0.43690
  Beta  occ. eigenvalues --   -0.42821  -0.41690  -0.40849  -0.40765  -0.39766
  Beta  occ. eigenvalues --   -0.39649  -0.39501  -0.39485  -0.37328  -0.37131
  Beta  occ. eigenvalues --   -0.36176  -0.36078  -0.35504  -0.35130  -0.28509
  Beta  occ. eigenvalues --   -0.27382  -0.27199  -0.27160  -0.26951  -0.25726
  Beta virt. eigenvalues --   -0.11407  -0.06765  -0.02996  -0.02163  -0.00948
  Beta virt. eigenvalues --   -0.00476   0.00730   0.01052   0.01484   0.02775
  Beta virt. eigenvalues --    0.03220   0.03240   0.03308   0.03319   0.03349

 Mulliken charges and spin densities:
               1          2
     1  C   -0.129463   0.000000
     2  C    0.364742  -0.000000
     3  C    0.364691   0.000000
     4  C   -0.129491   0.000000
     5  C    0.124549   0.000000
     6  C    0.124511  -0.000000
     7  C   -0.810950   0.000000
     8  C    0.124300  -0.000000
     9  C    0.124310   0.000000
    10  C   -0.810980  -0.000000
    11  C   -0.129665   0.000000
    12  C    0.364832  -0.000000
    13  C    0.364873   0.000000
    14  C   -0.129638   0.000000
    15  O   -0.273051  -0.000000
    16  O   -0.273050  -0.000000
    17  C   -0.482079  -0.000000
    18  C   -0.482099   0.000000
    19  C   -0.482079   0.000000
    20  C   -0.482086  -0.000000
    21  H    0.147036  -0.000000
    22  H    0.147042  -0.000000
    23  H    0.147039   0.000000
    24  H    0.147036  -0.000000
    25  H    0.178178  -0.000000
    26  H    0.169607   0.000000
    27  H    0.169633   0.000000
    28  H    0.169622  -0.000000
    29  H    0.178177  -0.000000
    30  H    0.169621  -0.000000
    31  H    0.178174  -0.000000
    32  H    0.169620  -0.000000
    33  H    0.169622  -0.000000
    34  H    0.169653  -0.000000
    35  H    0.169589  -0.000000
    36  H    0.178175   0.000000
 Sum of Mulliken charges =  -0.00000  -0.00000

 Dipole moment (field-independent basis, Debye):
    X=              0.0002    Y=             -0.0000    Z=              0.0018  Tot=              0.0018
 Quadrupole moment (field-independent basis, Debye-Ang):
   XX=            -68.9983   YY=           -132.0880   ZZ=           -119.4446
   XY=              0.0001   XZ=             -0.0013   YZ=              0.0004

 Normal termination of Gaussian 16 at Sun Jan 14 01:04:04 2024.
