 Q-Chem 5.4, Q-Chem, Inc., Pleasanton, CA (2021)
 Q-Chem 5.4.0 for Intel X86 EM64T Linux

User input:
--------------------------------------------------------------
$molecule
-2 1
C                  0.9034550000      1.1662960000     -1.4538640000
C                 -0.4646690000      1.0718040000     -1.8964380000
C                 -1.3812710000      0.3431500000     -1.1169350000
C                 -1.0612310000     -0.3877420000      0.0858320000
C                  0.3021660000     -0.2767970000      0.5390250000
C                  1.2052100000      0.4994400000     -0.2098550000
O                  1.7978920000      1.8059110000     -2.1176820000
O                 -1.9389380000     -1.0862700000      0.7115570000
S                  2.9068480000      0.7444310000      0.3311910000
C                  3.1899200000      2.5513290000      0.3585160000
C                  3.6907910000      3.2169310000     -0.7596750000
C                  2.9375660000      3.2334550000      1.5459810000
C                  3.1862760000      4.6048130000      1.6212360000
C                  3.9492710000      4.5854840000     -0.6716210000
C                  3.6949620000      5.2818470000      0.5110670000
O                  3.9042300000      0.1636160000     -0.5920630000
O                  3.0420420000      0.3591780000      1.7598630000
H                  3.8448970000      2.6577730000     -1.6702630000
H                  2.5598870000      2.6823960000      2.3983870000
H                  4.3344920000      5.1130580000     -1.5391580000
H                  2.9846520000      5.1402100000      2.5442590000
H                  3.8850840000      6.3502890000      0.5654890000
S                 -3.1233330000      0.2398400000     -1.5671810000
C                 -4.0746160000      0.7597190000     -0.0939550000
C                 -4.4040100000      2.1071470000      0.0281660000
C                 -4.5007560000     -0.1724330000      0.8514020000
C                 -5.2780620000      0.2620900000      1.9258540000
C                 -5.1703580000      2.5353950000      1.1132920000
C                 -5.6100470000      1.6109440000      2.0628420000
H                 -4.0661190000      2.8016080000     -0.7310810000
H                 -4.1991310000     -1.2026750000      0.7364570000
H                 -5.6101290000     -0.4561300000      2.6696570000
H                 -5.4235040000      3.5865970000      1.2141000000
H                 -6.2029380000      1.9423450000      2.9109740000
O                 -3.5608560000     -1.1313610000     -1.9032810000
O                 -3.4484370000      1.2892980000     -2.5675740000
C                 -0.7584780000      1.7472940000     -3.2150490000
C                  0.6300600000     -1.0714850000      1.7809490000
H                  0.2027650000      2.0180340000     -3.6551530000
H                 -1.3566970000      2.6568090000     -3.0911870000
H                 -1.3196440000      1.1046140000     -3.8972610000
H                 -0.2217900000     -1.7256190000      1.9744330000
H                  0.7859080000     -0.4297020000      2.6551490000
H                  1.5427710000     -1.6614700000      1.6701100000
$end
$rem
MAX_SCF_CYCLES=200
BASIS  =  6-311++G(d,p)
GUI  =  2
JOB_TYPE  =  SP
METHOD  =  B3LYP
SOLVENT_METHOD = COSMO
$end
$solvent
dielectric 37.219
opticaldielectric 1.43
$end

--------------------------------------------------------------

             Standard Nuclear Orientation (Angstroms)
    I     Atom           X                Y                Z
 ----------------------------------------------------------------
    1      C      -1.1276939008    -1.0036720809     0.9343509294
    2      C       0.2304976847    -0.9980059899     1.4158561479
    3      C       1.2815012365    -0.9593649958     0.4817152523
    4      C       1.1268196757    -0.9846238034    -0.9531062631
    5      C      -0.2313624925    -0.9701459862    -1.4344332402
    6      C      -1.2824451675    -0.9506028707    -0.4997157013
    7      O      -2.1376063623    -1.0476174885     1.7267680250
    8      O       2.1368895757    -1.0127989633    -1.7460802082
    9      S      -3.0043907401    -0.8591496617    -1.0239894872
   10      C      -3.7453380578     0.5571315406    -0.1346630996
   11      C      -4.3689043165     0.3831440749     1.1003034490
   12      C      -3.7119249854     1.8049175755    -0.7518868234
   13      C      -4.3085409146     2.9010626989    -0.1268603883
   14      C      -4.9745965504     1.4815753899     1.7119310279
   15      C      -4.9428369788     2.7388275646     1.1064116646
   16      O      -3.7909681611    -2.0571214100    -0.6625001821
   17      O      -3.0763531999    -0.4397738782    -2.4476279005
   18      H      -4.3471520051    -0.5938178334     1.5592686988
   19      H      -3.2292909475     1.9011166228    -1.7166217954
   20      H      -5.4580121577     1.3564518237     2.6762978847
   21      H      -4.2786262931     3.8764535418    -0.6032965988
   22      H      -5.4040216340     3.5914483006     1.5973526293
   23      S       3.0032745970    -0.8777632092     1.0080346153
   24      C       3.7453177166     0.5540012583     0.1448828986
   25      C       3.7117723780     1.7905757556     0.7842062785
   26      C       4.3705403954     0.4016476897    -1.0920841584
   27      C       4.9780688484     1.5103080128    -1.6830523659
   28      C       4.3100347658     2.8972905535     0.1796829010
   29      C       4.9462309132     2.7565935534    -1.0552422330
   30      H       3.2278397471     1.8699425273     1.7498213881
   31      H       4.3487475899    -0.5669750817    -1.5684071291
   32      H       5.4629586134     1.4020274448    -2.6487172136
   33      H       4.2800051106     3.8640751693     0.6733391796
   34      H       5.4088126308     3.6174863504    -1.5301695924
   35      O       3.7896486979    -2.0692098765     0.6250824244
   36      O       3.0747422631    -0.4843650587     2.4391080330
   37      C       0.3774836769    -1.0858005294     2.9165335532
   38      C      -0.3782682991    -1.0281206138    -2.9365904693
   39      H      -0.6080492730    -1.3253422405     3.3194285230
   40      H       0.7166098830    -0.1413089384     3.3562543205
   41      H       1.1049529179    -1.8417077587     3.2210837775
   42      H       0.6077527737    -1.2573605807    -3.3442511768
   43      H      -0.7196235089    -0.0757791668    -3.3572114950
   44      H      -1.1040014324    -1.7794436304    -3.2563311418
 ----------------------------------------------------------------

   11   -2019.7572201744      3.94e-06  Convergence criterion met
 Total energy in the final basis set =    -2019.7572201744
    5   -2020.0130208976      7.33e-06  Convergence criterion met
 Total energy in the final basis set =    -2020.0130208976

                    Orbital Energies (a.u.)
 --------------------------------------------------------------

 Alpha MOs
 -- Occupied --
-89.0386 -89.0386 -19.1077 -19.1077 -19.1016 -19.1016 -19.0335 -19.0335
-10.2003 -10.2002 -10.2000 -10.2000 -10.1828 -10.1828 -10.1803 -10.1803
-10.1792 -10.1792 -10.1788 -10.1788 -10.1772 -10.1772 -10.1758 -10.1758
-10.1632 -10.1631 -10.1405 -10.1405  -8.1022  -8.1022  -6.0653  -6.0653
 -6.0640  -6.0640  -6.0629  -6.0629  -1.0948  -1.0947  -0.9897  -0.9897
 -0.9616  -0.9579  -0.8646  -0.8646  -0.8187  -0.7822  -0.7675  -0.7611
 -0.7517  -0.7517  -0.7170  -0.7111  -0.6752  -0.6412  -0.6264  -0.6127
 -0.6112  -0.6091  -0.5812  -0.5559  -0.5362  -0.5308  -0.5227  -0.4907
 -0.4869  -0.4728  -0.4695  -0.4679  -0.4614  -0.4609  -0.4452  -0.4440
 -0.4416  -0.4412  -0.4267  -0.4259  -0.4109  -0.4010  -0.3949  -0.3872
 -0.3813  -0.3800  -0.3755  -0.3728  -0.3681  -0.3680  -0.3560  -0.3558
 -0.3512  -0.3469  -0.3403  -0.3390  -0.3280  -0.3247  -0.3154  -0.3153
 -0.2977  -0.2964  -0.2878  -0.2805  -0.2659  -0.2635  -0.2622  -0.2599
 -0.2452  -0.2368  -0.2180  -0.2102  -0.1406

          Ground-State Mulliken Net Atomic Charges

     Atom                 Charge (a.u.)
  ----------------------------------------
      1 C                    -0.852894
      2 C                     0.420735
      3 C                     0.316254
      4 C                    -0.852033
      5 C                     0.418880
      6 C                     0.317274
      7 O                    -0.542154
      8 O                    -0.542132
      9 S                     0.214519
     10 C                     0.035300
     11 C                    -0.195537
     12 C                     0.279079
     13 C                    -0.537858
     14 C                    -0.420969
     15 C                    -0.316433
     16 O                    -0.238939
     17 O                    -0.255739
     18 H                     0.274390
     19 H                     0.251498
     20 H                     0.225238
     21 H                     0.224662
     22 H                     0.205366
     23 S                     0.215361
     24 C                     0.032832
     25 C                     0.283972
     26 C                    -0.199858
     27 C                    -0.418471
     28 C                    -0.538747
     29 C                    -0.316559
     30 H                     0.251766
     31 H                     0.274188
     32 H                     0.225288
     33 H                     0.224595
     34 H                     0.205374
     35 O                    -0.238642
     36 O                    -0.255911
     37 C                    -0.598451
     38 C                    -0.598762
     39 H                     0.165688
     40 H                     0.174953
     41 H                     0.171098
     42 H                     0.165813
     43 H                     0.174961
     44 H                     0.170990
  ----------------------------------------
  Sum of atomic charges =    -2.000011

                    Cartesian Multipole Moments
 -----------------------------------------------------------------
    Charge (ESU x 10^10)
                -9.6065
    Dipole Moment (Debye)
         X       0.0097      Y      16.3486      Z       0.1511
       Tot      16.3493
    Quadrupole Moments (Debye-Ang)
        XX    -268.4997     XY       0.1680     YY    -196.2981
        XZ     -21.4996     YZ       0.2268     ZZ    -218.9856

 Total job time:  231.76s(wall), 1767.81s(cpu)
        *  Thank you very much for using Q-Chem.  Have a nice day.  *
