 Q-Chem 5.4, Q-Chem, Inc., Pleasanton, CA (2021)
 Q-Chem 5.4.0 for Intel X86 EM64T Linux

User input:
--------------------------------------------------------------
$molecule
0 1
C                  1.1678960000      1.3293780000     -1.3886150000
C                 -0.1499540000      0.6653620000     -1.5043060000
C                 -0.5121960000     -0.3681750000     -0.7315990000
C                  0.4564230000     -0.8839070000      0.2898290000
C                  1.7697750000     -0.1823750000      0.4596480000
C                  2.1168380000      0.8516260000     -0.3420000000
C                  3.4346140000      1.5653010000     -0.2332240000
C                  2.6787890000     -0.7097210000      1.5346390000
O                  1.4496260000      2.2532950000     -2.1375600000
O                  0.1883060000     -1.8638630000      0.9649160000
H                 -0.8087500000      1.0780160000     -2.2618140000
H                  4.2694690000      0.8600880000     -0.2771110000
H                  3.5127480000      2.0958800000      0.7218510000
H                  3.5410600000      2.2916180000     -1.0372380000
H                  2.1597710000     -1.4399200000      2.1526130000
H                  3.0478170000      0.1012430000      2.1682470000
H                  3.5557360000     -1.1990150000      1.0963170000
C                 -1.8686190000     -1.0186830000     -0.8920650000
C                 -1.8350590000     -2.4961810000     -1.2778480000
O                 -2.5650960000     -0.8413220000      0.3747000000
C                 -3.9081820000     -0.6711140000      0.3258880000
C                 -4.4718550000     -0.5013200000      1.7129430000
O                 -4.5465650000     -0.6573530000     -0.6981860000
H                 -2.4243940000     -0.4632050000     -1.6490020000
H                 -2.8530900000     -2.8474140000     -1.4553490000
H                 -1.3729290000     -3.0907880000     -0.4916230000
H                 -1.2666980000     -2.6241880000     -2.2032630000
H                 -4.0477300000      0.3919220000      2.1776120000
H                 -4.1961840000     -1.3554740000      2.3348420000
H                 -5.5545150000     -0.4108110000      1.6562090000
$end

$rem
BASIS  =  6-311++G(d,p)
GUI  =  2
JOB_TYPE  =  SP
METHOD  =  B3LYP
SCF_CONVERGENCE  = 8
SOLVENT_METHOD = sm12
$end

$smx
solvent dimethylformamide
charges CM5
$end

--------------------------------------------------------------

             Standard Nuclear Orientation (Angstroms)
    I     Atom           X                Y                Z
 ----------------------------------------------------------------
    1      C       1.1678960000     1.3293780000    -1.3886150000
    2      C      -0.1499540000     0.6653620000    -1.5043060000
    3      C      -0.5121960000    -0.3681750000    -0.7315990000
    4      C       0.4564230000    -0.8839070000     0.2898290000
    5      C       1.7697750000    -0.1823750000     0.4596480000
    6      C       2.1168380000     0.8516260000    -0.3420000000
    7      C       3.4346140000     1.5653010000    -0.2332240000
    8      C       2.6787890000    -0.7097210000     1.5346390000
    9      O       1.4496260000     2.2532950000    -2.1375600000
   10      O       0.1883060000    -1.8638630000     0.9649160000
   11      H      -0.8087500000     1.0780160000    -2.2618140000
   12      H       4.2694690000     0.8600880000    -0.2771110000
   13      H       3.5127480000     2.0958800000     0.7218510000
   14      H       3.5410600000     2.2916180000    -1.0372380000
   15      H       2.1597710000    -1.4399200000     2.1526130000
   16      H       3.0478170000     0.1012430000     2.1682470000
   17      H       3.5557360000    -1.1990150000     1.0963170000
   18      C      -1.8686190000    -1.0186830000    -0.8920650000
   19      C      -1.8350590000    -2.4961810000    -1.2778480000
   20      O      -2.5650960000    -0.8413220000     0.3747000000
   21      C      -3.9081820000    -0.6711140000     0.3258880000
   22      C      -4.4718550000    -0.5013200000     1.7129430000
   23      O      -4.5465650000    -0.6573530000    -0.6981860000
   24      H      -2.4243940000    -0.4632050000    -1.6490020000
   25      H      -2.8530900000    -2.8474140000    -1.4553490000
   26      H      -1.3729290000    -3.0907880000    -0.4916230000
   27      H      -1.2666980000    -2.6241880000    -2.2032630000
   28      H      -4.0477300000     0.3919220000     2.1776120000
   29      H      -4.1961840000    -1.3554740000     2.3348420000
   30      H      -5.5545150000    -0.4108110000     1.6562090000
 ----------------------------------------------------------------

   15    -766.8187818028      9.48e-09  Convergence criterion met
 Total energy in the final basis set =     -766.8366598959

                    Orbital Energies (a.u.)
 --------------------------------------------------------------

 Alpha MOs
 -- Occupied --
-19.1696 -19.1359 -19.1353 -19.1166 -10.3079 -10.2829 -10.2799 -10.2497
-10.2188 -10.2106 -10.2092 -10.2079 -10.1746 -10.1704 -10.1699 -10.1660
 -1.1116  -1.0690  -1.0655  -1.0279  -0.8699  -0.8321  -0.7809  -0.7473
 -0.7398  -0.6952  -0.6892  -0.6485  -0.6002  -0.5941  -0.5625  -0.5280
 -0.5062  -0.4951  -0.4817  -0.4789  -0.4625  -0.4623  -0.4470  -0.4360
 -0.4290  -0.4243  -0.4195  -0.4155  -0.4092  -0.4062  -0.4018  -0.3966
 -0.3875  -0.3794  -0.3741  -0.3713  -0.3546  -0.3147  -0.3064  -0.2884
 -0.2856  -0.2754  -0.2714

          Ground-State Mulliken Net Atomic Charges

     Atom                 Charge (a.u.)
  ----------------------------------------
      1 C                    -1.364735
      2 C                    -0.224909
      3 C                     1.340159
      4 C                    -1.063246
      5 C                     0.338497
      6 C                     0.682922
      7 C                    -0.038357
      8 C                    -0.206845
      9 O                    -0.320710
     10 O                    -0.265268
     11 H                     0.297130
     12 H                     0.221444
     13 H                     0.225429
     14 H                     0.161017
     15 H                     0.173031
     16 H                     0.215767
     17 H                     0.223591
     18 C                    -0.614565
     19 C                    -0.508896
     20 O                     0.116940
     21 C                    -0.079664
     22 C                    -0.278072
     23 O                    -0.356795
     24 H                     0.213885
     25 H                     0.158380
     26 H                     0.150482
     27 H                     0.186087
     28 H                     0.216743
     29 H                     0.211149
     30 H                     0.189407
  ----------------------------------------
  Sum of atomic charges =     0.000000

                    Cartesian Multipole Moments
 -----------------------------------------------------------------
    Charge (ESU x 10^10)
                -0.0000
    Dipole Moment (Debye)
         X       2.3124      Y      -0.4179      Z       2.3355
       Tot       3.3130
    Quadrupole Moments (Debye-Ang)
        XX     -94.8051     XY      -2.6145     YY    -101.9550
        XZ      -3.8329     YZ       8.7869     ZZ     -96.4150

 Total job time:  691.56s(wall), 5185.08s(cpu)
        *  Thank you very much for using Q-Chem.  Have a nice day.  *
