 Gaussian 16, Revision A.03,
 Gaussian 16:  ES64L-G16RevA.03 25-Dec-2016

 --------------------------------------
 #P UB3LYP/6-311++G(d,p) nosym opt freq
 --------------------------------------

 -------
 Reduced
 -------
 Symbolic Z-matrix:
 Charge = -2 Multiplicity = 1

 SCF Done:  E(UB3LYP) =  -575.497316144     A.U. after   47 cycles
 SCF Done:  E(UB3LYP) =  -575.511903324     A.U. after   35 cycles
 SCF Done:  E(UB3LYP) =  -575.512439854     A.U. after   31 cycles
 SCF Done:  E(UB3LYP) =  -575.512493756     A.U. after   31 cycles
 SCF Done:  E(UB3LYP) =  -575.512496965     A.U. after   29 cycles
 SCF Done:  E(UB3LYP) =  -575.512501963     A.U. after   30 cycles
 Optimization completed.
    -- Stationary point found.
 Normal termination of Gaussian 16 at Sat Jan  6 02:10:01 2024.

 ----------------------------------------------------------------------
 #P Geom=AllCheck Guess=TCheck SCRF=Check GenChk UB3LYP/6-311++G(d,p) F
 req
 ----------------------------------------------------------------------

 Structure from the checkpoint file:  "343-an.chk"
 -------
 Reduced
 -------
 Charge = -2 Multiplicity = 1

                          Input orientation:
 ---------------------------------------------------------------------
 Center     Atomic      Atomic             Coordinates (Angstroms)
 Number     Number       Type             X           Y           Z
 ---------------------------------------------------------------------
      1          8           0        0.099854    2.983862    0.863754
      2          6           0        0.060249    1.767980    0.485420
      3          6           0        1.183015    0.857200    0.292676
      4          6           0        2.564950    1.060042    0.467785
      5          6           0        3.456998    0.022577    0.220577
      6          6           0        2.993274   -1.247287   -0.205361
      7          6           0        1.621787   -1.473764   -0.360379
      8          6           0        0.708511   -0.451452   -0.097301
      9          6           0       -0.736100   -0.385800   -0.156787
     10          6           0       -1.713109   -1.322277   -0.498249
     11          6           0       -3.066791   -0.972217   -0.455168
     12          6           0       -3.447315    0.335424   -0.063338
     13          6           0       -2.488549    1.289008    0.260376
     14          6           0       -1.120805    0.961758    0.198141
     15          1           0        2.921015    2.034478    0.793232
     16          1           0        4.527177    0.182704    0.342740
     17          1           0        3.706197   -2.041864   -0.417355
     18          1           0        1.272479   -2.454210   -0.680585
     19          1           0       -1.429164   -2.331335   -0.793051
     20          1           0       -3.828608   -1.699963   -0.728339
     21          1           0       -4.504994    0.592252   -0.028369
     22          1           0       -2.780072    2.292882    0.559582
 ---------------------------------------------------------------------

 SCF Done:  E(UB3LYP) =  -575.512501963     A.U. after    2 cycles

 Alpha  occ. eigenvalues --  -18.80444  -9.95248  -9.93717  -9.93716  -9.93404
 Alpha  occ. eigenvalues --   -9.93403  -9.93104  -9.93103  -9.93091  -9.93091
 Alpha  occ. eigenvalues --   -9.92433  -9.92396  -9.90966  -9.90966  -0.71551
 Alpha  occ. eigenvalues --   -0.62618  -0.59619  -0.54504  -0.51266  -0.49877
 Alpha  occ. eigenvalues --   -0.46532  -0.41189  -0.38204  -0.34297  -0.32827
 Alpha  occ. eigenvalues --   -0.30707  -0.26321  -0.25563  -0.22363  -0.20224
 Alpha  occ. eigenvalues --   -0.20030  -0.18397  -0.18040  -0.17011  -0.15714
 Alpha  occ. eigenvalues --   -0.14618  -0.12081  -0.11911  -0.11208  -0.09242
 Alpha  occ. eigenvalues --   -0.08788  -0.08537  -0.04436  -0.01174  -0.00588
 Alpha  occ. eigenvalues --    0.02887   0.03084   0.13377
 Alpha virt. eigenvalues --    0.14986   0.15158   0.16570   0.16931   0.18595
 Alpha virt. eigenvalues --    0.19948   0.20011   0.20061   0.22224   0.23258
 Alpha virt. eigenvalues --    0.24883   0.25576   0.25684   0.26179   0.26617

  Beta  occ. eigenvalues --  -18.80444  -9.95248  -9.93717  -9.93716  -9.93404
  Beta  occ. eigenvalues --   -9.93403  -9.93104  -9.93103  -9.93091  -9.93091
  Beta  occ. eigenvalues --   -9.92433  -9.92396  -9.90966  -9.90966  -0.71551
  Beta  occ. eigenvalues --   -0.62618  -0.59619  -0.54504  -0.51266  -0.49877
  Beta  occ. eigenvalues --   -0.46532  -0.41189  -0.38204  -0.34297  -0.32827
  Beta  occ. eigenvalues --   -0.30707  -0.26321  -0.25563  -0.22363  -0.20224
  Beta  occ. eigenvalues --   -0.20030  -0.18397  -0.18040  -0.17011  -0.15714
  Beta  occ. eigenvalues --   -0.14618  -0.12081  -0.11911  -0.11208  -0.09242
  Beta  occ. eigenvalues --   -0.08788  -0.08537  -0.04436  -0.01174  -0.00588
  Beta  occ. eigenvalues --    0.02887   0.03084   0.13377
  Beta virt. eigenvalues --    0.14986   0.15158   0.16570   0.16931   0.18595
  Beta virt. eigenvalues --    0.19948   0.20011   0.20061   0.22224   0.23258
  Beta virt. eigenvalues --    0.24883   0.25576   0.25684   0.26179   0.26617

 Mulliken charges and spin densities:
               1          2
     1  O   -0.501070  -0.000000
     2  C   -0.344972  -0.000000
     3  C    0.643570  -0.000000
     4  C   -0.762723  -0.000000
     5  C    1.217789   0.000000
     6  C    0.496552   0.000000
     7  C   -1.126721  -0.000000
     8  C    0.631710  -0.000000
     9  C    0.633688   0.000000
    10  C   -1.123797   0.000000
    11  C    0.492974  -0.000000
    12  C    1.217468  -0.000000
    13  C   -0.762612   0.000000
    14  C    0.643229  -0.000000
    15  H    0.108536   0.000000
    16  H   -0.453902  -0.000000
    17  H   -1.312256  -0.000000
    18  H   -0.020146  -0.000000
    19  H   -0.020525   0.000000
    20  H   -1.311785   0.000000
    21  H   -0.453630   0.000000
    22  H    0.108625  -0.000000
 Sum of Mulliken charges =  -2.00000  -0.00000

 Dipole moment (field-independent basis, Debye):
    X=             -0.0456    Y=             -0.7535    Z=              0.2174  Tot=              0.7855
 Quadrupole moment (field-independent basis, Debye-Ang):
   XX=           -210.6186   YY=           -143.8303   ZZ=           -113.3378
   XY=              3.6322   XZ=             -4.6624   YZ=            -14.1157

  Exact polarizability:5505.043-194.4901743.107 238.553 648.175 468.652
 Approx polarizability:9565.679-355.4982471.348 408.179 771.879 536.055

                      1                      2                      3
                      A                      A                      A
 Frequencies --    103.5327               134.5057               168.2605
 Red. masses --      4.5727                 3.6719                 6.5579
 Frc consts  --      0.0289                 0.0391                 0.1094
 IR Inten    --      6.1512                 0.4359                24.1862

                      4                      5                      6
                      A                      A                      A
 Frequencies --    206.0162               272.1025               283.4183
 Red. masses --      4.6162                 9.0946                 5.5044
 Frc consts  --      0.1154                 0.3967                 0.2605
 IR Inten    --      2.0588                 3.6396                92.9595

                      7                      8                      9
                      A                      A                      A
 Frequencies --    377.0131               407.0069               420.0596
 Red. masses --      5.1432                 2.9538                 6.0243
 Frc consts  --      0.4307                 0.2883                 0.6263
 IR Inten    --     43.4300               317.1973                 7.6872

                     10                     11                     12
                      A                      A                      A
 Frequencies --    431.1003               509.9052               543.7702
 Red. masses --      3.4405                 5.6728                 8.6514
 Frc consts  --      0.3767                 0.8690                 1.5072
 IR Inten    --     30.4536                14.4896                76.1550

                     13                     14                     15
                      A                      A                      A
 Frequencies --    568.7149               624.2146               637.6735
 Red. masses --      3.9500                 7.1191                 4.8455
 Frc consts  --      0.7527                 1.6343                 1.1609
 IR Inten    --      6.8400                23.3280                 6.7884

                     16                     17                     18
                      A                      A                      A
 Frequencies --    647.7684               709.3531               719.0723
 Red. masses --      6.5732                 5.8244                 5.5582
 Frc consts  --      1.6250                 1.7267                 1.6933
 IR Inten    --      0.1664                 3.0314                54.8975

                     19                     20                     21
                      A                      A                      A
 Frequencies --    732.7433               772.2108               781.3169
 Red. masses --      2.5611                 1.2968                 5.9020
 Frc consts  --      0.8102                 0.4556                 2.1228
 IR Inten    --     19.6093                96.2707               167.7911

                     22                     23                     24
                      A                      A                      A
 Frequencies --    800.2316               827.1276               846.9102
 Red. masses --      1.9472                 1.3966                 1.2966
 Frc consts  --      0.7347                 0.5630                 0.5479
 IR Inten    --     27.9346                99.8405               287.8301

                     25                     26                     27
                      A                      A                      A
 Frequencies --    914.8148               922.7399               931.8322
 Red. masses --      2.1219                 2.2084                 1.2478
 Frc consts  --      1.0463                 1.1079                 0.6384
 IR Inten    --     25.9120                28.6899                12.2788

                     28                     29                     30
                      A                      A                      A
 Frequencies --    932.3095               956.3759               986.0905
 Red. masses --      1.2878                 1.2524                 5.6250
 Frc consts  --      0.6595                 0.6749                 3.2226
 IR Inten    --     78.3775               778.6680               276.0462

                     31                     32                     33
                      A                      A                      A
 Frequencies --   1002.7663              1014.7452              1085.9186
 Red. masses --      2.2830                 1.9634                 2.4321
 Frc consts  --      1.3526                 1.1912                 1.6898
 IR Inten    --      9.3591                24.9889                22.2654

                     34                     35                     36
                      A                      A                      A
 Frequencies --   1092.7844              1119.4567              1150.3810
 Red. masses --      1.8279                 1.6636                 1.1528
 Frc consts  --      1.2861                 1.2283                 0.8989
 IR Inten    --     67.0825                42.9296               191.3537

                     37                     38                     39
                      A                      A                      A
 Frequencies --   1166.2507              1205.7090              1213.6529
 Red. masses --      1.6548                 2.3972                 2.3502
 Frc consts  --      1.3261                 2.0532                 2.0396
 IR Inten    --     91.3805               886.2210                11.0281

                     40                     41                     42
                      A                      A                      A
 Frequencies --   1296.0466              1308.7573              1345.3817
 Red. masses --      2.0329                 2.0872                 4.2917
 Frc consts  --      2.0119                 2.1063                 4.5768
 IR Inten    --     51.7690                18.7737               354.1791

                     43                     44                     45
                      A                      A                      A
 Frequencies --   1370.3001              1409.3600              1453.1615
 Red. masses --      3.3487                 3.1458                 2.4699
 Frc consts  --      3.7048                 3.6815                 3.0730
 IR Inten    --    214.7217                44.6269               109.1199

                     46                     47                     48
                      A                      A                      A
 Frequencies --   1455.0169              1475.8362              1498.1481
 Red. masses --      3.4204                 2.7022                 4.6338
 Frc consts  --      4.2664                 3.4677                 6.1277
 IR Inten    --   1188.8905                 3.1123              1120.6708

                     49                     50                     51
                      A                      A                      A
 Frequencies --   1542.4364              1544.0655              1578.5697
 Red. masses --      5.0906                 5.0471                 5.7871
 Frc consts  --      7.1357                 7.0897                 8.4965
 IR Inten    --     25.2534               212.3815               116.8967

                     52                     53                     54
                      A                      A                      A
 Frequencies --   1582.9178              3094.6567              3095.0326
 Red. masses --      5.4011                 1.0836                 1.0830
 Frc consts  --      7.9734                 6.1142                 6.1124
 IR Inten    --     38.4555                92.3227               846.9792

                     55                     56                     57
                      A                      A                      A
 Frequencies --   3104.1184              3109.2348              3125.4151
 Red. masses --      1.0876                 1.0872                 1.0922
 Frc consts  --      6.1745                 6.1925                 6.2857
 IR Inten    --    319.6894                 1.7864               573.0896

                     58                     59                     60
                      A                      A                      A
 Frequencies --   3127.2074              3137.6973              3138.2761
 Red. masses --      1.0927                 1.0922                 1.0926
 Frc consts  --      6.2958                 6.3355                 6.3400
 IR Inten    --    310.7831               107.2901                56.3581

 - Thermochemistry -
 -------------------
 Temperature   298.150 Kelvin.  Pressure   1.00000 Atm.
 Atom     1 has atomic number  8 and mass  15.99491

 Molecular mass:   180.05751 amu.
 Principal axes and moments of inertia in atomic units:
                           1         2         3
     Eigenvalues --  1278.392963084.516124362.44778
           X            0.99813   0.03185  -0.05216
           Y           -0.04526   0.95875  -0.28063
           Z            0.04107   0.28247   0.95840
 This molecule is an asymmetric top.
 Rotational symmetry number  1.
 Warning -- assumption of classical behavior for rotation
           may cause significant error
 Rotational temperatures (Kelvin)      0.06775     0.02808     0.01985
 Rotational constants (GHZ):           1.41173     0.58510     0.41370
 Zero-point vibrational energy     430724.4 (Joules/Mol)
                                  102.94560 (Kcal/Mol)
 Warning -- explicit consideration of  13 degrees of freedom as
           vibrations may cause significant error
 Vibrational temperatures:    148.96   193.52   242.09   296.41   391.49
          (Kelvin)            407.78   542.44   585.59   604.37   620.26
                              733.64   782.36   818.25   898.11   917.47
                              931.99  1020.60  1034.58  1054.25  1111.04
                             1124.14  1151.35  1190.05  1218.51  1316.21
                             1327.62  1340.70  1341.39  1376.01  1418.76
                             1442.76  1459.99  1562.39  1572.27  1610.65
                             1655.14  1677.97  1734.75  1746.18  1864.72
                             1883.01  1935.70  1971.56  2027.75  2090.78
                             2093.44  2123.40  2155.50  2219.22  2221.57
                             2271.21  2277.47  4452.52  4453.06  4466.13
                             4473.50  4496.78  4499.35  4514.45  4515.28

 Zero-point correction=                           0.164054 (Hartree/Particle)
 Thermal correction to Energy=                    0.173845
 Thermal correction to Enthalpy=                  0.174790
 Thermal correction to Gibbs Free Energy=         0.128925
 Sum of electronic and zero-point Energies=           -575.348448
 Sum of electronic and thermal Energies=              -575.338657
 Sum of electronic and thermal Enthalpies=            -575.337712
 Sum of electronic and thermal Free Energies=         -575.383577

                     E (Thermal)             CV                S
                      KCal/Mol        Cal/Mol-Kelvin    Cal/Mol-Kelvin
 Total                  109.090             41.048             96.529
 Electronic               0.000              0.000              0.000
 Translational            0.889              2.981             41.471
 Rotational               0.889              2.981             31.220
 Vibrational            107.312             35.087             23.838
 Vibration     1          0.605              1.946              3.387
 Vibration     2          0.613              1.919              2.881
 Vibration     3          0.625              1.882              2.455
 Vibration     4          0.640              1.831              2.079
 Vibration     5          0.675              1.725              1.583
 Vibration     6          0.682              1.704              1.513
 Vibration     7          0.748              1.519              1.051
 Vibration     8          0.772              1.455              0.937
 Vibration     9          0.783              1.427              0.892
 Vibration    10          0.792              1.402              0.855
 Vibration    11          0.865              1.228              0.634
 Vibration    12          0.899              1.153              0.557
 Vibration    13          0.925              1.099              0.507

 Optimization completed.
    -- Stationary point found.
 Normal termination of Gaussian 16 at Sat Jan  6 02:37:32 2024.
