 Gaussian 16, Revision A.03,
 Gaussian 16:  ES64L-G16RevA.03 25-Dec-2016

 --------------------------------------
 #P UB3LYP/6-311++G(d,p) nosym opt freq
 --------------------------------------

 --------
 Oxidized
 --------
 Symbolic Z-matrix:
 Charge =  0 Multiplicity = 1

 SCF Done:  E(UB3LYP) =  -724.633683591     A.U. after   16 cycles
 SCF Done:  E(UB3LYP) =  -724.645717054     A.U. after   14 cycles
 SCF Done:  E(UB3LYP) =  -724.646599391     A.U. after   14 cycles
 SCF Done:  E(UB3LYP) =  -724.647190523     A.U. after   14 cycles
 SCF Done:  E(UB3LYP) =  -724.647834088     A.U. after   14 cycles
 SCF Done:  E(UB3LYP) =  -724.648996097     A.U. after   13 cycles
 SCF Done:  E(UB3LYP) =  -724.649698574     A.U. after   15 cycles
 SCF Done:  E(UB3LYP) =  -724.650317735     A.U. after   13 cycles
 SCF Done:  E(UB3LYP) =  -724.650738675     A.U. after   14 cycles
 SCF Done:  E(UB3LYP) =  -724.651042328     A.U. after   14 cycles
 SCF Done:  E(UB3LYP) =  -724.651581964     A.U. after   13 cycles
 SCF Done:  E(UB3LYP) =  -724.651587435     A.U. after   12 cycles
 SCF Done:  E(UB3LYP) =  -724.651586614     A.U. after   11 cycles
 SCF Done:  E(UB3LYP) =  -724.651588566     A.U. after   11 cycles
 SCF Done:  E(UB3LYP) =  -724.651588916     A.U. after   10 cycles
 SCF Done:  E(UB3LYP) =  -724.651589495     A.U. after   10 cycles
 SCF Done:  E(UB3LYP) =  -724.651589979     A.U. after   11 cycles
 SCF Done:  E(UB3LYP) =  -724.651590086     A.U. after    9 cycles
 SCF Done:  E(UB3LYP) =  -724.651590110     A.U. after    8 cycles
 Optimization completed.
    -- Stationary point found.
 Normal termination of Gaussian 16 at Tue Dec 26 22:39:17 2023.

 ----------------------------------------------------------------------
 #P Geom=AllCheck Guess=TCheck SCRF=Check GenChk UB3LYP/6-311++G(d,p) F
 req
 ----------------------------------------------------------------------

 Structure from the checkpoint file:  "273.chk"
 --------
 Oxidized
 --------
 Charge =  0 Multiplicity = 1

                          Input orientation:
 ---------------------------------------------------------------------
 Center     Atomic      Atomic             Coordinates (Angstroms)
 Number     Number       Type             X           Y           Z
 ---------------------------------------------------------------------
      1          6           0       -0.847952    3.802544   -0.150579
      2          6           0       -1.883241    3.132113    0.492596
      3          6           0       -1.693982    1.822534    0.938119
      4          6           0        0.378658    3.162288   -0.348690
      5          6           0        0.571044    1.845171    0.098604
      6          6           0       -0.472179    1.181698    0.742028
      7          6           0        1.478874    3.876453   -1.032373
      8          6           0        2.777399    3.141654   -1.220764
      9          6           0        2.960024    1.853834   -0.779156
     10          6           0        1.883738    1.134983   -0.104204
     11          8           0        1.378535    5.021891   -1.443590
     12          8           0        2.022621   -0.018974    0.295614
     13          7           0        3.733719    3.846440   -1.852228
     14          1           0       -0.969771    4.818678   -0.505364
     15          1           0       -2.835244    3.626815    0.647092
     16          1           0       -2.501293    1.300337    1.439390
     17          1           0       -0.306134    0.166325    1.080216
     18          1           0        3.534471    4.791242   -2.141319
     19          1           0        4.630653    3.410076   -1.999527
     20          7           0        4.239195    1.254215   -1.012120
     21          6           0        4.993896    0.951198    0.211673
     22          6           0        4.210074    0.123762   -1.950439
     23          1           0        5.025160    1.838279    0.848138
     24          1           0        6.021240    0.695174   -0.063207
     25          1           0        4.562831    0.120073    0.783851
     26          1           0        3.683990    0.420312   -2.860548
     27          1           0        3.720456   -0.764788   -1.532088
     28          1           0        5.237651   -0.134766   -2.222045
 ---------------------------------------------------------------------

 SCF Done:  E(UB3LYP) =  -724.651590110     A.U. after    2 cycles

 Alpha  occ. eigenvalues --  -19.13881 -19.10813 -14.34817 -14.31870 -10.28713
 Alpha  occ. eigenvalues --  -10.26203 -10.24664 -10.20889 -10.20597 -10.20414
 Alpha  occ. eigenvalues --  -10.19958 -10.19877 -10.19771 -10.19331 -10.18781
 Alpha  occ. eigenvalues --  -10.18759  -1.07355  -1.04154  -0.95898  -0.92022
 Alpha  occ. eigenvalues --   -0.88716  -0.81391  -0.77642  -0.75998  -0.70846
 Alpha  occ. eigenvalues --   -0.69690  -0.66169  -0.64211  -0.60881  -0.59321
 Alpha  occ. eigenvalues --   -0.57354  -0.54174  -0.51077  -0.50932  -0.48917
 Alpha  occ. eigenvalues --   -0.47401  -0.46795  -0.45947  -0.45022  -0.44709
 Alpha  occ. eigenvalues --   -0.44385  -0.44294  -0.42012  -0.41188  -0.39225
 Alpha  occ. eigenvalues --   -0.38822  -0.38020  -0.37904  -0.37107  -0.36681
 Alpha  occ. eigenvalues --   -0.35650  -0.29137  -0.28354  -0.27583  -0.27153
 Alpha  occ. eigenvalues --   -0.23485  -0.22602
 Alpha virt. eigenvalues --   -0.11513  -0.05057  -0.02123  -0.01342  -0.00529
 Alpha virt. eigenvalues --    0.00681   0.01504   0.01611   0.01782   0.03066
 Alpha virt. eigenvalues --    0.03432   0.03845   0.04410   0.04623   0.05249

  Beta  occ. eigenvalues --  -19.13881 -19.10813 -14.34817 -14.31870 -10.28713
  Beta  occ. eigenvalues --  -10.26203 -10.24664 -10.20889 -10.20597 -10.20414
  Beta  occ. eigenvalues --  -10.19958 -10.19877 -10.19771 -10.19331 -10.18781
  Beta  occ. eigenvalues --  -10.18759  -1.07355  -1.04154  -0.95898  -0.92022
  Beta  occ. eigenvalues --   -0.88716  -0.81391  -0.77642  -0.75998  -0.70846
  Beta  occ. eigenvalues --   -0.69690  -0.66169  -0.64211  -0.60881  -0.59321
  Beta  occ. eigenvalues --   -0.57354  -0.54174  -0.51077  -0.50932  -0.48917
  Beta  occ. eigenvalues --   -0.47401  -0.46795  -0.45947  -0.45022  -0.44709
  Beta  occ. eigenvalues --   -0.44385  -0.44294  -0.42012  -0.41188  -0.39225
  Beta  occ. eigenvalues --   -0.38822  -0.38020  -0.37904  -0.37107  -0.36681
  Beta  occ. eigenvalues --   -0.35650  -0.29137  -0.28354  -0.27583  -0.27153
  Beta  occ. eigenvalues --   -0.23485  -0.22602
  Beta virt. eigenvalues --   -0.11513  -0.05057  -0.02123  -0.01342  -0.00529
  Beta virt. eigenvalues --    0.00681   0.01504   0.01611   0.01782   0.03066
  Beta virt. eigenvalues --    0.03432   0.03845   0.04410   0.04623   0.05249

 Mulliken charges and spin densities:
               1          2
     1  C   -0.023313  -0.000000
     2  C   -0.248958  -0.000000
     3  C   -0.267793   0.000000
     4  C    0.955986  -0.000000
     5  C    0.124590   0.000000
     6  C    0.066492  -0.000000
     7  C   -0.768827   0.000000
     8  C    0.274373   0.000000
     9  C   -0.293426   0.000000
    10  C   -0.907974  -0.000000
    11  O   -0.242258  -0.000000
    12  O   -0.211719   0.000000
    13  N   -0.455815  -0.000000
    14  H    0.174539   0.000000
    15  H    0.174697   0.000000
    16  H    0.177862  -0.000000
    17  H    0.184929  -0.000000
    18  H    0.322879   0.000000
    19  H    0.306264  -0.000000
    20  N    0.173408  -0.000000
    21  C   -0.221897  -0.000000
    22  C   -0.225502  -0.000000
    23  H    0.139237  -0.000000
    24  H    0.138115   0.000000
    25  H    0.188513  -0.000000
    26  H    0.138478  -0.000000
    27  H    0.188547  -0.000000
    28  H    0.138575   0.000000
 Sum of Mulliken charges =  -0.00000   0.00000

 Dipole moment (field-independent basis, Debye):
    X=              0.1535    Y=              0.9617    Z=             -0.4182  Tot=              1.0599
 Quadrupole moment (field-independent basis, Debye-Ang):
   XX=            -76.4981   YY=            -97.8658   ZZ=            -92.8430
   XY=              4.0444   XZ=             -8.2100   YZ=              0.6284

  Exact polarizability: 201.611 -12.179 185.523 -33.454 -30.148 121.651
 Approx polarizability: 281.116  -3.160 364.106 -47.660 -83.855 198.411

                      1                      2                      3
                      A                      A                      A
 Frequencies --     24.3337                53.1540                70.0960
 Red. masses --      2.9970                 7.3068                 5.7663
 Frc consts  --      0.0010                 0.0122                 0.0167
 IR Inten    --      1.9076                 1.9363                 2.1468

                      4                      5                      6
                      A                      A                      A
 Frequencies --    122.2841               159.3635               163.1997
 Red. masses --      4.6928                 4.6080                 3.0029
 Frc consts  --      0.0413                 0.0690                 0.0471
 IR Inten    --      0.4758                 0.4859                 2.0700

                      7                      8                      9
                      A                      A                      A
 Frequencies --    200.2251               220.6178               223.5784
 Red. masses --      4.0560                 1.1345                 1.0972
 Frc consts  --      0.0958                 0.0325                 0.0323
 IR Inten    --      3.3934                 0.4363                 0.1611

                     10                     11                     12
                      A                      A                      A
 Frequencies --    262.3147               272.7533               293.6790
 Red. masses --      3.7377                 3.8146                 1.1122
 Frc consts  --      0.1515                 0.1672                 0.0565
 IR Inten    --      2.5237                 0.5866               165.1548

                     13                     14                     15
                      A                      A                      A
 Frequencies --    350.2554               379.6419               388.3427
 Red. masses --      3.7701                 6.3096                 4.3705
 Frc consts  --      0.2725                 0.5358                 0.3883
 IR Inten    --      1.8802                 7.8963                 3.4849

                     16                     17                     18
                      A                      A                      A
 Frequencies --    401.0821               420.7715               447.6795
 Red. masses --      5.9220                 5.7063                 4.2569
 Frc consts  --      0.5613                 0.5953                 0.5027
 IR Inten    --     20.2373                 7.4172                 1.5057

                     19                     20                     21
                      A                      A                      A
 Frequencies --    451.8491               461.7907               508.5442
 Red. masses --      4.1515                 4.4210                 7.7766
 Frc consts  --      0.4994                 0.5555                 1.1849
 IR Inten    --      2.8778                 1.0225                 0.8948

                     22                     23                     24
                      A                      A                      A
 Frequencies --    595.2578               619.6556               668.4794
 Red. masses --      2.6142                 5.6521                 1.3591
 Frc consts  --      0.5458                 1.2787                 0.3578
 IR Inten    --      0.2210                 6.9025                 0.9931

                     25                     26                     27
                      A                      A                      A
 Frequencies --    673.6281               716.5080               719.6416
 Red. masses --      6.4844                 5.5836                 4.2843
 Frc consts  --      1.7337                 1.6889                 1.3073
 IR Inten    --      3.0794                 0.7010                12.8918

                     28                     29                     30
                      A                      A                      A
 Frequencies --    742.0916               788.6790               810.7587
 Red. masses --      2.1873                 7.3591                 2.1569
 Frc consts  --      0.7097                 2.6970                 0.8353
 IR Inten    --     63.6969                 0.3251                 9.7272

                     31                     32                     33
                      A                      A                      A
 Frequencies --    824.0779               873.0292               912.9337
 Red. masses --      3.9361                 5.2825                 1.3393
 Frc consts  --      1.5749                 2.3722                 0.6577
 IR Inten    --      8.7017                19.4762                 0.0128

                     34                     35                     36
                      A                      A                      A
 Frequencies --    983.1001               996.9127              1014.9542
 Red. masses --      3.4673                 1.3768                 1.3236
 Frc consts  --      1.9744                 0.8062                 0.8033
 IR Inten    --     97.9793                 1.4557                 0.1608

                     37                     38                     39
                      A                      A                      A
 Frequencies --   1022.5783              1054.4265              1058.9400
 Red. masses --      3.8158                 1.7377                 1.9528
 Frc consts  --      2.3509                 1.1383                 1.2902
 IR Inten    --     25.1520                16.1262                 5.5502

                     40                     41                     42
                      A                      A                      A
 Frequencies --   1106.6861              1109.1593              1154.7571
 Red. masses --      1.2294                 2.2371                 1.8902
 Frc consts  --      0.8871                 1.6215                 1.4850
 IR Inten    --      2.9721                 1.5931                65.2155

                     43                     44                     45
                      A                      A                      A
 Frequencies --   1170.1871              1182.2616              1194.7941
 Red. masses --      1.6242                 1.1628                 2.2239
 Frc consts  --      1.3104                 0.9576                 1.8705
 IR Inten    --      8.8661                 8.9555                 4.1485

                     46                     47                     48
                      A                      A                      A
 Frequencies --   1212.8789              1242.4950              1279.0945
 Red. masses --      3.1132                 2.2438                 2.8501
 Frc consts  --      2.6983                 2.0409                 2.7474
 IR Inten    --     13.5202                31.2910               196.5299

                     49                     50                     51
                      A                      A                      A
 Frequencies --   1308.1306              1344.6933              1367.2215
 Red. masses --      2.1108                 5.5590                 6.9363
 Frc consts  --      2.1282                 5.9223                 7.6393
 IR Inten    --      6.7496                50.5408                69.9655

                     52                     53                     54
                      A                      A                      A
 Frequencies --   1398.9302              1433.6619              1460.7513
 Red. masses --      3.3398                 1.1445                 1.1929
 Frc consts  --      3.8509                 1.3860                 1.4997
 IR Inten    --    122.3970                 0.0293                 3.4487

                     55                     56                     57
                      A                      A                      A
 Frequencies --   1478.6956              1482.2751              1488.8956
 Red. masses --      1.0423                 2.3402                 1.0599
 Frc consts  --      1.3428                 3.0294                 1.3844
 IR Inten    --      6.4702                 3.5014                18.6457

                     58                     59                     60
                      A                      A                      A
 Frequencies --   1504.7606              1509.7154              1523.8113
 Red. masses --      2.6190                 1.0470                 1.0639
 Frc consts  --      3.4940                 1.4060                 1.4556
 IR Inten    --      2.3790                 3.8705                17.0480

                     61                     62                     63
                      A                      A                      A
 Frequencies --   1561.2896              1608.4944              1627.2134
 Red. masses --      1.5299                 6.0351                 5.9252
 Frc consts  --      2.1973                 9.1998                 9.2437
 IR Inten    --    159.1939               186.0528                99.9287

                     64                     65                     66
                      A                      A                      A
 Frequencies --   1643.7111              1681.1295              1723.2598
 Red. masses --      7.0792                11.1927                10.1760
 Frc consts  --     11.2690                18.6375                17.8044
 IR Inten    --    371.7101                69.4013               194.8531

                     67                     68                     69
                      A                      A                      A
 Frequencies --   2994.6290              2999.9288              3059.5340
 Red. masses --      1.0385                 1.0402                 1.0949
 Frc consts  --      5.4868                 5.5155                 6.0386
 IR Inten    --     55.1279                68.4237                57.1286

                     70                     71                     72
                      A                      A                      A
 Frequencies --   3060.9200              3093.3413              3095.6471
 Red. masses --      1.0974                 1.1019                 1.1022
 Frc consts  --      6.0581                 6.2122                 6.2232
 IR Inten    --      3.7958                16.5428                41.4678

                     73                     74                     75
                      A                      A                      A
 Frequencies --   3169.0810              3183.7282              3198.2579
 Red. masses --      1.0869                 1.0915                 1.0928
 Frc consts  --      6.4314                 6.5184                 6.5862
 IR Inten    --      3.8739                 9.9300                 1.3884

                     76                     77                     78
                      A                      A                      A
 Frequencies --   3201.2539              3573.2988              3709.5060
 Red. masses --      1.0947                 1.0423                 1.1070
 Frc consts  --      6.6098                 7.8415                 8.9749
 IR Inten    --     10.5248               100.0765                94.9814

 - Thermochemistry -
 -------------------
 Temperature   298.150 Kelvin.  Pressure   1.00000 Atm.
 Atom     1 has atomic number  6 and mass  12.00000

 Molecular mass:   216.08988 amu.
 Principal axes and moments of inertia in atomic units:
                           1         2         3
     Eigenvalues --  1988.240834122.948745745.87097
           X            0.93001   0.17451   0.32347
           Y           -0.28805   0.89271   0.34654
           Z           -0.22829  -0.41546   0.88050
 This molecule is an asymmetric top.
 Rotational symmetry number  1.
 Warning -- assumption of classical behavior for rotation
           may cause significant error
 Rotational temperatures (Kelvin)      0.04356     0.02101     0.01507
 Rotational constants (GHZ):           0.90771     0.43773     0.31409
 Zero-point vibrational energy     580722.9 (Joules/Mol)
                                  138.79611 (Kcal/Mol)
 Warning -- explicit consideration of  23 degrees of freedom as
           vibrations may cause significant error
 Vibrational temperatures:     35.01    76.48   100.85   175.94   229.29
          (Kelvin)            234.81   288.08   317.42   321.68   377.41
                              392.43   422.54   503.94   546.22   558.74
                              577.07   605.40   644.11   650.11   664.41
                              731.68   856.44   891.55   961.79   969.20
                             1030.90  1035.40  1067.70  1134.73  1166.50
                             1185.66  1256.09  1313.51  1414.46  1434.34
                             1460.29  1471.26  1517.08  1523.58  1592.27
                             1595.83  1661.44  1683.64  1701.01  1719.04
                             1745.06  1787.67  1840.33  1882.11  1934.71
                             1967.13  2012.75  2062.72  2101.70  2127.51
                             2132.66  2142.19  2165.01  2172.14  2192.42
                             2246.35  2314.26  2341.20  2364.93  2418.77
                             2479.39  4308.60  4316.23  4401.99  4403.98
                             4450.63  4453.95  4559.60  4580.67  4601.58
                             4605.89  5141.18  5337.15

 Zero-point correction=                           0.221186 (Hartree/Particle)
 Thermal correction to Energy=                    0.235721
 Thermal correction to Enthalpy=                  0.236665
 Thermal correction to Gibbs Free Energy=         0.179344
 Sum of electronic and zero-point Energies=           -724.430404
 Sum of electronic and thermal Energies=              -724.415869
 Sum of electronic and thermal Enthalpies=            -724.414925
 Sum of electronic and thermal Free Energies=         -724.472246

                     E (Thermal)             CV                S
                      KCal/Mol        Cal/Mol-Kelvin    Cal/Mol-Kelvin
 Total                  147.917             55.555            120.641
 Electronic               0.000              0.000              0.000
 Translational            0.889              2.981             42.015
 Rotational               0.889              2.981             32.221
 Vibrational            146.139             49.594             46.405
 Vibration     1          0.593              1.985              6.245
 Vibration     2          0.596              1.976              4.696
 Vibration     3          0.598              1.968              4.151
 Vibration     4          0.610              1.931              3.064
 Vibration     5          0.621              1.892              2.557
 Vibration     6          0.623              1.888              2.512
 Vibration     7          0.638              1.840              2.131
 Vibration     8          0.647              1.810              1.954
 Vibration     9          0.649              1.805              1.930
 Vibration    10          0.670              1.742              1.646
 Vibration    11          0.676              1.724              1.579
 Vibration    12          0.688              1.686              1.453
 Vibration    13          0.727              1.575              1.165
 Vibration    14          0.750              1.514              1.041
 Vibration    15          0.757              1.495              1.007
 Vibration    16          0.767              1.468              0.959
 Vibration    17          0.783              1.425              0.889
 Vibration    18          0.807              1.366              0.803
 Vibration    19          0.811              1.357              0.790
 Vibration    20          0.820              1.335              0.761
 Vibration    21          0.864              1.231              0.637
 Vibration    22          0.953              1.042              0.458
 Vibration    23          0.980              0.990              0.417

 Optimization completed.
    -- Stationary point found.
 Normal termination of Gaussian 16 at Tue Dec 26 23:28:15 2023.
