 Gaussian 16, Revision A.03,
 Gaussian 16:  ES64L-G16RevA.03 25-Dec-2016

 --------------------------------------
 #P UB3LYP/6-311++G(d,p) nosym opt freq
 --------------------------------------

 -------
 Radical
 -------
 Symbolic Z-matrix:
 Charge = -2 Multiplicity = 2

 SCF Done:  E(UB3LYP) =  -1462.82512893     A.U. after   25 cycles
 SCF Done:  E(UB3LYP) =  -1462.82512860     A.U. after   12 cycles
 SCF Done:  E(UB3LYP) =  -1462.82512855     A.U. after   13 cycles
 SCF Done:  E(UB3LYP) =  -1462.82512917     A.U. after   11 cycles
 Optimization completed.
    -- Stationary point found.
 Normal termination of Gaussian 16 at Sun Jan  7 05:34:18 2024.

 ----------------------------------------------------------------------
 #P Geom=AllCheck Guess=TCheck SCRF=Check GenChk UB3LYP/6-311++G(d,p) F
 req
 ----------------------------------------------------------------------

 Structure from the checkpoint file:  "190-rad.chk"
 -------
 Radical
 -------
 Charge = -2 Multiplicity = 2

                          Input orientation:
 ---------------------------------------------------------------------
 Center     Atomic      Atomic             Coordinates (Angstroms)
 Number     Number       Type             X           Y           Z
 ---------------------------------------------------------------------
      1          8           0        1.511396   -2.884605   -0.557925
      2          6           0        1.472384   -1.544402   -0.274444
      3          6           0        2.712664   -0.915441   -0.118833
      4          8           0        3.808061   -1.722946   -0.269018
      5          6           0        2.790588    0.463765    0.148950
      6          6           0        1.620495    1.190837    0.262455
      7          6           0        0.359724    0.582668    0.122496
      8          6           0       -0.825625    1.441993    0.261482
      9          8           0       -0.735392    2.673716    0.499022
     10          6           0       -2.121406    0.790818    0.106342
     11          6           0       -3.304263    1.556512    0.221145
     12          6           0       -4.551750    0.981758    0.082066
     13          6           0       -4.658035   -0.406365   -0.182024
     14          6           0       -3.515134   -1.172464   -0.298119
     15          6           0       -2.226281   -0.606829   -0.160649
     16          6           0       -1.053884   -1.477650   -0.295458
     17          8           0       -1.199478   -2.704895   -0.521726
     18          6           0        0.257474   -0.825945   -0.149695
     19         16           0        4.413186    1.254402    0.415866
     20          8           0        5.364133    0.300993   -0.287937
     21          8           0        4.365119    2.585508   -0.224592
     22          8           0        4.642565    1.281893    1.880047
     23          1           0        2.456893   -3.090950   -0.615389
     24          1           0        4.602112   -1.109400   -0.307435
     25          1           0        1.651765    2.254866    0.456852
     26          1           0       -3.186753    2.615485    0.424177
     27          1           0       -5.448588    1.589495    0.174336
     28          1           0       -5.637365   -0.865849   -0.292629
     29          1           0       -3.564604   -2.236968   -0.499368
 ---------------------------------------------------------------------

 SCF Done:  E(UB3LYP) =  -1462.82512917     A.U. after    2 cycles

 Alpha  occ. eigenvalues --  -88.82382 -18.93601 -18.93221 -18.87210 -18.86525
 Alpha  occ. eigenvalues --  -18.86346 -18.85702 -18.85537 -10.02255 -10.02076
 Alpha  occ. eigenvalues --  -10.01103 -10.00925  -9.98071  -9.98016  -9.97869
 Alpha  occ. eigenvalues --   -9.97257  -9.97182  -9.96712  -9.96478  -9.96392
 Alpha  occ. eigenvalues --   -9.95959  -9.95530  -7.88236  -5.84527  -5.84474
 Alpha  occ. eigenvalues --   -5.84423  -0.88525  -0.86329  -0.82899  -0.78374
 Alpha  occ. eigenvalues --   -0.78092  -0.74872  -0.74559  -0.65519  -0.63956
 Alpha  occ. eigenvalues --   -0.57763  -0.54978  -0.53999  -0.52614  -0.46351
 Alpha  occ. eigenvalues --   -0.44066  -0.42760  -0.38890  -0.37843  -0.36362
 Alpha  occ. eigenvalues --   -0.35072  -0.32534  -0.29867  -0.28738  -0.27286
 Alpha  occ. eigenvalues --   -0.26198  -0.25745  -0.23295  -0.23130  -0.22750
 Alpha  occ. eigenvalues --   -0.22190  -0.21814  -0.21452  -0.20660  -0.19925
 Alpha  occ. eigenvalues --   -0.18790  -0.17961  -0.16712  -0.16500  -0.15801
 Alpha  occ. eigenvalues --   -0.15401  -0.14847  -0.14472  -0.13119  -0.11480
 Alpha  occ. eigenvalues --   -0.10621  -0.10542  -0.07604  -0.07300  -0.06841
 Alpha  occ. eigenvalues --   -0.05640  -0.05576  -0.03052  -0.02772  -0.02550
 Alpha  occ. eigenvalues --   -0.01593  -0.00643   0.07594
 Alpha virt. eigenvalues --    0.13683   0.15500   0.15620   0.17707   0.18187
 Alpha virt. eigenvalues --    0.18303   0.19564   0.20894   0.21313   0.21924
 Alpha virt. eigenvalues --    0.22148   0.23377   0.24376   0.24440   0.24704

  Beta  occ. eigenvalues --  -88.82382 -18.93583 -18.93192 -18.87210 -18.86522
  Beta  occ. eigenvalues --  -18.86342 -18.85168 -18.84929 -10.02183 -10.02050
  Beta  occ. eigenvalues --  -10.00978 -10.00789  -9.97997  -9.97942  -9.97856
  Beta  occ. eigenvalues --   -9.97284  -9.97212  -9.96671  -9.96336  -9.96254
  Beta  occ. eigenvalues --   -9.95931  -9.95512  -7.88237  -5.84527  -5.84475
  Beta  occ. eigenvalues --   -5.84424  -0.88518  -0.86272  -0.82844  -0.77431
  Beta  occ. eigenvalues --   -0.77064  -0.74867  -0.74552  -0.65265  -0.63840
  Beta  occ. eigenvalues --   -0.57361  -0.54780  -0.53830  -0.52420  -0.45808
  Beta  occ. eigenvalues --   -0.43825  -0.42513  -0.38818  -0.37772  -0.36187
  Beta  occ. eigenvalues --   -0.34880  -0.32429  -0.29711  -0.28620  -0.27142
  Beta  occ. eigenvalues --   -0.26084  -0.25609  -0.23246  -0.22908  -0.22685
  Beta  occ. eigenvalues --   -0.22091  -0.21651  -0.21232  -0.20458  -0.18951
  Beta  occ. eigenvalues --   -0.18268  -0.17735  -0.16637  -0.15861  -0.15373
  Beta  occ. eigenvalues --   -0.14755  -0.14546  -0.13196  -0.12896  -0.11147
  Beta  occ. eigenvalues --   -0.10602  -0.10196  -0.07558  -0.07021  -0.06787
  Beta  occ. eigenvalues --   -0.04996  -0.03637  -0.03023  -0.02167  -0.02040
  Beta  occ. eigenvalues --   -0.01048   0.00121
  Beta virt. eigenvalues --    0.13347   0.13665   0.15609   0.16272   0.17711
  Beta virt. eigenvalues --    0.18186   0.19307   0.19545   0.21291   0.21335
  Beta virt. eigenvalues --    0.21925   0.22181   0.23392   0.24427   0.24451

 Mulliken charges and spin densities:
               1          2
     1  O   -0.231864   0.003223
     2  C   -0.358226   0.039192
     3  C   -0.717515   0.055239
     4  O   -0.431886   0.007813
     5  C   -0.276339   0.010318
     6  C   -0.204052   0.026777
     7  C    0.759875   0.008085
     8  C   -0.762772   0.067569
     9  O   -0.367676   0.200061
    10  C    0.430896   0.081212
    11  C   -0.006287   0.006631
    12  C   -0.452530   0.061464
    13  C   -0.523998   0.061937
    14  C    0.064184   0.010447
    15  C    0.153060   0.085442
    16  C   -0.587195   0.046502
    17  O   -0.370335   0.230778
    18  C    0.702671   0.009523
    19  S    0.837371   0.000495
    20  O   -0.445552  -0.000151
    21  O   -0.284161   0.000896
    22  O   -0.236104   0.001001
    23  H    0.271680  -0.000453
    24  H    0.376003  -0.000204
    25  H    0.183939  -0.002873
    26  H    0.138114  -0.000223
    27  H    0.100438  -0.005095
    28  H    0.098293  -0.005127
    29  H    0.139967  -0.000479
 Sum of Mulliken charges =  -2.00000   1.00000

 Dipole moment (field-independent basis, Debye):
    X=            -13.3474    Y=             -4.1374    Z=             -1.7509  Tot=             14.0832
 Quadrupole moment (field-independent basis, Debye-Ang):
   XX=           -268.7783   YY=           -192.1582   ZZ=           -151.2396
   XY=            -28.7345   XZ=            -11.0328   YZ=             -8.8201

  Exact polarizability: 418.514  -3.046 256.036   7.380  25.137 131.214
 Approx polarizability: 582.447 -18.445 486.583   6.360  52.538 215.528

                      1                      2                      3
                      A                      A                      A
 Frequencies --     32.4321                36.0319                54.7162
 Red. masses --     11.5807                 8.8820                10.3128
 Frc consts  --      0.0072                 0.0068                 0.0182
 IR Inten    --      1.1759                 0.0721                 2.9715

                      4                      5                      6
                      A                      A                      A
 Frequencies --    105.5769               122.0331               126.6752
 Red. masses --      8.9878                 9.4803                 5.8086
 Frc consts  --      0.0590                 0.0832                 0.0549
 IR Inten    --      1.2752                 0.9207                 0.4531

                      7                      8                      9
                      A                      A                      A
 Frequencies --    136.1897               180.6957               205.4854
 Red. masses --      8.8241                 7.3418                 8.9541
 Frc consts  --      0.0964                 0.1412                 0.2228
 IR Inten    --      3.2157                 0.4032                 3.9986

                     10                     11                     12
                      A                      A                      A
 Frequencies --    238.7986               268.5432               291.8977
 Red. masses --      9.1577                 8.8000                10.6758
 Frc consts  --      0.3077                 0.3739                 0.5359
 IR Inten    --      4.3662                14.6336                 3.1428

                     13                     14                     15
                      A                      A                      A
 Frequencies --    296.8821               307.4175               354.1682
 Red. masses --      7.2955                 5.8359                10.7850
 Frc consts  --      0.3789                 0.3250                 0.7971
 IR Inten    --      1.3270                 3.4119                 1.7601

                     16                     17                     18
                      A                      A                      A
 Frequencies --    378.2086               381.6458               409.6552
 Red. masses --      8.7096                11.0977                 6.4888
 Frc consts  --      0.7340                 0.9524                 0.6416
 IR Inten    --      1.3638                 1.4554                 1.8999

                     19                     20                     21
                      A                      A                      A
 Frequencies --    431.0550               431.1976               446.6827
 Red. masses --      6.0618                 9.7003                 3.8258
 Frc consts  --      0.6636                 1.0626                 0.4498
 IR Inten    --      2.0172                 6.1860                 1.0398

                     22                     23                     24
                      A                      A                      A
 Frequencies --    480.3978               490.2100               504.8321
 Red. masses --     11.9055                10.7289                 7.5588
 Frc consts  --      1.6188                 1.5190                 1.1350
 IR Inten    --      0.4105                 9.1266                17.4403

                     25                     26                     27
                      A                      A                      A
 Frequencies --    517.9168               527.6355               566.7896
 Red. masses --      8.7913                 1.2491                 5.4588
 Frc consts  --      1.3894                 0.2049                 1.0332
 IR Inten    --     10.1378                63.4187                 0.9225

                     28                     29                     30
                      A                      A                      A
 Frequencies --    584.4780               594.0893               629.5621
 Red. masses --      9.1419                 5.5040                11.9424
 Frc consts  --      1.8400                 1.1445                 2.7888
 IR Inten    --     90.1990                17.5332               182.8524

                     31                     32                     33
                      A                      A                      A
 Frequencies --    656.2854               673.9379               681.6338
 Red. masses --      7.1422                 6.4704                 7.0075
 Frc consts  --      1.8125                 1.7315                 1.9183
 IR Inten    --      0.8464                17.4056                 2.4051

                     34                     35                     36
                      A                      A                      A
 Frequencies --    703.3308               728.1651               739.7815
 Red. masses --      1.9149                 6.4931                 6.0879
 Frc consts  --      0.5581                 2.0284                 1.9630
 IR Inten    --     73.1531                32.8093                 2.5181

                     37                     38                     39
                      A                      A                      A
 Frequencies --    769.8288               774.2853               794.6480
 Red. masses --      2.4842                 7.7694                 4.0432
 Frc consts  --      0.8674                 2.7443                 1.5043
 IR Inten    --     10.0553                55.6723                 0.4609

                     40                     41                     42
                      A                      A                      A
 Frequencies --    838.4360               865.3168               875.0893
 Red. masses --      1.6562                 5.7868                 1.1636
 Frc consts  --      0.6860                 2.5530                 0.5250
 IR Inten    --      0.0087                15.8141                82.1743

                     43                     44                     45
                      A                      A                      A
 Frequencies --    910.0787               918.4951               946.6296
 Red. masses --      5.7670                 1.4250                13.4805
 Frc consts  --      2.8142                 0.7083                 7.1173
 IR Inten    --     16.4463                 7.1869               225.7837

                     46                     47                     48
                      A                      A                      A
 Frequencies --    968.1327               972.5381              1019.6642
 Red. masses --      1.2428                 1.3608                 3.5066
 Frc consts  --      0.6863                 0.7583                 2.1481
 IR Inten    --      0.0605                 3.4144                34.3043

                     49                     50                     51
                      A                      A                      A
 Frequencies --   1038.5673              1058.9905              1097.9928
 Red. masses --      2.6583                 7.3134                15.0657
 Frc consts  --      1.6894                 4.8323                10.7013
 IR Inten    --    141.6369                54.0679               308.0343

                     52                     53                     54
                      A                      A                      A
 Frequencies --   1107.9569              1138.8875              1176.7904
 Red. masses --      1.9107                 1.3476                 2.0772
 Frc consts  --      1.3819                 1.0298                 1.6948
 IR Inten    --     16.7085                23.6353                24.0994

                     55                     56                     57
                      A                      A                      A
 Frequencies --   1191.1070              1208.4762              1217.3114
 Red. masses --     13.3743                 2.1857                 2.8093
 Frc consts  --     11.1795                 1.8807                 2.4527
 IR Inten    --    284.2028                23.9677                43.9358

                     58                     59                     60
                      A                      A                      A
 Frequencies --   1243.7498              1258.3742              1299.7755
 Red. masses --      2.7793                 3.3676                 3.7828
 Frc consts  --      2.5331                 3.1419                 3.7653
 IR Inten    --      0.6582               166.7641               102.6041

                     61                     62                     63
                      A                      A                      A
 Frequencies --   1322.4060              1364.2330              1373.1713
 Red. masses --      5.3402                10.5505                 2.6729
 Frc consts  --      5.5022                11.5691                 2.9695
 IR Inten    --     71.4915                78.7791                18.8509

                     64                     65                     66
                      A                      A                      A
 Frequencies --   1412.6089              1438.1606              1461.7877
 Red. masses --      3.3565                 2.6649                 2.3906
 Frc consts  --      3.9462                 3.2475                 3.0097
 IR Inten    --    177.1553               388.4995               194.4379

                     67                     68                     69
                      A                      A                      A
 Frequencies --   1476.0820              1501.6911              1519.7821
 Red. masses --      2.7453                 3.0153                 5.8418
 Frc consts  --      3.5242                 4.0063                 7.9499
 IR Inten    --     14.2902               120.5306               582.7812

                     70                     71                     72
                      A                      A                      A
 Frequencies --   1531.4942              1575.3682              1599.3226
 Red. masses --      6.2084                 2.7303                 7.0115
 Frc consts  --      8.5795                 3.9923                10.5666
 IR Inten    --     46.7072                27.7032                71.6739

                     73                     74                     75
                      A                      A                      A
 Frequencies --   1612.3586              1634.6746              3033.5198
 Red. masses --      6.0544                 4.9270                 1.0717
 Frc consts  --      9.2734                 7.7570                 5.8103
 IR Inten    --     31.7188                35.6741              1217.5769

                     76                     77                     78
                      A                      A                      A
 Frequencies --   3113.5921              3135.3254              3172.8119
 Red. masses --      1.0836                 1.0909                 1.0908
 Frc consts  --      6.1890                 6.3186                 6.4697
 IR Inten    --     28.4637                82.7806                17.4206

                     79                     80                     81
                      A                      A                      A
 Frequencies --   3175.4212              3206.7025              3712.0197
 Red. masses --      1.0919                 1.0893                 1.0643
 Frc consts  --      6.4866                 6.5994                 8.6403
 IR Inten    --     40.6954                 2.2886                83.6980

 - Thermochemistry -
 -------------------
 Temperature   298.150 Kelvin.  Pressure   1.00000 Atm.
 Atom     1 has atomic number  8 and mass  15.99491

 Molecular mass:   318.99125 amu.
 Principal axes and moments of inertia in atomic units:
                           1         2         3
     Eigenvalues --  3124.40854********************
           X            0.99389  -0.10688  -0.02738
           Y            0.09941   0.97516  -0.19792
           Z            0.04786   0.19399   0.97984
 This molecule is an asymmetric top.
 Rotational symmetry number  1.
 Warning -- assumption of classical behavior for rotation
           may cause significant error
 Rotational temperatures (Kelvin)      0.02772     0.00763     0.00613
 Rotational constants (GHZ):           0.57763     0.15892     0.12777
 Zero-point vibrational energy     492734.0 (Joules/Mol)
                                  117.76625 (Kcal/Mol)
 Warning -- explicit consideration of  29 degrees of freedom as
           vibrations may cause significant error
 Vibrational temperatures:     46.66    51.84    78.72   151.90   175.58
          (Kelvin)            182.26   195.95   259.98   295.65   343.58
                              386.37   419.98   427.15   442.31   509.57
                              544.16   549.10   589.40   620.19   620.40
                              642.68   691.19   705.30   726.34   745.17
                              759.15   815.48   840.93   854.76   905.80
                              944.25   969.65   980.72  1011.94  1047.67
                             1064.38  1107.61  1114.02  1143.32  1206.32
                             1245.00  1259.06  1309.40  1321.51  1361.99
                             1392.93  1399.27  1467.07  1494.27  1523.65
                             1579.77  1594.10  1638.61  1693.14  1713.74
                             1738.73  1751.44  1789.48  1810.52  1870.09
                             1902.65  1962.83  1975.69  2032.43  2069.19
                             2103.19  2123.75  2160.60  2186.63  2203.48
                             2266.60  2301.07  2319.82  2351.93  4364.56
                             4479.76  4511.03  4564.97  4568.72  4613.73
                             5340.77

 Zero-point correction=                           0.187672 (Hartree/Particle)
 Thermal correction to Energy=                    0.204823
 Thermal correction to Enthalpy=                  0.205767
 Thermal correction to Gibbs Free Energy=         0.141375
 Sum of electronic and zero-point Energies=          -1462.637457
 Sum of electronic and thermal Energies=             -1462.620306
 Sum of electronic and thermal Enthalpies=           -1462.619362
 Sum of electronic and thermal Free Energies=        -1462.683754

                     E (Thermal)             CV                S
                      KCal/Mol        Cal/Mol-Kelvin    Cal/Mol-Kelvin
 Total                  128.528             67.713            135.525
 Electronic               0.000              0.000              1.377
 Translational            0.889              2.981             43.176
 Rotational               0.889              2.981             34.571
 Vibrational            126.751             61.752             56.401
 Vibration     1          0.594              1.983              5.675
 Vibration     2          0.594              1.982              5.466
 Vibration     3          0.596              1.976              4.639
 Vibration     4          0.605              1.945              3.349
 Vibration     5          0.610              1.931              3.068
 Vibration     6          0.611              1.926              2.996
 Vibration     7          0.614              1.917              2.857
 Vibration     8          0.630              1.866              2.321
 Vibration     9          0.640              1.832              2.083
 Vibration    10          0.657              1.781              1.812
 Vibration    11          0.673              1.731              1.606
 Vibration    12          0.687              1.689              1.463
 Vibration    13          0.691              1.680              1.434
 Vibration    14          0.697              1.660              1.376
 Vibration    15          0.730              1.567              1.148
 Vibration    16          0.748              1.517              1.046
 Vibration    17          0.751              1.509              1.033
 Vibration    18          0.774              1.449              0.928
 Vibration    19          0.792              1.403              0.855
 Vibration    20          0.792              1.402              0.855
 Vibration    21          0.806              1.368              0.806
 Vibration    22          0.837              1.294              0.709
 Vibration    23          0.846              1.272              0.683
 Vibration    24          0.860              1.239              0.646
 Vibration    25          0.873              1.210              0.615
 Vibration    26          0.883              1.189              0.593
 Vibration    27          0.923              1.103              0.510
 Vibration    28          0.941              1.065              0.477
 Vibration    29          0.952              1.044              0.460

 Optimization completed.
    -- Stationary point found.
 Normal termination of Gaussian 16 at Sun Jan  7 07:09:07 2024.
