 Q-Chem 5.4, Q-Chem, Inc., Pleasanton, CA (2021)
 Q-Chem 5.4.0 for Intel X86 EM64T Linux

User input:
--------------------------------------------------------------
$molecule
-2 2
O                  1.5113960000     -2.8846050000     -0.5579250000
C                  1.4723840000     -1.5444020000     -0.2744440000
C                  2.7126640000     -0.9154410000     -0.1188330000
O                  3.8080610000     -1.7229460000     -0.2690180000
C                  2.7905880000      0.4637650000      0.1489500000
C                  1.6204950000      1.1908370000      0.2624550000
C                  0.3597240000      0.5826680000      0.1224960000
C                 -0.8256250000      1.4419930000      0.2614820000
O                 -0.7353920000      2.6737160000      0.4990220000
C                 -2.1214060000      0.7908180000      0.1063420000
C                 -3.3042630000      1.5565120000      0.2211450000
C                 -4.5517500000      0.9817580000      0.0820660000
C                 -4.6580350000     -0.4063650000     -0.1820240000
C                 -3.5151340000     -1.1724640000     -0.2981190000
C                 -2.2262810000     -0.6068290000     -0.1606490000
C                 -1.0538840000     -1.4776500000     -0.2954580000
O                 -1.1994780000     -2.7048950000     -0.5217260000
C                  0.2574740000     -0.8259450000     -0.1496950000
S                  4.4131860000      1.2544020000      0.4158660000
O                  5.3641330000      0.3009930000     -0.2879370000
O                  4.3651190000      2.5855080000     -0.2245920000
O                  4.6425650000      1.2818930000      1.8800470000
H                  2.4568930000     -3.0909500000     -0.6153890000
H                  4.6021120000     -1.1094000000     -0.3074350000
H                  1.6517650000      2.2548660000      0.4568520000
H                 -3.1867530000      2.6154850000      0.4241770000
H                 -5.4485880000      1.5894950000      0.1743360000
H                 -5.6373650000     -0.8658490000     -0.2926290000
H                 -3.5646040000     -2.2369680000     -0.4993680000
$end

$rem
BASIS  =  6-311++G(d,p)
GUI  =  2
JOB_TYPE  =  SP
METHOD  =  B3LYP
SCF_CONVERGENCE  = 8
SOLVENT_METHOD = sm12
$end

$smx
solvent dimethylformamide
charges CM5
$end

--------------------------------------------------------------

             Standard Nuclear Orientation (Angstroms)
    I     Atom           X                Y                Z
 ----------------------------------------------------------------
    1      O       1.5113960000    -2.8846050000    -0.5579250000
    2      C       1.4723840000    -1.5444020000    -0.2744440000
    3      C       2.7126640000    -0.9154410000    -0.1188330000
    4      O       3.8080610000    -1.7229460000    -0.2690180000
    5      C       2.7905880000     0.4637650000     0.1489500000
    6      C       1.6204950000     1.1908370000     0.2624550000
    7      C       0.3597240000     0.5826680000     0.1224960000
    8      C      -0.8256250000     1.4419930000     0.2614820000
    9      O      -0.7353920000     2.6737160000     0.4990220000
   10      C      -2.1214060000     0.7908180000     0.1063420000
   11      C      -3.3042630000     1.5565120000     0.2211450000
   12      C      -4.5517500000     0.9817580000     0.0820660000
   13      C      -4.6580350000    -0.4063650000    -0.1820240000
   14      C      -3.5151340000    -1.1724640000    -0.2981190000
   15      C      -2.2262810000    -0.6068290000    -0.1606490000
   16      C      -1.0538840000    -1.4776500000    -0.2954580000
   17      O      -1.1994780000    -2.7048950000    -0.5217260000
   18      C       0.2574740000    -0.8259450000    -0.1496950000
   19      S       4.4131860000     1.2544020000     0.4158660000
   20      O       5.3641330000     0.3009930000    -0.2879370000
   21      O       4.3651190000     2.5855080000    -0.2245920000
   22      O       4.6425650000     1.2818930000     1.8800470000
   23      H       2.4568930000    -3.0909500000    -0.6153890000
   24      H       4.6021120000    -1.1094000000    -0.3074350000
   25      H       1.6517650000     2.2548660000     0.4568520000
   26      H      -3.1867530000     2.6154850000     0.4241770000
   27      H      -5.4485880000     1.5894950000     0.1743360000
   28      H      -5.6373650000    -0.8658490000    -0.2926290000
   29      H      -3.5646040000    -2.2369680000    -0.4993680000
 ----------------------------------------------------------------

   18   -1462.8200348972      9.11e-09  Convergence criterion met
 Total energy in the final basis set =    -1463.0722160365

                    Orbital Energies (a.u.)
 --------------------------------------------------------------

 Alpha MOs
 -- Occupied --
-89.0440 -19.1488 -19.1459 -19.0906 -19.0860 -19.0843 -19.0738 -19.0715
-10.2393 -10.2382 -10.2266 -10.2254 -10.1980 -10.1846 -10.1830 -10.1825
-10.1788 -10.1783 -10.1782 -10.1777 -10.1770 -10.1767  -8.1026  -6.0655
 -6.0650  -6.0645  -1.1049  -1.0770  -1.0424  -1.0003  -0.9974  -0.9689
 -0.9650  -0.8648  -0.8558  -0.7911  -0.7573  -0.7545  -0.7419  -0.6791
 -0.6541  -0.6388  -0.6010  -0.5948  -0.5764  -0.5629  -0.5376  -0.5101
 -0.4994  -0.4887  -0.4780  -0.4671  -0.4517  -0.4489  -0.4399  -0.4343
 -0.4293  -0.4273  -0.4220  -0.4134  -0.4042  -0.3927  -0.3812  -0.3791
 -0.3709  -0.3650  -0.3595  -0.3557  -0.3416  -0.3329  -0.3262  -0.3238
 -0.2945  -0.2931  -0.2879  -0.2665  -0.2632  -0.2501  -0.2466  -0.2417
 -0.2313  -0.2240  -0.1391

 Beta MOs
 -- Occupied --
-89.0440 -19.1486 -19.1455 -19.0906 -19.0859 -19.0843 -19.0685 -19.0653
-10.2385 -10.2379 -10.2253 -10.2239 -10.1979 -10.1840 -10.1825 -10.1819
-10.1789 -10.1783 -10.1780 -10.1766 -10.1765 -10.1760  -8.1026  -6.0655
 -6.0650  -6.0645  -1.1049  -1.0763  -1.0417  -0.9908  -0.9869  -0.9689
 -0.9649  -0.8623  -0.8547  -0.7875  -0.7550  -0.7529  -0.7399  -0.6741
 -0.6514  -0.6362  -0.6002  -0.5943  -0.5745  -0.5608  -0.5364  -0.5088
 -0.4982  -0.4871  -0.4773  -0.4652  -0.4512  -0.4473  -0.4378  -0.4327
 -0.4278  -0.4258  -0.4204  -0.4033  -0.3984  -0.3904  -0.3785  -0.3714
 -0.3670  -0.3584  -0.3581  -0.3453  -0.3399  -0.3298  -0.3261  -0.3189
 -0.2941  -0.2895  -0.2875  -0.2570  -0.2499  -0.2478  -0.2408  -0.2366
 -0.2258  -0.2158

          Ground-State Mulliken Net Atomic Charges

     Atom                 Charge (a.u.)    Spin (a.u.)
  --------------------------------------------------------
      1 O                    -0.113817       0.003669
      2 C                    -0.287253       0.037320
      3 C                     0.283691       0.068725
      4 O                    -0.286263       0.010741
      5 C                    -0.976026       0.008115
      6 C                    -1.259094       0.030374
      7 C                    -1.367515       0.012816
      8 C                    -1.743908       0.074654
      9 O                    -0.285980       0.202119
     10 C                    -0.542343       0.052758
     11 C                     0.583378       0.026400
     12 C                     2.002928       0.044546
     13 C                     2.016969       0.049225
     14 C                     0.626653       0.025969
     15 C                    -0.200745       0.062903
     16 C                    -1.735339       0.044156
     17 O                    -0.236985       0.235491
     18 C                    -0.567880       0.020874
     19 S                     0.962976       0.000894
     20 O                    -0.354062      -0.000214
     21 O                    -0.281351       0.000887
     22 O                    -0.218877       0.000989
     23 H                     0.364282      -0.000349
     24 H                     0.399952      -0.000246
     25 H                     0.062358      -0.003573
     26 H                     0.167225      -0.001057
     27 H                     0.409954      -0.003364
     28 H                     0.408624      -0.003704
     29 H                     0.168449      -0.001118
  --------------------------------------------------------
  Sum of atomic charges =    -2.000000

                    Cartesian Multipole Moments
 -----------------------------------------------------------------
    Charge (ESU x 10^10)
                -9.6064
    Dipole Moment (Debye)
         X     -15.5824      Y      -4.6973      Z      -1.9465
       Tot      16.3910
    Quadrupole Moments (Debye-Ang)
        XX    -256.0962     XY     -31.1968     YY    -191.5630
        XZ     -11.4021     YZ      -8.6637     ZZ    -151.6116

 Total job time:  958.64s(wall), 7356.80s(cpu)
        *  Thank you very much for using Q-Chem.  Have a nice day.  *
