 Q-Chem 5.4, Q-Chem, Inc., Pleasanton, CA (2021)
 Q-Chem 5.4.0 for Intel X86 EM64T Linux

User input:
--------------------------------------------------------------
$molecule
-1 2
N                 -2.9215170000      1.8810090000      0.1103820000
C                 -2.5291020000      0.5531690000      0.0698670000
C                 -3.4932030000     -0.4570350000      0.0413770000
C                 -3.1227420000     -1.8044400000     -0.0694170000
C                 -1.7916010000     -2.1605160000     -0.1575960000
C                 -0.7843800000     -1.1746310000     -0.1164930000
C                  0.6107320000     -1.6203610000     -0.1973540000
O                  0.9128760000     -2.8335620000     -0.3240920000
C                  1.6336810000     -0.5802940000     -0.1189220000
C                  2.9980870000     -0.9385930000     -0.1916330000
C                  3.9926440000      0.0151880000     -0.1122920000
C                  3.6501320000      1.3767940000      0.0456390000
C                  2.3226720000      1.7488710000      0.1201010000
C                  1.2879770000      0.7901190000      0.0388110000
C                 -0.1029540000      1.2344200000      0.1190720000
O                 -0.3630690000      2.4672440000      0.2859730000
C                 -1.1341080000      0.2091330000      0.0119940000
H                 -3.8242700000      2.0659740000      0.5186700000
H                 -2.1537330000      2.5225680000      0.3179610000
H                 -4.5432770000     -0.1794060000      0.0860990000
H                 -3.8948930000     -2.5684930000     -0.0927780000
H                 -1.4790970000     -3.1925410000     -0.2532290000
H                  3.2291410000     -1.9909380000     -0.3106490000
H                  5.0367250000     -0.2785310000     -0.1706490000
H                  4.4310830000      2.1290870000      0.1079090000
H                  2.0321980000      2.7857660000      0.2412500000
$end
$rem
MAX_SCF_CYCLES=200
BASIS  =  6-311++G(d,p)
GUI  =  2
JOB_TYPE  =  SP
METHOD  =  B3LYP
SOLVENT_METHOD = COSMO
$end
$solvent
dielectric 37.219
opticaldielectric 1.43
$end

--------------------------------------------------------------

             Standard Nuclear Orientation (Angstroms)
    I     Atom           X                Y                Z
 ----------------------------------------------------------------
    1      N       2.7530095724    -2.2075051371    -0.1254786828
    2      C       2.4930160286    -0.8503436681    -0.0290102050
    3      C       3.5516112730     0.0596273498     0.0172866115
    4      C       3.3144257818     1.4409243280     0.0451899734
    5      C       2.0238306801     1.9311893860     0.0226850381
    6      C       0.9249033033     1.0482470940    -0.0077182891
    7      C      -0.4203970356     1.6327914208    -0.0128324747
    8      O      -0.6030676793     2.8761077898    -0.0152873097
    9      C      -1.5398068501     0.6940509592    -0.0109318182
   10      C      -2.8630691786     1.1882251200    -0.0170559056
   11      C      -3.9457013500     0.3321086315    -0.0066176987
   12      C      -3.7370783076    -1.0651635417     0.0116708374
   13      C      -2.4519136136    -1.5695769063     0.0190736556
   14      C      -1.3288794591    -0.7122340595     0.0062387241
   15      C       0.0123934333    -1.2948992302     0.0109906272
   16      O       0.1518606711    -2.5575140840     0.0525043888
   17      C       1.1381147015    -0.3687868349    -0.0210274864
   18      H       3.6386387768    -2.5181470593     0.2419946220
   19      H       1.9285960988    -2.7889045343     0.0372985515
   20      H       4.5696805931    -0.3214552722     0.0106368698
   21      H       4.1578073760     2.1251829369     0.0774007265
   22      H       1.8134019001     2.9930140140     0.0340079899
   23      H      -2.9907699601     2.2645763192    -0.0289455918
   24      H      -4.9564074560     0.7298828357    -0.0121290234
   25      H      -4.5875201384    -1.7407328985     0.0195137713
   26      H      -2.2635345736    -2.6365903202     0.0331866925
 ----------------------------------------------------------------

   10    -744.3992380536      7.21e-06  Convergence criterion met
 Total energy in the final basis set =     -744.3992380536
    4    -744.4832330309      9.45e-06  Convergence criterion met
 Total energy in the final basis set =     -744.4832330309

                    Orbital Energies (a.u.)
 --------------------------------------------------------------

 Alpha MOs
 -- Occupied --
-19.0815 -19.0779 -14.3035 -10.2302 -10.2243 -10.2164 -10.1738 -10.1729
-10.1723 -10.1722 -10.1719 -10.1717 -10.1704 -10.1694 -10.1692 -10.1616
-10.1570  -1.0079  -1.0042  -0.9119  -0.8584  -0.8363  -0.7830  -0.7508
 -0.7380  -0.7287  -0.6658  -0.6361  -0.6206  -0.5830  -0.5581  -0.5433
 -0.5262  -0.4965  -0.4762  -0.4719  -0.4567  -0.4446  -0.4375  -0.4256
 -0.4230  -0.4165  -0.4077  -0.3971  -0.3866  -0.3758  -0.3710  -0.3562
 -0.3461  -0.3450  -0.3358  -0.3102  -0.2697  -0.2576  -0.2512  -0.2484
 -0.2406  -0.2129  -0.1415

 Beta MOs
 -- Occupied --
-19.0766 -19.0726 -14.3033 -10.2282 -10.2224 -10.2164 -10.1737 -10.1721
-10.1718 -10.1714 -10.1712 -10.1711 -10.1700 -10.1694 -10.1692 -10.1606
-10.1566  -0.9993  -0.9948  -0.9110  -0.8561  -0.8347  -0.7791  -0.7485
 -0.7362  -0.7264  -0.6586  -0.6343  -0.6182  -0.5823  -0.5559  -0.5411
 -0.5248  -0.4956  -0.4735  -0.4697  -0.4558  -0.4436  -0.4362  -0.4227
 -0.4138  -0.4118  -0.4058  -0.3948  -0.3755  -0.3699  -0.3612  -0.3553
 -0.3438  -0.3360  -0.3338  -0.3039  -0.2509  -0.2507  -0.2466  -0.2434
 -0.2359  -0.2050

          Ground-State Mulliken Net Atomic Charges

     Atom                 Charge (a.u.)    Spin (a.u.)
  --------------------------------------------------------
      1 N                    -0.444876       0.009552
      2 C                     0.184398       0.022376
      3 C                    -0.274934       0.088302
      4 C                    -0.456472       0.033223
      5 C                    -0.046946       0.062654
      6 C                     0.442866       0.040781
      7 C                    -0.464637       0.112236
      8 O                    -0.498135       0.195752
      9 C                    -0.001186       0.018191
     10 C                     0.086198       0.032296
     11 C                    -0.464907       0.031223
     12 C                    -0.503144       0.042968
     13 C                     0.162285       0.028422
     14 C                     0.046925       0.030675
     15 C                    -0.388629       0.106194
     16 O                    -0.490895       0.176698
     17 C                     0.196658      -0.007397
     18 H                     0.283237      -0.000580
     19 H                     0.319882      -0.002606
     20 H                     0.184856      -0.006121
     21 H                     0.203896      -0.002676
     22 H                     0.165681      -0.003578
     23 H                     0.174418      -0.001676
     24 H                     0.201007      -0.002769
     25 H                     0.200751      -0.003447
     26 H                     0.181700      -0.000690
  --------------------------------------------------------
  Sum of atomic charges =    -1.000000

                    Cartesian Multipole Moments
 -----------------------------------------------------------------
    Charge (ESU x 10^10)
                -4.8032
    Dipole Moment (Debye)
         X       1.5153      Y      -2.7633      Z       0.9398
       Tot       3.2887
    Quadrupole Moments (Debye-Ang)
        XX     -91.6098     XY       1.5587     YY    -131.5253
        XZ       3.3375     YZ      -2.1889     ZZ    -107.3616

 Total job time:  75.87s(wall), 577.15s(cpu)
        *  Thank you very much for using Q-Chem.  Have a nice day.  *
