 Q-Chem 5.4, Q-Chem, Inc., Pleasanton, CA (2021)
 Q-Chem 5.4.0 for Intel X86 EM64T Linux

User input:
--------------------------------------------------------------
$molecule
0 1
C                 -2.2574540000      3.2351400000      4.1119890000
C                 -3.4949630000      2.6700290000      4.3809410000
C                 -3.9238420000      1.5438580000      3.6871750000
C                 -3.1131730000      0.9602760000      2.7041360000
C                 -1.8401770000      1.5260640000      2.4140790000
C                 -1.4360990000      2.6681740000      3.1364150000
C                 -0.1129070000      3.3332080000      2.9001670000
C                 -0.9353100000      0.9518460000      1.3812390000
C                  0.7816810000      2.7772350000      1.8892660000
C                  0.3898460000      1.6311390000      1.1558120000
C                  2.0533550000      3.3727560000      1.6254350000
C                  2.8763830000      2.7893350000      0.6346970000
C                  2.4657490000      1.6721660000     -0.0629940000
C                  1.2218700000      1.0841930000      0.1903830000
O                  0.1795110000      4.3315080000      3.5686230000
O                 -1.2208760000     -0.0322270000      0.7203820000
N                  2.4858590000      4.4724840000      2.2948570000
O                 -3.4942790000     -0.1308370000      2.0114900000
C                 -4.7608300000     -0.7237430000      2.2733820000
H                 -1.9053310000      4.1105600000      4.6400330000
H                 -4.1389000000      3.1047210000      5.1373800000
H                 -4.8921060000      1.1203850000      3.9134310000
H                  3.8434140000      3.2376980000      0.4304300000
H                  3.1182860000      1.2463470000     -0.8174040000
H                  0.8891220000      0.2085080000     -0.3498370000
H                  1.8834030000      4.8762970000      3.0007760000
H                  3.3859500000      4.8683670000      2.0864490000
H                 -4.8256830000     -1.5719360000      1.5946620000
H                 -5.5802270000     -0.0279000000      2.0650510000
H                 -4.8315730000     -1.0788210000      3.3067950000
$end
$rem
MAX_SCF_CYCLES=200
BASIS  =  6-311++G(d,p)
GUI  =  2
JOB_TYPE  =  SP
METHOD  =  B3LYP
SOLVENT_METHOD = COSMO
$end
$solvent
dielectric 37.219
opticaldielectric 1.43
$end

--------------------------------------------------------------

             Standard Nuclear Orientation (Angstroms)
    I     Atom           X                Y                Z
 ----------------------------------------------------------------
    1      C      -1.3375971705    -2.3902660249     0.0001836839
    2      C      -2.7212727951    -2.2977678993     0.0002750810
    3      C      -3.3469246808    -1.0559670930     0.0000388192
    4      C      -2.5902954274     0.1237065618    -0.0002690785
    5      C      -1.1693185449     0.0489226520    -0.0001894749
    6      C      -0.5671427796    -1.2265568263    -0.0000242677
    7      C       0.9219092859    -1.4044454256    -0.0000335460
    8      C      -0.3124437912     1.2659003209     0.0000835778
    9      C       1.7708216368    -0.2167323653     0.0000384932
   10      C       1.1809161980     1.0705271445     0.0001164175
   11      C       3.1950187682    -0.3310535823    -0.0000646422
   12      C       3.9646956140     0.8550806795    -0.0001150684
   13      C       3.3596753669     2.0950040934     0.0000127268
   14      C       1.9657628828     2.2139792412     0.0001548058
   15      O       1.3845692101    -2.5511321234    -0.0001438507
   16      O      -0.7656274288     2.3978473479     0.0004044222
   17      N       3.8202596651    -1.5367322345     0.0000158006
   18      O      -3.1605239584     1.3445124712    -0.0007135211
   19      C      -4.5786957748     1.4588119866     0.0001232240
   20      H      -0.8316596821    -3.3458854515     0.0003213056
   21      H      -3.3268177629    -3.1972828751     0.0005114816
   22      H      -4.4266218758    -1.0079015598     0.0001070448
   23      H       5.0469662929     0.7738804173    -0.0003074827
   24      H       3.9756814157     2.9876391542    -0.0000248601
   25      H       1.4801191701     3.1801745021     0.0001910297
   26      H       3.2531167220    -2.3749974891    -0.0002088401
   27      H       4.8242792578    -1.5843316291    -0.0000713624
   28      H      -4.7796868637     2.5283449206     0.0001458543
   29      H      -5.0170284584     1.0064728304     0.8958154011
   30      H      -5.0181611842     1.0063304767    -0.8949510879
 ----------------------------------------------------------------

    9    -858.8847869517      3.92e-06  Convergence criterion met
 Total energy in the final basis set =     -858.8847869517
    5    -858.9059980422      4.71e-06  Convergence criterion met
 Total energy in the final basis set =     -858.9059980422

                    Orbital Energies (a.u.)
 --------------------------------------------------------------

 Alpha MOs
 -- Occupied --
-19.1693 -19.1224 -19.1193 -14.3306 -10.2772 -10.2756 -10.2631 -10.2445
-10.2229 -10.2061 -10.2048 -10.2015 -10.1965 -10.1955 -10.1927 -10.1906
-10.1868 -10.1845 -10.1806  -1.0902  -1.0575  -1.0558  -0.9409  -0.8837
 -0.8628  -0.8066  -0.7798  -0.7673  -0.7528  -0.7140  -0.6835  -0.6570
 -0.6480  -0.6057  -0.5821  -0.5722  -0.5568  -0.5307  -0.5137  -0.5088
 -0.4920  -0.4884  -0.4818  -0.4704  -0.4685  -0.4522  -0.4497  -0.4482
 -0.4306  -0.4212  -0.4157  -0.4003  -0.3962  -0.3872  -0.3809  -0.3783
 -0.3694  -0.3498  -0.3397  -0.3302  -0.2864  -0.2803  -0.2731  -0.2632
 -0.2458  -0.2237

          Ground-State Mulliken Net Atomic Charges

     Atom                 Charge (a.u.)
  ----------------------------------------
      1 C                    -0.187322
      2 C                    -0.425530
      3 C                    -0.172964
      4 C                     0.052594
      5 C                     0.208253
      6 C                     0.259936
      7 C                    -0.471030
      8 C                    -0.553567
      9 C                     0.106936
     10 C                     0.638375
     11 C                     0.343147
     12 C                    -0.213978
     13 C                    -0.464296
     14 C                    -0.028722
     15 O                    -0.348693
     16 O                    -0.321147
     17 N                    -0.491178
     18 O                    -0.149179
     19 C                    -0.308585
     20 H                     0.187772
     21 H                     0.237924
     22 H                     0.224356
     23 H                     0.204547
     24 H                     0.228961
     25 H                     0.188320
     26 H                     0.352034
     27 H                     0.337251
     28 H                     0.212915
     29 H                     0.176477
     30 H                     0.176395
  ----------------------------------------
  Sum of atomic charges =     0.000000

                    Cartesian Multipole Moments
 -----------------------------------------------------------------
    Charge (ESU x 10^10)
                -0.0000
    Dipole Moment (Debye)
         X      -0.1019      Y      -1.9398      Z       0.0006
       Tot       1.9424
    Quadrupole Moments (Debye-Ang)
        XX     -55.5567     XY       7.0787     YY    -115.2579
        XZ      -0.0100     YZ      -0.0002     ZZ    -113.6061

 Total job time:  72.58s(wall), 545.89s(cpu)
        *  Thank you very much for using Q-Chem.  Have a nice day.  *
