 Q-Chem 5.4, Q-Chem, Inc., Pleasanton, CA (2021)
 Q-Chem 5.4.0 for Intel X86 EM64T Linux

User input:
--------------------------------------------------------------
$molecule
-1 2
C                 -2.2015320000     -0.3785190000      0.0027990000
C                 -0.7221910000     -0.0973960000      0.0000200000
C                 -0.2248010000      1.1815170000     -0.0385030000
C                  1.1908900000      1.4934880000     -0.0424130000
O                  1.6229150000      2.6835360000     -0.0782590000
C                  2.0715420000      0.3446540000     -0.0022160000
C                  1.5913690000     -0.9383690000      0.0364290000
C                  0.1780330000     -1.2467500000      0.0402130000
O                 -0.2581730000     -2.4358750000      0.0761130000
H                 -2.4913660000     -0.9456260000      0.8942690000
H                 -2.4838850000     -1.0019820000     -0.8527180000
H                 -2.7787730000      0.5503200000     -0.0295030000
H                 -0.9008830000      2.0337130000     -0.0684540000
H                  3.1396180000      0.5467350000     -0.0040510000
H                  2.2672390000     -1.7894450000      0.0662740000
$end

$rem
BASIS  =  6-311++G(d,p)
GUI  =  2
JOB_TYPE  =  SP
METHOD  =  B3LYP
SCF_CONVERGENCE  = 8
SOLVENT_METHOD = sm12
$end

$smx
solvent dimethylformamide
charges CM5
$end

--------------------------------------------------------------

             Standard Nuclear Orientation (Angstroms)
    I     Atom           X                Y                Z
 ----------------------------------------------------------------
    1      C      -2.2015320000    -0.3785190000     0.0027990000
    2      C      -0.7221910000    -0.0973960000     0.0000200000
    3      C      -0.2248010000     1.1815170000    -0.0385030000
    4      C       1.1908900000     1.4934880000    -0.0424130000
    5      O       1.6229150000     2.6835360000    -0.0782590000
    6      C       2.0715420000     0.3446540000    -0.0022160000
    7      C       1.5913690000    -0.9383690000     0.0364290000
    8      C       0.1780330000    -1.2467500000     0.0402130000
    9      O      -0.2581730000    -2.4358750000     0.0761130000
   10      H      -2.4913660000    -0.9456260000     0.8942690000
   11      H      -2.4838850000    -1.0019820000    -0.8527180000
   12      H      -2.7787730000     0.5503200000    -0.0295030000
   13      H      -0.9008830000     2.0337130000    -0.0684540000
   14      H       3.1396180000     0.5467350000    -0.0040510000
   15      H       2.2672390000    -1.7894450000     0.0662740000
 ----------------------------------------------------------------

   17    -420.9694298652      5.76e-09  Convergence criterion met
 Total energy in the final basis set =     -421.0562457162

                    Orbital Energies (a.u.)
 --------------------------------------------------------------

 Alpha MOs
 -- Occupied --
-19.0796 -19.0787 -10.2232 -10.2222 -10.1819 -10.1731 -10.1723 -10.1711
-10.1692  -0.9994  -0.9964  -0.8320  -0.7739  -0.7063  -0.6722  -0.5995
 -0.5626  -0.4839  -0.4725  -0.4469  -0.4321  -0.4166  -0.4031  -0.3961
 -0.3943  -0.3711  -0.3692  -0.3595  -0.2848  -0.2629  -0.2432  -0.2390
 -0.1665

 Beta MOs
 -- Occupied --
-19.0721 -19.0712 -10.2223 -10.2210 -10.1808 -10.1720 -10.1712 -10.1709
-10.1684  -0.9865  -0.9833  -0.8260  -0.7711  -0.7021  -0.6640  -0.5955
 -0.5588  -0.4819  -0.4679  -0.4439  -0.4252  -0.4152  -0.3967  -0.3938
 -0.3788  -0.3654  -0.3572  -0.3425  -0.2563  -0.2476  -0.2362  -0.2323

          Ground-State Mulliken Net Atomic Charges

     Atom                 Charge (a.u.)    Spin (a.u.)
  --------------------------------------------------------
      1 C                     0.477413       0.008590
      2 C                     1.242168       0.096135
      3 C                    -1.041969       0.030807
      4 C                    -0.969841       0.095376
      5 O                    -0.384254       0.263824
      6 C                     0.102262       0.103415
      7 C                     0.085408       0.090441
      8 C                    -1.364394       0.054239
      9 O                    -0.344145       0.271977
     10 H                     0.188082       0.004456
     11 H                     0.187992       0.004456
     12 H                     0.257011      -0.000359
     13 H                     0.126812      -0.007130
     14 H                     0.217530      -0.008014
     15 H                     0.219923      -0.008213
  --------------------------------------------------------
  Sum of atomic charges =    -1.000000

                    Cartesian Multipole Moments
 -----------------------------------------------------------------
    Charge (ESU x 10^10)
                -4.8032
    Dipole Moment (Debye)
         X      -3.6630      Y      -0.9654      Z       0.0153
       Tot       3.7881
    Quadrupole Moments (Debye-Ang)
        XX     -62.5303     XY     -13.1296     YY     -90.6165
        XZ       0.3955     YZ       0.9917     ZZ     -57.6237

 Total job time:  142.74s(wall), 1017.12s(cpu)
        *  Thank you very much for using Q-Chem.  Have a nice day.  *
