 Q-Chem 5.4, Q-Chem, Inc., Pleasanton, CA (2021)
 Q-Chem 5.4.0 for Intel X86 EM64T Linux

User input:
--------------------------------------------------------------
$molecule
-1 2
C                  3.7294880000     -1.0402640000     -0.3238240000
C                  2.4381860000     -0.2932630000     -0.0802800000
C                  2.4544790000      1.1052460000      0.1314150000
C                  1.2800440000      1.7985620000      0.3550850000
C                  0.0367140000      1.1380230000      0.3792230000
C                 -1.2021750000      1.8985670000      0.6197130000
O                 -1.1925290000      3.1454950000      0.8091340000
C                 -2.4112490000      1.1215540000      0.6225970000
C                 -2.4608190000     -0.2437380000      0.4192570000
C                 -3.7669940000     -0.9931390000      0.4361350000
C                 -1.2603980000     -1.0156510000      0.1809130000
O                 -1.2942530000     -2.2646390000     -0.0063680000
C                  0.0055020000     -0.2647280000      0.1683570000
C                  1.2183940000     -0.9488310000     -0.0578180000
H                  4.2496490000     -0.6656750000     -1.2138120000
H                  4.4221030000     -0.9327780000      0.5198060000
H                  3.5448370000     -2.1074040000     -0.4698410000
H                  3.4031730000      1.6371670000      0.1172500000
H                  1.2793980000      2.8706610000      0.5186480000
H                 -3.3292210000      1.6774920000      0.7996290000
H                 -3.7615940000     -1.7737760000      1.2048110000
H                 -4.6059790000     -0.3170440000      0.6239550000
H                 -3.9346990000     -1.5109420000     -0.5146730000
H                  1.1579450000     -2.0208950000     -0.2153760000
$end
$rem
MAX_SCF_CYCLES=200
BASIS  =  6-311++G(d,p)
GUI  =  2
JOB_TYPE  =  SP
METHOD  =  B3LYP
SOLVENT_METHOD = COSMO
$end
$solvent
dielectric 37.219
opticaldielectric 1.43
$end

--------------------------------------------------------------

             Standard Nuclear Orientation (Angstroms)
    I     Atom           X                Y                Z
 ----------------------------------------------------------------
    1      C       3.9717059912    -1.1338733363     0.0001168552
    2      C       2.6440990426    -0.4112082643     0.0000042926
    3      C       2.6038883757     1.0027545205    -0.0000539360
    4      C       1.3958663725     1.6740932951    -0.0001136245
    5      C       0.1733911553     0.9752955836    -0.0000491801
    6      C      -1.1021183458     1.7129839204    -0.0000209905
    7      O      -1.1428934903     2.9735949505     0.0001050806
    8      C      -2.2854588494     0.8973107571     0.0000023567
    9      C      -2.2800204733    -0.4839194952     0.0000062806
   10      C      -3.5620403418    -1.2741124528     0.0000587091
   11      C      -1.0427022512    -1.2340606393    -0.0000045806
   12      O      -1.0261693569    -2.4973571251    -0.0001078726
   13      C       0.1987863600    -0.4433319606    -0.0000125591
   14      C       1.4450790524    -1.1044019822    -0.0000008252
   15      H       4.5718894680    -0.8735994578    -0.8802241738
   16      H       4.5703193677    -0.8762150847     0.8823042538
   17      H       3.8295421152    -2.2173821116    -0.0015866486
   18      H       3.5355408587     1.5641675156    -0.0001090182
   19      H       1.3518469520     2.7577038438    -0.0001994657
   20      H      -3.2302575778     1.4362312932     0.0000201705
   21      H      -3.6170725650    -1.9326000950     0.8739303005
   22      H      -4.4323812775    -0.6117053807     0.0004563753
   23      H      -3.6175090081    -1.9321546708    -0.8741177223
   24      H       1.4277279149    -2.1895281319    -0.0000485261
 ----------------------------------------------------------------

   10    -613.9874389616      9.83e-06  Convergence criterion met
 Total energy in the final basis set =     -613.9874389616
    5    -614.0737309985      5.77e-06  Convergence criterion met
 Total energy in the final basis set =     -614.0737309985

                    Orbital Energies (a.u.)
 --------------------------------------------------------------

 Alpha MOs
 -- Occupied --
-19.0782 -19.0778 -10.2223 -10.2195 -10.1803 -10.1718 -10.1715 -10.1693
-10.1686 -10.1678 -10.1642 -10.1603 -10.1569 -10.1546  -1.0023  -0.9998
 -0.8589  -0.8125  -0.7689  -0.7485  -0.7106  -0.6777  -0.6578  -0.6002
 -0.5889  -0.5546  -0.5018  -0.4873  -0.4690  -0.4395  -0.4302  -0.4283
 -0.4203  -0.4143  -0.4141  -0.3936  -0.3859  -0.3798  -0.3782  -0.3728
 -0.3665  -0.3431  -0.3392  -0.3331  -0.2723  -0.2542  -0.2475  -0.2404
 -0.2390  -0.1533

 Beta MOs
 -- Occupied --
-19.0724 -19.0717 -10.2207 -10.2175 -10.1800 -10.1711 -10.1701 -10.1689
-10.1684 -10.1676 -10.1641 -10.1603 -10.1556 -10.1547  -0.9918  -0.9888
 -0.8570  -0.8075  -0.7674  -0.7469  -0.7067  -0.6763  -0.6505  -0.5990
 -0.5858  -0.5516  -0.4996  -0.4847  -0.4663  -0.4384  -0.4284  -0.4196
 -0.4187  -0.4114  -0.4090  -0.3843  -0.3839  -0.3786  -0.3773  -0.3650
 -0.3498  -0.3416  -0.3320  -0.3291  -0.2489  -0.2448  -0.2420  -0.2351
 -0.2335

          Ground-State Mulliken Net Atomic Charges

     Atom                 Charge (a.u.)    Spin (a.u.)
  --------------------------------------------------------
      1 C                    -0.467540      -0.000614
      2 C                     0.479153       0.019209
      3 C                    -0.409179       0.029629
      4 C                    -0.008369       0.018561
      5 C                     0.316991       0.029008
      6 C                    -0.586805       0.105226
      7 O                    -0.540779       0.206041
      8 C                    -0.511234       0.092808
      9 C                     0.930436       0.108623
     10 C                    -0.353512       0.005950
     11 C                    -0.552959       0.125768
     12 O                    -0.506066       0.227945
     13 C                    -0.128017       0.004137
     14 C                    -0.358512       0.030060
     15 H                     0.169379       0.001507
     16 H                     0.169641       0.001510
     17 H                     0.176368       0.000075
     18 H                     0.202877      -0.002235
     19 H                     0.167193      -0.002234
     20 H                     0.161899      -0.009331
     21 H                     0.172731       0.005770
     22 H                     0.163015      -0.000204
     23 H                     0.172857       0.005775
     24 H                     0.140433      -0.002985
  --------------------------------------------------------
  Sum of atomic charges =    -1.000000

                    Cartesian Multipole Moments
 -----------------------------------------------------------------
    Charge (ESU x 10^10)
                -4.8032
    Dipole Moment (Debye)
         X       5.4184      Y      -1.8988      Z       0.0013
       Tot       5.7415
    Quadrupole Moments (Debye-Ang)
        XX     -81.7331     XY       3.0542     YY    -125.3778
        XZ       0.0008     YZ      -0.0009     ZZ     -87.8524

 Total job time:  52.60s(wall), 399.26s(cpu)
        *  Thank you very much for using Q-Chem.  Have a nice day.  *
