 Q-Chem 5.4, Q-Chem, Inc., Pleasanton, CA (2021)
 Q-Chem 5.4.0 for Intel X86 EM64T Linux

User input:
--------------------------------------------------------------
$molecule
-1 2
C                 -2.4783930000      1.3957840000      0.3568510000
C                 -1.9795530000     -0.0608110000      0.4304450000
C                 -2.7608620000     -0.9571700000     -0.5504020000
C                 -0.4741890000     -0.1662380000      0.2352180000
C                  0.3203310000     -0.6505770000      1.2469110000
C                  1.7567560000     -0.7905900000      1.1627480000
O                  2.4496860000     -1.2426540000      2.1219670000
C                  2.3620240000     -0.3786590000     -0.0974080000
C                  1.5740120000      0.1052890000     -1.1100020000
C                  0.1359910000      0.2458140000     -1.0264490000
O                 -0.5396470000      0.7013340000     -1.9995030000
C                  3.8558920000     -0.5063680000     -0.2314690000
H                 -2.2843590000      1.8079600000     -0.6349590000
H                 -3.5559450000      1.4470150000      0.5589880000
H                 -1.9646270000      2.0186230000      1.0958230000
H                 -2.1858010000     -0.4271330000      1.4449080000
H                 -2.5777660000     -0.6361200000     -1.5773410000
H                 -2.4471480000     -2.0013430000     -0.4542620000
H                 -3.8383690000     -0.9057130000     -0.3480780000
H                 -0.1257110000     -0.9599360000      2.1901950000
H                  2.0183670000      0.4149580000     -2.0537490000
H                  4.3703940000      0.0770810000      0.5400180000
H                  4.1931490000     -0.1674970000     -1.2154940000
H                  4.1757690000     -1.5439400000     -0.0849570000
$end

$rem
BASIS  =  6-311++G(d,p)
GUI  =  2
JOB_TYPE  =  SP
METHOD  =  B3LYP
SCF_CONVERGENCE  = 8
SOLVENT_METHOD = sm12
$end

$smx
solvent dimethylformamide
charges CM5
$end

--------------------------------------------------------------

             Standard Nuclear Orientation (Angstroms)
    I     Atom           X                Y                Z
 ----------------------------------------------------------------
    1      C      -2.4783930000     1.3957840000     0.3568510000
    2      C      -1.9795530000    -0.0608110000     0.4304450000
    3      C      -2.7608620000    -0.9571700000    -0.5504020000
    4      C      -0.4741890000    -0.1662380000     0.2352180000
    5      C       0.3203310000    -0.6505770000     1.2469110000
    6      C       1.7567560000    -0.7905900000     1.1627480000
    7      O       2.4496860000    -1.2426540000     2.1219670000
    8      C       2.3620240000    -0.3786590000    -0.0974080000
    9      C       1.5740120000     0.1052890000    -1.1100020000
   10      C       0.1359910000     0.2458140000    -1.0264490000
   11      O      -0.5396470000     0.7013340000    -1.9995030000
   12      C       3.8558920000    -0.5063680000    -0.2314690000
   13      H      -2.2843590000     1.8079600000    -0.6349590000
   14      H      -3.5559450000     1.4470150000     0.5589880000
   15      H      -1.9646270000     2.0186230000     1.0958230000
   16      H      -2.1858010000    -0.4271330000     1.4449080000
   17      H      -2.5777660000    -0.6361200000    -1.5773410000
   18      H      -2.4471480000    -2.0013430000    -0.4542620000
   19      H      -3.8383690000    -0.9057130000    -0.3480780000
   20      H      -0.1257110000    -0.9599360000     2.1901950000
   21      H       2.0183670000     0.4149580000    -2.0537490000
   22      H       4.3703940000     0.0770810000     0.5400180000
   23      H       4.1931490000    -0.1674970000    -1.2154940000
   24      H       4.1757690000    -1.5439400000    -0.0849570000
 ----------------------------------------------------------------

   16    -538.9444171131      8.09e-09  Convergence criterion met
 Total energy in the final basis set =     -539.0275664752

                    Orbital Energies (a.u.)
 --------------------------------------------------------------

 Alpha MOs
 -- Occupied --
-19.0744 -19.0736 -10.2187 -10.2171 -10.1832 -10.1759 -10.1734 -10.1684
-10.1638 -10.1638 -10.1605 -10.1604  -0.9949  -0.9925  -0.8342  -0.8042
 -0.7550  -0.7013  -0.6865  -0.6675  -0.5983  -0.5944  -0.5336  -0.4918
 -0.4648  -0.4470  -0.4374  -0.4311  -0.4270  -0.4148  -0.4002  -0.3966
 -0.3912  -0.3786  -0.3781  -0.3641  -0.3574  -0.3458  -0.3410  -0.3363
 -0.2769  -0.2527  -0.2381  -0.2329  -0.1610

 Beta MOs
 -- Occupied --
-19.0672 -19.0662 -10.2175 -10.2159 -10.1833 -10.1746 -10.1720 -10.1685
-10.1630 -10.1629 -10.1604 -10.1604  -0.9823  -0.9796  -0.8292  -0.8021
 -0.7530  -0.6972  -0.6863  -0.6600  -0.5957  -0.5912  -0.5303  -0.4900
 -0.4622  -0.4438  -0.4368  -0.4253  -0.4239  -0.4127  -0.3937  -0.3922
 -0.3896  -0.3763  -0.3676  -0.3544  -0.3455  -0.3393  -0.3358  -0.3356
 -0.2451  -0.2429  -0.2314  -0.2265

          Ground-State Mulliken Net Atomic Charges

     Atom                 Charge (a.u.)    Spin (a.u.)
  --------------------------------------------------------
      1 C                    -0.318542       0.012484
      2 C                     1.171880      -0.025503
      3 C                    -0.317104       0.012471
      4 C                     0.416340       0.119936
      5 C                    -0.450527       0.058880
      6 C                    -1.742625       0.076652
      7 O                    -0.363745       0.263076
      8 C                     0.668941       0.103789
      9 C                    -0.976443       0.063567
     10 C                    -1.521445       0.051109
     11 O                    -0.293916       0.266876
     12 C                     0.637484       0.006255
     13 H                     0.118232      -0.001838
     14 H                     0.267423       0.000567
     15 H                     0.105271       0.000187
     16 H                     0.212068      -0.001111
     17 H                     0.117824      -0.001860
     18 H                     0.104954       0.000205
     19 H                     0.267332       0.000552
     20 H                     0.143021      -0.008137
     21 H                     0.116373      -0.007465
     22 H                     0.191657       0.004748
     23 H                     0.253622      -0.000228
     24 H                     0.191924       0.004786
  --------------------------------------------------------
  Sum of atomic charges =    -1.000000

                    Cartesian Multipole Moments
 -----------------------------------------------------------------
    Charge (ESU x 10^10)
                -4.8032
    Dipole Moment (Debye)
         X      -4.1220      Y       1.3233      Z      -0.5016
       Tot       4.3582
    Quadrupole Moments (Debye-Ang)
        XX     -93.9055     XY       8.4188     YY     -83.7682
        XZ     -15.7652     YZ       9.8185     ZZ     -99.2434

 Total job time:  386.31s(wall), 2864.56s(cpu)
        *  Thank you very much for using Q-Chem.  Have a nice day.  *
