 Gaussian 16, Revision A.03,
 Gaussian 16:  ES64L-G16RevA.03 25-Dec-2016

 ----------------------------------------------------------------
 #P UB3LYP/6-311++G(d,p) SCRF=(PCM,Solvent=n,n-DiMethylFormamide)
 ----------------------------------------------------------------

 ------------------
 Quinone PCM in DMF
 ------------------
 Symbolic Z-matrix:
 Charge =  0 Multiplicity = 1

                         Standard orientation:
 ---------------------------------------------------------------------
 Center     Atomic      Atomic             Coordinates (Angstroms)
 Number     Number       Type             X           Y           Z
 ---------------------------------------------------------------------
      1          6           0        2.566081    3.652045   -0.251445
      2          6           0        2.658327    2.259193    0.297494
      3          8           0        2.765766    1.939006    1.445988
      4          8           0        2.618379    1.342111   -0.735658
      5          6           0        2.521829   -0.000493   -0.411376
      6          6           0        3.700778   -0.736617   -0.408289
      7          6           0        3.673799   -2.105072   -0.160106
      8          6           0        2.460813   -2.740415    0.070307
      9          6           0        1.273102   -2.008622    0.046523
     10          6           0       -0.004357   -2.748386    0.254405
     11          8           0       -0.006146   -3.931892    0.548845
     12          6           0       -1.279581   -2.005232    0.044733
     13          6           0       -2.469175   -2.734009    0.066289
     14          6           0       -3.680253   -2.095324   -0.164972
     15          6           0       -3.703461   -0.726456   -0.411194
     16          6           0       -2.522649    0.006712   -0.411925
     17          8           0       -2.615934    1.350188   -0.733432
     18          6           0       -2.650437    2.265310    0.301780
     19          6           0       -2.554463    3.658983   -0.244360
     20          8           0       -2.756526    1.943036    1.449794
     21          6           0       -1.280627   -0.613811   -0.185901
     22          6           0       -0.000206    0.161503   -0.164553
     23          8           0        0.001574    1.380513   -0.122611
     24          6           0        1.278054   -0.617434   -0.185377
     25          1           0        1.556061    3.802043   -0.639298
     26          1           0        2.768363    4.369395    0.540994
     27          1           0        3.265205    3.786879   -1.078695
     28          1           0        4.632119   -0.217929   -0.599789
     29          1           0        4.598383   -2.670194   -0.149146
     30          1           0        2.405742   -3.803871    0.263724
     31          1           0       -2.417088   -3.797782    0.258781
     32          1           0       -4.606280   -2.658112   -0.155901
     33          1           0       -4.633269   -0.205067   -0.602828
     34          1           0       -2.755662    4.375264    0.549332
     35          1           0       -1.543589    3.807221   -0.630685
     36          1           0       -3.252333    3.797207   -1.072079
 ---------------------------------------------------------------------

 SCF Done:  E(UB3LYP) =  -1144.84705890     A.U. after   15 cycles

 The electronic state is 1-A.
 Alpha  occ. eigenvalues --  -19.18940 -19.18940 -19.13804 -19.13685 -19.13587
 Alpha  occ. eigenvalues --  -19.13587 -10.32658 -10.32658 -10.29689 -10.28944
 Alpha  occ. eigenvalues --  -10.27081 -10.27080 -10.22327 -10.22326 -10.21806
 Alpha  occ. eigenvalues --  -10.21805 -10.20705 -10.20705 -10.20595 -10.20594
 Alpha  occ. eigenvalues --  -10.20298 -10.20297 -10.18504 -10.18503  -1.13465
 Alpha  occ. eigenvalues --   -1.13377  -1.07537  -1.07228  -1.05421  -1.05311
 Alpha  occ. eigenvalues --   -0.90382  -0.89149  -0.82410  -0.80036  -0.79877
 Alpha  occ. eigenvalues --   -0.78335  -0.75799  -0.75504  -0.70201  -0.68338
 Alpha  occ. eigenvalues --   -0.66658  -0.65361  -0.63895  -0.58719  -0.58464
 Alpha  occ. eigenvalues --   -0.55620  -0.55312  -0.51787  -0.51311  -0.51240
 Alpha  occ. eigenvalues --   -0.51188  -0.50745  -0.50440  -0.49796  -0.48896
 Alpha  occ. eigenvalues --   -0.48373  -0.47061  -0.46306  -0.46229  -0.46037
 Alpha  occ. eigenvalues --   -0.44410  -0.43176  -0.43056  -0.42184  -0.42026
 Alpha  occ. eigenvalues --   -0.41826  -0.41384  -0.40135  -0.39762  -0.39353
 Alpha  occ. eigenvalues --   -0.38997  -0.38640  -0.38615  -0.37349  -0.34504
 Alpha  occ. eigenvalues --   -0.33855  -0.30723  -0.30718  -0.29879  -0.29435
 Alpha  occ. eigenvalues --   -0.28553  -0.28166  -0.27907  -0.27404
 Alpha virt. eigenvalues --   -0.12433  -0.08023  -0.04569  -0.03293  -0.01928
 Alpha virt. eigenvalues --   -0.01420  -0.00806   0.00056   0.00125   0.01326
 Alpha virt. eigenvalues --    0.01594   0.02321   0.02435   0.02531   0.03110

  Beta  occ. eigenvalues --  -19.18940 -19.18940 -19.13804 -19.13685 -19.13587
  Beta  occ. eigenvalues --  -19.13587 -10.32658 -10.32658 -10.29689 -10.28944
  Beta  occ. eigenvalues --  -10.27081 -10.27080 -10.22327 -10.22326 -10.21806
  Beta  occ. eigenvalues --  -10.21805 -10.20705 -10.20705 -10.20595 -10.20594
  Beta  occ. eigenvalues --  -10.20298 -10.20297 -10.18504 -10.18503  -1.13465
  Beta  occ. eigenvalues --   -1.13377  -1.07537  -1.07228  -1.05421  -1.05311
  Beta  occ. eigenvalues --   -0.90382  -0.89149  -0.82410  -0.80036  -0.79877
  Beta  occ. eigenvalues --   -0.78335  -0.75799  -0.75504  -0.70201  -0.68338
  Beta  occ. eigenvalues --   -0.66658  -0.65361  -0.63895  -0.58719  -0.58464
  Beta  occ. eigenvalues --   -0.55620  -0.55312  -0.51787  -0.51311  -0.51240
  Beta  occ. eigenvalues --   -0.51188  -0.50745  -0.50440  -0.49796  -0.48896
  Beta  occ. eigenvalues --   -0.48373  -0.47061  -0.46306  -0.46229  -0.46037
  Beta  occ. eigenvalues --   -0.44410  -0.43176  -0.43056  -0.42184  -0.42026
  Beta  occ. eigenvalues --   -0.41826  -0.41384  -0.40135  -0.39762  -0.39353
  Beta  occ. eigenvalues --   -0.38997  -0.38640  -0.38615  -0.37349  -0.34504
  Beta  occ. eigenvalues --   -0.33855  -0.30723  -0.30718  -0.29879  -0.29435
  Beta  occ. eigenvalues --   -0.28553  -0.28166  -0.27907  -0.27404
  Beta virt. eigenvalues --   -0.12433  -0.08023  -0.04569  -0.03293  -0.01928
  Beta virt. eigenvalues --   -0.01420  -0.00806   0.00056   0.00125   0.01326
  Beta virt. eigenvalues --    0.01594   0.02321   0.02435   0.02531   0.03110

 Mulliken charges and spin densities:
               1          2
     1  C   -0.451093   0.000000
     2  C   -0.008790   0.000000
     3  O   -0.243676   0.000000
     4  O    0.035619   0.000000
     5  C   -0.311010  -0.000000
     6  C    0.235030   0.000000
     7  C   -0.424812  -0.000000
     8  C   -0.103638   0.000000
     9  C    0.437995   0.000000
    10  C   -0.657339  -0.000000
    11  O   -0.264059   0.000000
    12  C    0.439559  -0.000000
    13  C   -0.101668   0.000000
    14  C   -0.425424   0.000000
    15  C    0.234285  -0.000000
    16  C   -0.309666  -0.000000
    17  O    0.035283   0.000000
    18  C   -0.009201  -0.000000
    19  C   -0.450576   0.000000
    20  O   -0.243524   0.000000
    21  C    0.302341  -0.000000
    22  C   -0.216566  -0.000000
    23  O   -0.246153   0.000000
    24  C    0.301544   0.000000
    25  H    0.218083   0.000000
    26  H    0.175759  -0.000000
    27  H    0.189784  -0.000000
    28  H    0.219583   0.000000
    29  H    0.225758  -0.000000
    30  H    0.193877   0.000000
    31  H    0.193933  -0.000000
    32  H    0.225718   0.000000
    33  H    0.219587  -0.000000
    34  H    0.175710  -0.000000
    35  H    0.218113  -0.000000
    36  H    0.189636  -0.000000
 Sum of Mulliken charges =  -0.00000  -0.00000

 Dipole moment (field-independent basis, Debye):
    X=             -0.0009    Y=              0.8851    Z=             -5.4527  Tot=              5.5240
 Quadrupole moment (field-independent basis, Debye-Ang):
   XX=           -105.5273   YY=           -126.8866   ZZ=           -149.7614
   XY=             -0.0453   XZ=             -0.0092   YZ=             -6.2700

 Normal termination of Gaussian 16 at Sun Jan 14 01:12:24 2024.
