 Gaussian 16, Revision A.03,
 Gaussian 16:  ES64L-G16RevA.03 25-Dec-2016

 ----------------------------------------------------------------------
 #P UB3LYP/6-311++G(d,p) nosym opt freq SCRF=(PCM,Solvent=n,n-DiMethylF
 ormamide)
 ----------------------------------------------------------------------

 -------
 Radical
 -------
 Symbolic Z-matrix:
 Charge = -1 Multiplicity = 2

 SCF Done:  E(UB3LYP) =  -767.000154204     A.U. after   18 cycles
 SCF Done:  E(UB3LYP) =  -766.955659067     A.U. after   17 cycles
 SCF Done:  E(UB3LYP) =  -766.995529064     A.U. after   16 cycles
 SCF Done:  E(UB3LYP) =  -767.000317310     A.U. after   13 cycles
 SCF Done:  E(UB3LYP) =  -766.999371245     A.U. after   16 cycles
 SCF Done:  E(UB3LYP) =  -767.000554024     A.U. after   14 cycles
 SCF Done:  E(UB3LYP) =  -767.000592297     A.U. after   13 cycles
 SCF Done:  E(UB3LYP) =  -767.000701075     A.U. after   13 cycles
 SCF Done:  E(UB3LYP) =  -767.000742576     A.U. after   13 cycles
 SCF Done:  E(UB3LYP) =  -767.000767256     A.U. after   13 cycles
 SCF Done:  E(UB3LYP) =  -767.000787681     A.U. after    9 cycles
 SCF Done:  E(UB3LYP) =  -767.000787695     A.U. after    9 cycles
 SCF Done:  E(UB3LYP) =  -767.000787709     A.U. after    9 cycles
 SCF Done:  E(UB3LYP) =  -767.000787724     A.U. after    9 cycles
 SCF Done:  E(UB3LYP) =  -767.000787739     A.U. after    9 cycles
 SCF Done:  E(UB3LYP) =  -767.000787756     A.U. after    9 cycles
 SCF Done:  E(UB3LYP) =  -767.000787774     A.U. after    9 cycles
 SCF Done:  E(UB3LYP) =  -767.000787792     A.U. after    7 cycles
 SCF Done:  E(UB3LYP) =  -767.000787807     A.U. after    8 cycles
 Optimization completed.
    -- Stationary point found.
 Normal termination of Gaussian 16 at Sat Feb 10 12:47:19 2024.

 ----------------------------------------------------------------------
 #P Geom=AllCheck Guess=TCheck SCRF=Check GenChk UB3LYP/6-311++G(d,p) F
 req
 ----------------------------------------------------------------------

 Structure from the checkpoint file:  "051-rad.chk"
 -------
 Radical
 -------
 Charge = -1 Multiplicity = 2

                          Input orientation:
 ---------------------------------------------------------------------
 Center     Atomic      Atomic             Coordinates (Angstroms)
 Number     Number       Type             X           Y           Z
 ---------------------------------------------------------------------
      1          6           0        3.427668    5.948553    0.645786
      2          6           0        2.135374    5.416651    1.069340
      3          6           0        1.997190    4.078076    1.372861
      4          6           0        3.115114    3.171302    1.244208
      5          6           0        4.401060    3.689032    0.837789
      6          6           0        4.551684    5.027044    0.542613
      7          8           0        3.568751    7.182193    0.380509
      8          8           0        2.973893    1.910866    1.491594
      9          6           0        5.883998    5.579351    0.103116
     10          6           0        5.563582    2.732224    0.734393
     11          6           0        0.985396    6.391327    1.170167
     12          6           0        0.689678    3.492216    1.861517
     13          6           0       -0.070145    2.618285    0.812511
     14          6           0       -0.217630    1.151581    1.187083
     15          8           0       -1.285647    0.561187    1.126648
     16          8           0        0.884282    0.526878    1.573217
     17          1           0        6.636214    5.490262    0.895686
     18          1           0        5.788260    6.631928   -0.158282
     19          1           0        6.276949    5.036948   -0.763296
     20          1           0        5.280789    1.747053    1.100953
     21          1           0        6.424352    3.086529    1.310459
     22          1           0        5.902317    2.625008   -0.302747
     23          1           0        1.259036    7.333437    0.697786
     24          1           0        0.728084    6.607815    2.213772
     25          1           0        0.081980    6.008812    0.688305
     26          1           0        0.024228    4.291825    2.180933
     27          1           0        0.888746    2.892909    2.754676
     28          1           0        0.456075    2.650484   -0.147507
     29          1           0       -1.072335    3.008031    0.636828
     30          1           0        1.715221    1.148525    1.555199
 ---------------------------------------------------------------------

 SCF Done:  E(UB3LYP) =  -767.000787807     A.U. after    1 cycles

 Alpha  occ. eigenvalues --  -19.13723 -19.10181 -19.08890 -19.07782 -10.29625
 Alpha  occ. eigenvalues --  -10.22391 -10.21796 -10.18041 -10.17461 -10.17219
 Alpha  occ. eigenvalues --  -10.16898 -10.16863 -10.16782 -10.15456 -10.15407
 Alpha  occ. eigenvalues --  -10.15336  -1.08720  -1.01177  -0.99830  -0.99592
 Alpha  occ. eigenvalues --   -0.83708  -0.80374  -0.76687  -0.72500  -0.71111
 Alpha  occ. eigenvalues --   -0.68321  -0.64172  -0.63104  -0.59392  -0.55159
 Alpha  occ. eigenvalues --   -0.54517  -0.51762  -0.50021  -0.46746  -0.45526
 Alpha  occ. eigenvalues --   -0.45048  -0.44056  -0.43053  -0.42033  -0.41393
 Alpha  occ. eigenvalues --   -0.40497  -0.39879  -0.39168  -0.38786  -0.38711
 Alpha  occ. eigenvalues --   -0.38305  -0.37235  -0.36936  -0.36539  -0.36152
 Alpha  occ. eigenvalues --   -0.35343  -0.34108  -0.32872  -0.31042  -0.27891
 Alpha  occ. eigenvalues --   -0.27000  -0.25947  -0.23889  -0.23362  -0.16509
 Alpha virt. eigenvalues --   -0.00945  -0.00394   0.00347   0.00820   0.01259
 Alpha virt. eigenvalues --    0.01934   0.02481   0.02858   0.02894   0.03613
 Alpha virt. eigenvalues --    0.03817   0.04700   0.05098   0.05415   0.06263

  Beta  occ. eigenvalues --  -19.13723 -19.10178 -19.08350 -19.07039 -10.29625
  Beta  occ. eigenvalues --  -10.22113 -10.21666 -10.18036 -10.17466 -10.17047
  Beta  occ. eigenvalues --  -10.16865 -10.16777 -10.16687 -10.15469 -10.15411
  Beta  occ. eigenvalues --  -10.15347  -1.08711  -1.00757  -0.99067  -0.98453
  Beta  occ. eigenvalues --   -0.83207  -0.80231  -0.76521  -0.72147  -0.70900
  Beta  occ. eigenvalues --   -0.68120  -0.63532  -0.62988  -0.59277  -0.54836
  Beta  occ. eigenvalues --   -0.54104  -0.51682  -0.49894  -0.46673  -0.45378
  Beta  occ. eigenvalues --   -0.44774  -0.43480  -0.42792  -0.41604  -0.41136
  Beta  occ. eigenvalues --   -0.40099  -0.39408  -0.38988  -0.38667  -0.38548
  Beta  occ. eigenvalues --   -0.38264  -0.36935  -0.36518  -0.35623  -0.35174
  Beta  occ. eigenvalues --   -0.33888  -0.33824  -0.32740  -0.30983  -0.27526
  Beta  occ. eigenvalues --   -0.25500  -0.24455  -0.23232  -0.22685
  Beta virt. eigenvalues --   -0.09311  -0.00863   0.00331   0.00526   0.00926
  Beta virt. eigenvalues --    0.01461   0.02045   0.02658   0.02917   0.03532
  Beta virt. eigenvalues --    0.03677   0.04756   0.05075   0.05329   0.05469

 Mulliken charges and spin densities:
               1          2
     1  C   -1.545363   0.047177
     2  C    0.805611   0.137089
     3  C    0.990802   0.021671
     4  C   -1.175001   0.168514
     5  C    0.581566   0.012312
     6  C    0.894576   0.133812
     7  O   -0.460896   0.269777
     8  O   -0.552318   0.193389
     9  C   -0.489948  -0.000668
    10  C   -0.519346   0.001203
    11  C   -0.642603  -0.006316
    12  C   -0.431150  -0.000781
    13  C   -0.445100  -0.000438
    14  C   -0.000292   0.001077
    15  O   -0.409657   0.000887
    16  O   -0.411863   0.002054
    17  H    0.160630   0.005176
    18  H    0.178623  -0.001689
    19  H    0.152999   0.004148
    20  H    0.175982  -0.000614
    21  H    0.146161   0.001437
    22  H    0.157062   0.001920
    23  H    0.173671  -0.001444
    24  H    0.180117   0.006995
    25  H    0.168464   0.004314
    26  H    0.190262   0.000015
    27  H    0.190118   0.002040
    28  H    0.204587   0.001269
    29  H    0.199532   0.000502
    30  H    0.532774  -0.004827
 Sum of Mulliken charges =  -1.00000   1.00000

 Dipole moment (field-independent basis, Debye):
    X=             -9.0625    Y=            -14.6299    Z=             -5.0419  Tot=             17.9328
 Quadrupole moment (field-independent basis, Debye-Ang):
   XX=           -138.2381   YY=           -206.7272   ZZ=           -104.3460
   XY=            -59.9946   XZ=             -7.9322   YZ=             -4.9984

  Exact polarizability: 255.167  21.178 311.236 -19.141 -28.730 151.576
 Approx polarizability: 257.489  17.131 346.111 -15.599 -34.633 173.306

                      1                      2                      3
                      A                      A                      A
 Frequencies --     35.5063                46.4035                57.7565
 Red. masses --      4.0965                 1.5683                 1.0982
 Frc consts  --      0.0030                 0.0020                 0.0022
 IR Inten    --      7.5219                 1.3239                 1.2906

                      4                      5                      6
                      A                      A                      A
 Frequencies --     65.0375                99.7330               101.5595
 Red. masses --      3.6045                 2.3088                 2.0728
 Frc consts  --      0.0090                 0.0135                 0.0126
 IR Inten    --      2.3264                 6.0299                12.8009

                      7                      8                      9
                      A                      A                      A
 Frequencies --    108.7901               122.2022               135.9148
 Red. masses --      1.4574                 4.1594                 3.4233
 Frc consts  --      0.0102                 0.0366                 0.0373
 IR Inten    --      4.4803                12.3343                 0.6315

                     10                     11                     12
                      A                      A                      A
 Frequencies --    188.2370               214.8120               233.7499
 Red. masses --      4.9281                 6.4880                 3.9995
 Frc consts  --      0.1029                 0.1764                 0.1288
 IR Inten    --      6.5982                51.9563                 2.7055

                     13                     14                     15
                      A                      A                      A
 Frequencies --    305.8288               319.8055               345.3675
 Red. masses --      2.6675                 2.5244                 4.5748
 Frc consts  --      0.1470                 0.1521                 0.3215
 IR Inten    --     11.8655                 0.5185                 1.9595

                     16                     17                     18
                      A                      A                      A
 Frequencies --    361.9421               374.7738               407.8941
 Red. masses --      2.4355                 4.4072                 4.4133
 Frc consts  --      0.1880                 0.3647                 0.4326
 IR Inten    --     12.9676                 7.1989                 2.1897

                     19                     20                     21
                      A                      A                      A
 Frequencies --    436.1278               450.9079               465.8877
 Red. masses --      7.6225                 4.8069                 2.8240
 Frc consts  --      0.8542                 0.5758                 0.3611
 IR Inten    --     65.3424                31.8612                 8.6340

                     22                     23                     24
                      A                      A                      A
 Frequencies --    480.6277               556.4447               581.2593
 Red. masses --      6.8125                 4.8458                 4.9798
 Frc consts  --      0.9272                 0.8840                 0.9913
 IR Inten    --     22.7517                 1.2994                50.4479

                     25                     26                     27
                      A                      A                      A
 Frequencies --    606.5028               627.5162               669.4787
 Red. masses --      5.0677                 3.9397                 3.1976
 Frc consts  --      1.0983                 0.9140                 0.8444
 IR Inten    --     17.6144                97.5128                10.9066

                     28                     29                     30
                      A                      A                      A
 Frequencies --    701.0659               721.8205               778.2901
 Red. masses --      4.1527                 5.7826                 6.0265
 Frc consts  --      1.2026                 1.7751                 2.1508
 IR Inten    --     17.6221                14.0332                 0.6899

                     31                     32                     33
                      A                      A                      A
 Frequencies --    818.3672               866.3120               874.7907
 Red. masses --      2.8899                 3.2161                 2.8571
 Frc consts  --      1.1403                 1.4221                 1.2882
 IR Inten    --     51.0110                 4.2176                 5.9174

                     34                     35                     36
                      A                      A                      A
 Frequencies --    950.6192               971.3377              1003.0543
 Red. masses --      2.7895                 1.6936                 3.2804
 Frc consts  --      1.4852                 0.9415                 1.9446
 IR Inten    --      8.5568                 9.4633                 8.6879

                     37                     38                     39
                      A                      A                      A
 Frequencies --   1011.9728              1023.6935              1031.8327
 Red. masses --      2.0052                 1.4211                 2.9489
 Frc consts  --      1.2099                 0.8775                 1.8498
 IR Inten    --     45.9266                 1.0360                 6.6925

                     40                     41                     42
                      A                      A                      A
 Frequencies --   1042.2193              1056.9011              1076.5265
 Red. masses --      1.5536                 1.5387                 2.2786
 Frc consts  --      0.9943                 1.0127                 1.5558
 IR Inten    --      4.6552                 0.9274                37.8137

                     43                     44                     45
                      A                      A                      A
 Frequencies --   1103.3790              1112.6217              1160.1612
 Red. masses --      1.0503                 2.5275                 3.6402
 Frc consts  --      0.7534                 1.8435                 2.8868
 IR Inten    --    139.6865               171.3727                 1.1065

                     46                     47                     48
                      A                      A                      A
 Frequencies --   1195.4197              1229.3774              1256.4713
 Red. masses --      1.5394                 1.5279                 3.1307
 Frc consts  --      1.2961                 1.3605                 2.9120
 IR Inten    --    162.8615                32.9888                11.1351

                     49                     50                     51
                      A                      A                      A
 Frequencies --   1300.4870              1320.1579              1337.6361
 Red. masses --      3.5993                 2.4500                 1.5254
 Frc consts  --      3.5865                 2.5158                 1.6081
 IR Inten    --    130.5306                36.5263                44.2999

                     52                     53                     54
                      A                      A                      A
 Frequencies --   1354.4893              1381.1578              1387.6474
 Red. masses --      1.3909                 1.4038                 1.3043
 Frc consts  --      1.5035                 1.5778                 1.4797
 IR Inten    --     26.6720               175.0976                57.9344

                     55                     56                     57
                      A                      A                      A
 Frequencies --   1391.4179              1431.2514              1435.3505
 Red. masses --      1.2969                 2.2563                 4.7168
 Frc consts  --      1.4793                 2.7231                 5.7255
 IR Inten    --     37.4843                12.2489              1424.0079

                     58                     59                     60
                      A                      A                      A
 Frequencies --   1467.4760              1469.4079              1471.0341
 Red. masses --      1.1085                 1.1341                 1.1032
 Frc consts  --      1.4065                 1.4427                 1.4065
 IR Inten    --     12.2376                89.2310                70.7234

                     61                     62                     63
                      A                      A                      A
 Frequencies --   1480.4460              1485.2951              1486.9347
 Red. masses --      1.0572                 2.2603                 1.5226
 Frc consts  --      1.3652                 2.9380                 1.9834
 IR Inten    --      0.7656                71.0038               295.5162

                     64                     65                     66
                      A                      A                      A
 Frequencies --   1488.5151              1494.5246              1500.3886
 Red. masses --      1.3617                 1.1156                 1.1024
 Frc consts  --      1.7776                 1.4681                 1.4621
 IR Inten    --     48.7033                65.2366                22.5174

                     67                     68                     69
                      A                      A                      A
 Frequencies --   1520.8729              1535.5834              1626.1423
 Red. masses --      1.5980                 3.2018                 8.0819
 Frc consts  --      2.1778                 4.4482                12.5916
 IR Inten    --    317.8048               177.3632                54.5674

                     70                     71                     72
                      A                      A                      A
 Frequencies --   1729.8710              2399.0708              3009.3500
 Red. masses --      4.5600                 1.1221                 1.0425
 Frc consts  --      8.0397                 3.8053                 5.5624
 IR Inten    --    868.0282              4822.2359               119.7030

                     73                     74                     75
                      A                      A                      A
 Frequencies --   3011.7081              3012.4330              3037.7562
 Red. masses --      1.0441                 1.0476                 1.0686
 Frc consts  --      5.5799                 5.6010                 5.8100
 IR Inten    --     44.8841                28.9783                 4.3781

                     76                     77                     78
                      A                      A                      A
 Frequencies --   3045.2932              3047.6371              3054.3696
 Red. masses --      1.0698                 1.0973                 1.0971
 Frc consts  --      5.8453                 6.0051                 6.0302
 IR Inten    --     46.3766                68.6140                11.2507

                     79                     80                     81
                      A                      A                      A
 Frequencies --   3065.7241              3104.7855              3121.4645
 Red. masses --      1.0916                 1.0955                 1.0926
 Frc consts  --      6.0450                 6.2220                 6.2724
 IR Inten    --     37.3113                 6.8026                43.9940

                     82                     83                     84
                      A                      A                      A
 Frequencies --   3126.1736              3126.7333              3129.2909
 Red. masses --      1.0959                 1.0955                 1.0955
 Frc consts  --      6.3102                 6.3104                 6.3204
 IR Inten    --      1.8438                22.6079                13.8818

 - Thermochemistry -
 -------------------
 Temperature   298.150 Kelvin.  Pressure   1.00000 Atm.
 Atom     1 has atomic number  6 and mass  12.00000

 Molecular mass:   222.08921 amu.
 Principal axes and moments of inertia in atomic units:
                           1         2         3
     Eigenvalues --  1953.583585431.289087140.02501
           X            0.71254  -0.69439   0.10052
           Y            0.69039   0.71944   0.07600
           Z           -0.12509   0.01525   0.99203
 This molecule is an asymmetric top.
 Rotational symmetry number  1.
 Warning -- assumption of classical behavior for rotation
           may cause significant error
 Rotational temperatures (Kelvin)      0.04434     0.01595     0.01213
 Rotational constants (GHZ):           0.92381     0.33229     0.25276
 Zero-point vibrational energy     620707.4 (Joules/Mol)
                                  148.35263 (Kcal/Mol)
 Warning -- explicit consideration of  25 degrees of freedom as
           vibrations may cause significant error
 Vibrational temperatures:     51.09    66.76    83.10    93.57   143.49
          (Kelvin)            146.12   156.52   175.82   195.55   270.83
                              309.07   336.31   440.02   460.13   496.91
                              520.75   539.22   586.87   627.49   648.76
                              670.31   691.52   800.60   836.30   872.62
                              902.86   963.23  1008.68  1038.54  1119.79
                             1177.45  1246.43  1258.63  1367.73  1397.54
                             1443.17  1456.00  1472.87  1484.58  1499.52
                             1520.65  1548.88  1587.52  1600.81  1669.21
                             1719.94  1768.80  1807.78  1871.11  1899.41
                             1924.56  1948.81  1987.18  1996.52  2001.94
                             2059.25  2065.15  2111.37  2114.15  2116.49
                             2130.03  2137.01  2139.37  2141.64  2150.29
                             2158.72  2188.20  2209.36  2339.66  2488.90
                             3451.73  4329.78  4333.18  4334.22  4370.65
                             4381.50  4384.87  4394.56  4410.89  4467.09
                             4491.09  4497.87  4498.67  4502.35

 Zero-point correction=                           0.236415 (Hartree/Particle)
 Thermal correction to Energy=                    0.252781
 Thermal correction to Enthalpy=                  0.253725
 Thermal correction to Gibbs Free Energy=         0.190694
 Sum of electronic and zero-point Energies=           -766.764373
 Sum of electronic and thermal Energies=              -766.748007
 Sum of electronic and thermal Enthalpies=            -766.747063
 Sum of electronic and thermal Free Energies=         -766.810094

                     E (Thermal)             CV                S
                      KCal/Mol        Cal/Mol-Kelvin    Cal/Mol-Kelvin
 Total                  158.622             59.457            132.659
 Electronic               0.000              0.000              1.377
 Translational            0.889              2.981             42.096
 Rotational               0.889              2.981             32.693
 Vibrational            156.845             53.496             56.492
 Vibration     1          0.594              1.982              5.495
 Vibration     2          0.595              1.979              4.965
 Vibration     3          0.596              1.974              4.532
 Vibration     4          0.597              1.971              4.298
 Vibration     5          0.604              1.949              3.460
 Vibration     6          0.604              1.948              3.424
 Vibration     7          0.606              1.942              3.290
 Vibration     8          0.610              1.931              3.065
 Vibration     9          0.614              1.917              2.861
 Vibration    10          0.633              1.856              2.245
 Vibration    11          0.645              1.818              2.002
 Vibration    12          0.654              1.789              1.850
 Vibration    13          0.696              1.663              1.385
 Vibration    14          0.706              1.636              1.311
 Vibration    15          0.724              1.585              1.187
 Vibration    16          0.736              1.551              1.114
 Vibration    17          0.746              1.524              1.060
 Vibration    18          0.772              1.453              0.934
 Vibration    19          0.797              1.391              0.839
 Vibration    20          0.810              1.359              0.793
 Vibration    21          0.823              1.326              0.749
 Vibration    22          0.837              1.293              0.708
 Vibration    23          0.912              1.126              0.531
 Vibration    24          0.938              1.072              0.483
 Vibration    25          0.965              1.018              0.439

 Optimization completed.
    -- Stationary point found.
 Normal termination of Gaussian 16 at Sat Feb 10 13:38:11 2024.
