 Gaussian 16, Revision A.03,
 Gaussian 16:  ES64L-G16RevA.03 25-Dec-2016

 ----------------------------------------------------------------------
 #P UB3LYP/6-311++G(d,p) nosym opt freq SCRF=(PCM,Solvent=n,n-DiMethylF
 ormamide)
 ----------------------------------------------------------------------

 -------
 Reduced
 -------
 Symbolic Z-matrix:
 Charge = -2 Multiplicity = 1

 SCF Done:  E(UB3LYP) =  -845.642120473     A.U. after   17 cycles
 SCF Done:  E(UB3LYP) =  -845.644615006     A.U. after   14 cycles
 SCF Done:  E(UB3LYP) =  -845.645161142     A.U. after   14 cycles
 SCF Done:  E(UB3LYP) =  -845.645244473     A.U. after   14 cycles
 SCF Done:  E(UB3LYP) =  -845.645265237     A.U. after   13 cycles
 SCF Done:  E(UB3LYP) =  -845.645268411     A.U. after   11 cycles
 SCF Done:  E(UB3LYP) =  -845.645269997     A.U. after   11 cycles
 SCF Done:  E(UB3LYP) =  -845.645270680     A.U. after   10 cycles
 SCF Done:  E(UB3LYP) =  -845.645271085     A.U. after   10 cycles
 SCF Done:  E(UB3LYP) =  -845.645271256     A.U. after   10 cycles
 SCF Done:  E(UB3LYP) =  -845.645271354     A.U. after    9 cycles
 SCF Done:  E(UB3LYP) =  -845.645271397     A.U. after    9 cycles
 SCF Done:  E(UB3LYP) =  -845.645271419     A.U. after    9 cycles
 Optimization completed.
    -- Stationary point found.
 Normal termination of Gaussian 16 at Sat Feb 10 13:20:24 2024.

 ----------------------------------------------------------------------
 #P Geom=AllCheck Guess=TCheck SCRF=Check GenChk UB3LYP/6-311++G(d,p) F
 req
 ----------------------------------------------------------------------

 Structure from the checkpoint file:  "091-an.chk"
 -------
 Reduced
 -------
 Charge = -2 Multiplicity = 1

                          Input orientation:
 ---------------------------------------------------------------------
 Center     Atomic      Atomic             Coordinates (Angstroms)
 Number     Number       Type             X           Y           Z
 ---------------------------------------------------------------------
      1          6           0       -1.065963    2.634847    0.560928
      2          6           0        0.261030    2.745090    0.037474
      3          6           0        0.956257    1.644685   -0.509125
      4          6           0        0.384036    0.334146   -0.567807
      5          6           0       -0.934343    0.230021   -0.033484
      6          6           0       -1.629306    1.326492    0.496127
      7          8           0       -1.736785    3.657851    1.048712
      8          8           0        1.012837   -0.712324   -1.063752
      9          8           0       -2.948640    1.127949    0.920531
     10          8           0       -1.551103   -1.025568    0.010704
     11          6           0       -3.113493    1.188444    2.335403
     12          6           0       -2.000060   -1.486342   -1.261326
     13          6           0        2.356679    1.818805   -1.060296
     14          6           0        0.897810    4.127767    0.069246
     15          6           0        1.731601    4.375183    1.305564
     16          6           0        2.959987    4.905125    1.409659
     17          6           0        3.791098    5.388404    0.246267
     18          6           0        3.622945    5.073220    2.757535
     19          1           0       -2.762571    2.149247    2.720858
     20          1           0       -2.570735    0.370510    2.827288
     21          1           0       -4.181290    1.078221    2.540359
     22          1           0       -2.396514   -2.494725   -1.118511
     23          1           0       -1.170235   -1.516239   -1.972533
     24          1           0       -2.798623   -0.841461   -1.650594
     25          1           0        3.015726    2.348034   -0.364241
     26          1           0        2.369678    2.391865   -1.998587
     27          1           0        2.785681    0.838221   -1.272482
     28          1           0        0.075837    4.853644    0.068769
     29          1           0        1.488135    4.304742   -0.832987
     30          1           0        1.243589    4.076737    2.233256
     31          1           0        3.316082    5.216846   -0.719423
     32          1           0        4.769748    4.893091    0.237545
     33          1           0        3.990628    6.463559    0.335951
     34          1           0        2.985011    4.717318    3.569796
     35          1           0        3.864875    6.126009    2.950181
     36          1           0        4.572107    4.524533    2.802659
 ---------------------------------------------------------------------

 SCF Done:  E(UB3LYP) =  -845.645271419     A.U. after    2 cycles

 Alpha  occ. eigenvalues --  -19.10651 -19.10613 -19.00527 -19.00395 -10.19032
 Alpha  occ. eigenvalues --  -10.19020 -10.16544 -10.16493 -10.16229 -10.15777
 Alpha  occ. eigenvalues --  -10.15723 -10.15376 -10.15373 -10.14725 -10.14058
 Alpha  occ. eigenvalues --  -10.13014 -10.12068 -10.11964  -1.02305  -1.00523
 Alpha  occ. eigenvalues --   -0.90939  -0.90567  -0.80348  -0.77873  -0.73665
 Alpha  occ. eigenvalues --   -0.70998  -0.68365  -0.67944  -0.67098  -0.64444
 Alpha  occ. eigenvalues --   -0.61064  -0.59973  -0.52927  -0.51997  -0.50156
 Alpha  occ. eigenvalues --   -0.47477  -0.46228  -0.45305  -0.44074  -0.43946
 Alpha  occ. eigenvalues --   -0.42526  -0.42274  -0.42094  -0.41570  -0.40571
 Alpha  occ. eigenvalues --   -0.38687  -0.37788  -0.37689  -0.36376  -0.36052
 Alpha  occ. eigenvalues --   -0.35819  -0.35340  -0.34695  -0.33795  -0.32685
 Alpha  occ. eigenvalues --   -0.32589  -0.31600  -0.30827  -0.30256  -0.29267
 Alpha  occ. eigenvalues --   -0.25035  -0.24883  -0.22552  -0.20776  -0.18605
 Alpha  occ. eigenvalues --   -0.18478  -0.18218  -0.11050
 Alpha virt. eigenvalues --   -0.00423   0.00396   0.01064   0.01635   0.01777
 Alpha virt. eigenvalues --    0.02402   0.02660   0.03327   0.03650   0.03853
 Alpha virt. eigenvalues --    0.04324   0.04508   0.04795   0.05415   0.05445

  Beta  occ. eigenvalues --  -19.10651 -19.10613 -19.00527 -19.00395 -10.19032
  Beta  occ. eigenvalues --  -10.19020 -10.16544 -10.16493 -10.16229 -10.15777
  Beta  occ. eigenvalues --  -10.15723 -10.15376 -10.15373 -10.14725 -10.14058
  Beta  occ. eigenvalues --  -10.13014 -10.12068 -10.11964  -1.02305  -1.00523
  Beta  occ. eigenvalues --   -0.90939  -0.90567  -0.80348  -0.77873  -0.73665
  Beta  occ. eigenvalues --   -0.70998  -0.68365  -0.67944  -0.67098  -0.64444
  Beta  occ. eigenvalues --   -0.61064  -0.59973  -0.52927  -0.51997  -0.50156
  Beta  occ. eigenvalues --   -0.47477  -0.46228  -0.45305  -0.44074  -0.43946
  Beta  occ. eigenvalues --   -0.42526  -0.42274  -0.42094  -0.41570  -0.40571
  Beta  occ. eigenvalues --   -0.38687  -0.37788  -0.37689  -0.36376  -0.36052
  Beta  occ. eigenvalues --   -0.35819  -0.35340  -0.34695  -0.33795  -0.32685
  Beta  occ. eigenvalues --   -0.32589  -0.31600  -0.30827  -0.30256  -0.29267
  Beta  occ. eigenvalues --   -0.25035  -0.24883  -0.22552  -0.20776  -0.18605
  Beta  occ. eigenvalues --   -0.18478  -0.18218  -0.11050
  Beta virt. eigenvalues --   -0.00423   0.00396   0.01064   0.01635   0.01777
  Beta virt. eigenvalues --    0.02402   0.02660   0.03327   0.03650   0.03853
  Beta virt. eigenvalues --    0.04324   0.04508   0.04795   0.05415   0.05445

 Mulliken charges and spin densities:
               1          2
     1  C   -0.748965  -0.000000
     2  C    0.926213  -0.000000
     3  C    0.703251  -0.000000
     4  C   -0.741150   0.000000
     5  C   -0.178661   0.000000
     6  C   -0.209180  -0.000000
     7  O   -0.714151  -0.000000
     8  O   -0.740513  -0.000000
     9  O   -0.210974   0.000000
    10  O   -0.211214  -0.000000
    11  C   -0.224838   0.000000
    12  C   -0.244704   0.000000
    13  C   -0.681930   0.000000
    14  C    0.112999  -0.000000
    15  C   -0.693971  -0.000000
    16  C    0.490415   0.000000
    17  C   -0.677145   0.000000
    18  C   -0.614472   0.000000
    19  H    0.161363   0.000000
    20  H    0.121510  -0.000000
    21  H    0.133226  -0.000000
    22  H    0.136768   0.000000
    23  H    0.164763   0.000000
    24  H    0.125220  -0.000000
    25  H    0.152556  -0.000000
    26  H    0.141812   0.000000
    27  H    0.166654  -0.000000
    28  H    0.177731  -0.000000
    29  H    0.138558  -0.000000
    30  H    0.188302  -0.000000
    31  H    0.132729  -0.000000
    32  H    0.142209  -0.000000
    33  H    0.144594  -0.000000
    34  H    0.148452   0.000000
    35  H    0.138120  -0.000000
    36  H    0.144423  -0.000000
 Sum of Mulliken charges =  -2.00000   0.00000

 Dipole moment (field-independent basis, Debye):
    X=              4.7768    Y=            -13.0052    Z=             -0.6955  Tot=             13.8722
 Quadrupole moment (field-independent basis, Debye-Ang):
   XX=           -143.6000   YY=           -180.4480   ZZ=           -122.7569
   XY=             27.6049   XZ=             11.0411   YZ=            -16.1590

  Exact polarizability: 331.461  30.290 316.922 -28.721  31.340 236.585
 Approx polarizability: 347.402  17.637 335.357 -33.542  28.746 249.520

                      1                      2                      3
                      A                      A                      A
 Frequencies --     34.1260                37.6141                53.2883
 Red. masses --      3.5962                 4.0140                 2.7733
 Frc consts  --      0.0025                 0.0033                 0.0046
 IR Inten    --      3.0479                 3.8897                 0.7152

                      4                      5                      6
                      A                      A                      A
 Frequencies --     61.0436                74.9136                88.8836
 Red. masses --      2.9323                 3.0518                 3.8883
 Frc consts  --      0.0064                 0.0101                 0.0181
 IR Inten    --     23.3901                 4.1104                 4.8382

                      7                      8                      9
                      A                      A                      A
 Frequencies --    107.5549               120.9241               139.0034
 Red. masses --      2.7574                 1.2655                 1.2536
 Frc consts  --      0.0188                 0.0109                 0.0143
 IR Inten    --     19.7084                 7.4866                 1.0860

                     10                     11                     12
                      A                      A                      A
 Frequencies --    151.4183               173.2476               185.4410
 Red. masses --      2.1437                 2.4610                 1.3456
 Frc consts  --      0.0290                 0.0435                 0.0273
 IR Inten    --      2.4586                 6.1056                 0.1770

                     13                     14                     15
                      A                      A                      A
 Frequencies --    187.6282               189.3139               208.9040
 Red. masses --      1.1823                 1.3401                 2.7636
 Frc consts  --      0.0245                 0.0283                 0.0711
 IR Inten    --      1.1481                 2.9323                 4.0661

                     16                     17                     18
                      A                      A                      A
 Frequencies --    250.7907               271.8774               289.6821
 Red. masses --      2.4475                 4.2366                 3.4541
 Frc consts  --      0.0907                 0.1845                 0.1708
 IR Inten    --      2.2643                10.1332                 3.3278

                     19                     20                     21
                      A                      A                      A
 Frequencies --    330.9513               343.1326               345.1728
 Red. masses --      3.3787                 6.5884                 6.8088
 Frc consts  --      0.2180                 0.4570                 0.4780
 IR Inten    --     16.0179                 1.0354                 0.6925

                     22                     23                     24
                      A                      A                      A
 Frequencies --    353.6020               377.7033               395.4960
 Red. masses --      2.5964                 4.2811                 3.4992
 Frc consts  --      0.1913                 0.3598                 0.3225
 IR Inten    --      4.0287                14.3795                 1.3497

                     25                     26                     27
                      A                      A                      A
 Frequencies --    411.8157               416.3429               450.9872
 Red. masses --      4.5718                 5.0707                 2.6302
 Frc consts  --      0.4568                 0.5179                 0.3152
 IR Inten    --      1.0558                 1.4251                14.0794

                     28                     29                     30
                      A                      A                      A
 Frequencies --    477.2532               511.0983               526.6600
 Red. masses --      6.2526                 3.0566                 6.0985
 Frc consts  --      0.8391                 0.4704                 0.9966
 IR Inten    --     13.3209                 7.0196                 9.2169

                     31                     32                     33
                      A                      A                      A
 Frequencies --    584.7441               628.3734               663.5421
 Red. masses --      5.8123                 4.7296                 5.9354
 Frc consts  --      1.1709                 1.1003                 1.5397
 IR Inten    --     17.6747                50.1810                 8.7043

                     34                     35                     36
                      A                      A                      A
 Frequencies --    705.5086               737.8135               778.0541
 Red. masses --      3.2728                 8.3062                 5.7328
 Frc consts  --      0.9598                 2.6641                 2.0447
 IR Inten    --      0.8970                 9.6496                 1.4364

                     37                     38                     39
                      A                      A                      A
 Frequencies --    796.3300               846.1107               889.2254
 Red. masses --      2.5725                 2.2847                 2.3015
 Frc consts  --      0.9612                 0.9637                 1.0722
 IR Inten    --      1.4316                17.1172                44.3504

                     40                     41                     42
                      A                      A                      A
 Frequencies --    918.5933               949.2285               957.8734
 Red. masses --      4.1493                 2.3865                 1.4031
 Frc consts  --      2.0629                 1.2669                 0.7585
 IR Inten    --    186.4395                56.4711                 0.6545

                     43                     44                     45
                      A                      A                      A
 Frequencies --    981.2631              1012.9906              1016.6720
 Red. masses --      4.3352                 1.5416                 1.7924
 Frc consts  --      2.4594                 0.9320                 1.0916
 IR Inten    --     46.6879                19.1715                 3.2864

                     46                     47                     48
                      A                      A                      A
 Frequencies --   1040.6781              1043.5273              1064.6981
 Red. masses --      4.4861                 1.5901                 2.4846
 Frc consts  --      2.8626                 1.0202                 1.6594
 IR Inten    --     75.6850                 1.2373               136.0073

                     49                     50                     51
                      A                      A                      A
 Frequencies --   1087.3825              1096.3641              1113.5898
 Red. masses --      9.7313                 1.6540                 2.0074
 Frc consts  --      6.7793                 1.1714                 1.4667
 IR Inten    --    419.2431                 0.0376                90.3416

                     52                     53                     54
                      A                      A                      A
 Frequencies --   1139.0555              1155.1129              1159.3716
 Red. masses --      5.7331                 1.2924                 1.2702
 Frc consts  --      4.3826                 1.0160                 1.0060
 IR Inten    --    207.3798                26.0275                14.2776

                     55                     56                     57
                      A                      A                      A
 Frequencies --   1166.4565              1203.6729              1208.3752
 Red. masses --      2.2809                 2.6548                 1.4943
 Frc consts  --      1.8285                 2.2662                 1.2856
 IR Inten    --    191.3925                88.1752                12.2484

                     58                     59                     60
                      A                      A                      A
 Frequencies --   1215.6428              1254.7390              1270.9345
 Red. masses --      1.6980                 1.7043                 3.2339
 Frc consts  --      1.4784                 1.5809                 3.0777
 IR Inten    --    110.1792                41.6404               183.5379

                     61                     62                     63
                      A                      A                      A
 Frequencies --   1309.9813              1353.3869              1366.5187
 Red. masses --      1.6470                 4.1039                 1.6542
 Frc consts  --      1.6652                 4.4288                 1.8199
 IR Inten    --     11.5333               101.6614               249.6487

                     64                     65                     66
                      A                      A                      A
 Frequencies --   1373.1614              1392.9103              1401.0804
 Red. masses --      1.6965                 3.0490                 1.3541
 Frc consts  --      1.8848                 3.4854                 1.5661
 IR Inten    --    273.8517              1134.6410                21.5722

                     67                     68                     69
                      A                      A                      A
 Frequencies --   1408.4282              1423.2075              1444.1436
 Red. masses --      1.2597                 2.6570                 1.2483
 Frc consts  --      1.4722                 3.1709                 1.5339
 IR Inten    --      5.4526                17.5806                34.5095

                     70                     71                     72
                      A                      A                      A
 Frequencies --   1455.0850              1458.9791              1463.4183
 Red. masses --      1.3007                 1.2412                 1.0471
 Frc consts  --      1.6226                 1.5567                 1.3212
 IR Inten    --      0.9800                11.1594                 0.2474

                     73                     74                     75
                      A                      A                      A
 Frequencies --   1470.8651              1474.0708              1474.4203
 Red. masses --      1.1096                 1.0894                 1.1370
 Frc consts  --      1.4144                 1.3947                 1.4563
 IR Inten    --     23.6684                20.9483                12.6070

                     76                     77                     78
                      A                      A                      A
 Frequencies --   1479.1749              1480.5057              1483.8104
 Red. masses --      1.0463                 1.0612                 1.0826
 Frc consts  --      1.3488                 1.3705                 1.4043
 IR Inten    --     22.3519                16.3960                 2.4352

                     79                     80                     81
                      A                      A                      A
 Frequencies --   1493.8592              1499.8346              1500.3697
 Red. masses --      1.0838                 1.0692                 1.0535
 Frc consts  --      1.4250                 1.4170                 1.3973
 IR Inten    --     10.3867                15.9507                11.5074

                     82                     83                     84
                      A                      A                      A
 Frequencies --   1508.8362              1588.6381              1708.8040
 Red. masses --      3.4228                 8.6029                 6.3913
 Frc consts  --      4.5912                12.7921                10.9957
 IR Inten    --      2.1542                 0.6037                 1.0830

                     85                     86                     87
                      A                      A                      A
 Frequencies --   2971.8970              2981.3744              2982.5338
 Red. masses --      1.0562                 1.0398                 1.0390
 Frc consts  --      5.4960                 5.4453                 5.4455
 IR Inten    --    178.6585               166.9915               131.9602

                     88                     89                     90
                      A                      A                      A
 Frequencies --   2993.2574              3001.1252              3007.8613
 Red. masses --      1.0387                 1.0417                 1.0640
 Frc consts  --      5.4830                 5.5281                 5.6718
 IR Inten    --     68.7798               119.7734                80.3814

                     91                     92                     93
                      A                      A                      A
 Frequencies --   3030.4930              3032.0890              3034.8973
 Red. masses --      1.0992                 1.0811                 1.0987
 Frc consts  --      5.9478                 5.8562                 5.9622
 IR Inten    --     47.7601                71.4947                51.4241

                     94                     95                     96
                      A                      A                      A
 Frequencies --   3054.3103              3055.4279              3062.9297
 Red. masses --      1.0928                 1.0910                 1.0936
 Frc consts  --      6.0063                 6.0010                 6.0446
 IR Inten    --     92.1111                69.2564                32.9889

                     97                     98                     99
                      A                      A                      A
 Frequencies --   3087.0856              3088.4762              3089.6155
 Red. masses --      1.0982                 1.1050                 1.1053
 Frc consts  --      6.1664                 6.2101                 6.2164
 IR Inten    --     38.3131                59.9961                61.7061

                    100                    101                    102
                      A                      A                      A
 Frequencies --   3096.6575              3105.3859              3114.5375
 Red. masses --      1.0955                 1.0871                 1.0941
 Frc consts  --      6.1896                 6.1764                 6.2533
 IR Inten    --     24.9971                59.2008                45.3806

 - Thermochemistry -
 -------------------
 Temperature   298.150 Kelvin.  Pressure   1.00000 Atm.
 Atom     1 has atomic number  6 and mass  12.00000

 Molecular mass:   250.12051 amu.
 Principal axes and moments of inertia in atomic units:
                           1         2         3
     Eigenvalues --  2668.505137381.664979180.85444
           X            0.68428   0.64856   0.33336
           Y            0.71242  -0.49702  -0.49541
           Z            0.15561  -0.57649   0.80215
 This molecule is an asymmetric top.
 Rotational symmetry number  1.
 Warning -- assumption of classical behavior for rotation
           may cause significant error
 Rotational temperatures (Kelvin)      0.03246     0.01173     0.00943
 Rotational constants (GHZ):           0.67631     0.24449     0.19658
 Zero-point vibrational energy     759959.1 (Joules/Mol)
                                  181.63458 (Kcal/Mol)
 Warning -- explicit consideration of  31 degrees of freedom as
           vibrations may cause significant error
 Vibrational temperatures:     49.10    54.12    76.67    87.83   107.78
          (Kelvin)            127.88   154.75   173.98   199.99   217.86
                              249.26   266.81   269.96   272.38   300.57
                              360.83   391.17   416.79   476.17   493.69
                              496.63   508.75   543.43   569.03   592.51
                              599.02   648.87   686.66   735.36   757.75
                              841.32   904.09   954.69  1015.07  1061.55
                             1119.45  1145.74  1217.36  1279.40  1321.65
                             1365.73  1378.17  1411.82  1457.47  1462.76
                             1497.30  1501.40  1531.86  1564.50  1577.42
                             1602.21  1638.85  1661.95  1668.08  1678.27
                             1731.82  1738.58  1749.04  1805.29  1828.59
                             1884.77  1947.22  1966.12  1975.67  2004.09
                             2015.84  2026.41  2047.68  2077.80  2093.54
                             2099.15  2105.53  2116.25  2120.86  2121.36
                             2128.20  2130.12  2134.87  2149.33  2157.93
                             2158.70  2170.88  2285.70  2458.59  4275.90
                             4289.53  4291.20  4306.63  4317.95  4327.64
                             4360.20  4362.50  4366.54  4394.47  4396.08
                             4406.87  4441.63  4443.63  4445.27  4455.40
                             4467.96  4481.12

 Zero-point correction=                           0.289453 (Hartree/Particle)
 Thermal correction to Energy=                    0.309474
 Thermal correction to Enthalpy=                  0.310418
 Thermal correction to Gibbs Free Energy=         0.240399
 Sum of electronic and zero-point Energies=           -845.355818
 Sum of electronic and thermal Energies=              -845.335798
 Sum of electronic and thermal Enthalpies=            -845.334854
 Sum of electronic and thermal Free Energies=         -845.404872

                     E (Thermal)             CV                S
                      KCal/Mol        Cal/Mol-Kelvin    Cal/Mol-Kelvin
 Total                  194.198             72.502            147.366
 Electronic               0.000              0.000              0.000
 Translational            0.889              2.981             42.451
 Rotational               0.889              2.981             33.558
 Vibrational            192.420             66.540             71.357
 Vibration     1          0.594              1.983              5.574
 Vibration     2          0.594              1.982              5.381
 Vibration     3          0.596              1.976              4.691
 Vibration     4          0.597              1.973              4.423
 Vibration     5          0.599              1.966              4.020
 Vibration     6          0.602              1.957              3.684
 Vibration     7          0.606              1.943              3.313
 Vibration     8          0.609              1.932              3.086
 Vibration     9          0.615              1.914              2.818
 Vibration    10          0.619              1.901              2.654
 Vibration    11          0.627              1.875              2.400
 Vibration    12          0.632              1.860              2.273
 Vibration    13          0.632              1.857              2.251
 Vibration    14          0.633              1.855              2.235
 Vibration    15          0.642              1.827              2.053
 Vibration    16          0.663              1.761              1.725
 Vibration    17          0.675              1.725              1.584
 Vibration    18          0.686              1.693              1.476
 Vibration    19          0.713              1.614              1.255
 Vibration    20          0.722              1.589              1.198
 Vibration    21          0.724              1.585              1.188
 Vibration    22          0.730              1.568              1.150
 Vibration    23          0.748              1.518              1.048
 Vibration    24          0.762              1.480              0.979
 Vibration    25          0.776              1.445              0.920
 Vibration    26          0.780              1.435              0.904
 Vibration    27          0.810              1.359              0.793
 Vibration    28          0.834              1.301              0.718
 Vibration    29          0.866              1.225              0.631
 Vibration    30          0.882              1.191              0.595
 Vibration    31          0.942              1.064              0.477

                           ! Non-Optimized Parameters !
 Normal termination of Gaussian 16 at Sat Feb 10 14:18:56 2024.
