 Q-Chem 5.4, Q-Chem, Inc., Pleasanton, CA (2021)
 Q-Chem 5.4.0 for Intel X86 EM64T Linux

User input:
--------------------------------------------------------------
$molecule
0 1
C                  2.4581160000     -4.7919990000      2.0547570000
C                  2.4724640000     -3.9176210000      0.8524100000
C                  2.1099880000     -2.6257130000      0.8064320000
C                  1.6471230000     -2.0179820000      2.1005710000
C                  1.6502640000     -2.8891970000      3.3095270000
C                  2.0035300000     -4.1808550000      3.3441030000
O                  2.8007800000     -5.9535540000      1.9941880000
O                  1.2707900000     -0.8679310000      2.1773970000
C                  2.0005700000     -5.0668490000      4.5476250000
C                  2.1390810000     -1.7790770000     -0.4495320000
C                  0.7250800000     -1.3170690000     -0.8602740000
C                  3.1223800000     -0.5971210000     -0.3192750000
N                  2.9422550000     -4.6166740000     -0.3701860000
N                  1.2132570000     -2.1954590000      4.5447820000
H                  1.6330710000     -4.5552960000      5.4352070000
H                  3.0114730000     -5.4376940000      4.7365830000
H                  1.3772970000     -5.9444310000      4.3585840000
H                  2.5125770000     -2.4194500000     -1.2523250000
H                  0.7838930000     -0.8117730000     -1.8274350000
H                  0.3060180000     -0.6202930000     -0.1344290000
H                  0.0459290000     -2.1662290000     -0.9684150000
H                  3.1952540000     -0.0880020000     -1.2834490000
H                  4.1232770000     -0.9414640000     -0.0477480000
H                  2.7841060000      0.1244440000      0.4243630000
O                  4.1394420000     -4.5825870000     -0.5920650000
O                  2.0912570000     -5.1673070000     -1.0455900000
O                  0.0559720000     -2.3588400000      4.8902810000
O                  2.0543750000     -1.5211890000      5.1109550000
$end
$rem
MAX_SCF_CYCLES=200
BASIS  =  6-311++G(d,p)
GUI  =  2
JOB_TYPE  =  SP
METHOD  =  B3LYP
SOLVENT_METHOD = COSMO
$end
$solvent
dielectric 37.219
opticaldielectric 1.43
$end

--------------------------------------------------------------

             Standard Nuclear Orientation (Angstroms)
    I     Atom           X                Y                Z
 ----------------------------------------------------------------
    1      C       0.0337659190    -1.7667335249    -0.0051293306
    2      C      -1.0486480813    -0.7475374435    -0.0057123260
    3      C      -0.8839573137     0.5848530489     0.0061886998
    4      C       0.5348754668     1.0798657625     0.0220846818
    5      C       1.6199000912     0.0585946851     0.0040014616
    6      C       1.4463548326    -1.2696574923     0.0030258439
    7      O      -0.2168227710    -2.9531007369    -0.0110779048
    8      O       0.8079555069     2.2606156446     0.0595422770
    9      C       2.5261246490    -2.3028576138    -0.0043217206
   10      C      -2.0243653649     1.5821197678     0.0098020593
   11      C      -2.0467160492     2.4201318596     1.3054854279
   12      C      -2.0143517765     2.4662206904    -1.2547646974
   13      N      -2.4086777729    -1.3427458322    -0.0185914474
   14      N       2.9840017758     0.6390771815    -0.0152108041
   15      H       3.5200520286    -1.8606497290     0.0289099544
   16      H       2.4369084875    -2.9249535003    -0.8988569070
   17      H       2.4043936602    -2.9702974514     0.8524521869
   18      H      -2.9500687757     1.0019167534    -0.0123586997
   19      H      -2.9475307495     3.0387334275     1.3124418946
   20      H      -1.1793759395     3.0768993209     1.3713516104
   21      H      -2.0743754463     1.7807741896     2.1911885327
   22      H      -2.9151952536     3.0847371558    -1.2626824079
   23      H      -2.0187897906     1.8593420858    -2.1634849411
   24      H      -1.1462944304     3.1251141013    -1.2752278391
   25      O      -2.8999252449    -1.5572414448    -1.1123539813
   26      O      -2.9162429002    -1.5687722254     1.0653156386
   27      O       3.5730711319     0.7012504201     1.0499198280
   28      O       3.4001035213     1.0027565628    -1.1002306352
 ----------------------------------------------------------------

   10    -947.9646491437      4.62e-06  Convergence criterion met
 Total energy in the final basis set =     -947.9646491437
    5    -947.9838263584      8.10e-06  Convergence criterion met
 Total energy in the final basis set =     -947.9838263584

                    Orbital Energies (a.u.)
 --------------------------------------------------------------

 Alpha MOs
 -- Occupied --
-19.2054 -19.2053 -19.2048 -19.2048 -19.1741 -19.1730 -14.5942 -14.5938
-10.3272 -10.3261 -10.2824 -10.2810 -10.2612 -10.2589 -10.2123 -10.1955
-10.1693 -10.1693  -1.2827  -1.2821  -1.1113  -1.1113  -1.1101  -1.1083
 -0.9239  -0.8882  -0.8217  -0.7993  -0.7740  -0.7243  -0.6975  -0.6833
 -0.6555  -0.6256  -0.6169  -0.6005  -0.5969  -0.5705  -0.5634  -0.5625
 -0.5607  -0.5342  -0.4995  -0.4953  -0.4922  -0.4735  -0.4599  -0.4516
 -0.4450  -0.4357  -0.4243  -0.4194  -0.3938  -0.3769  -0.3701  -0.3655
 -0.3647  -0.3616  -0.3601  -0.3600  -0.3581  -0.3554  -0.3248  -0.3231
 -0.3073  -0.3065

          Ground-State Mulliken Net Atomic Charges

     Atom                 Charge (a.u.)
  ----------------------------------------
      1 C                    -0.435645
      2 C                    -0.224932
      3 C                     1.323078
      4 C                    -0.417262
      5 C                    -0.315118
      6 C                     0.796548
      7 O                    -0.214236
      8 O                    -0.190681
      9 C                    -0.501325
     10 C                    -0.185699
     11 C                    -0.661191
     12 C                    -0.670557
     13 N                    -0.217427
     14 N                    -0.220314
     15 H                     0.193436
     16 H                     0.236280
     17 H                     0.233586
     18 H                     0.238863
     19 H                     0.184714
     20 H                     0.200859
     21 H                     0.162858
     22 H                     0.185323
     23 H                     0.163064
     24 H                     0.199603
     25 O                     0.035582
     26 O                     0.036978
     27 O                     0.029250
     28 O                     0.034363
  ----------------------------------------
  Sum of atomic charges =     0.000000

                    Cartesian Multipole Moments
 -----------------------------------------------------------------
    Charge (ESU x 10^10)
                 0.0000
    Dipole Moment (Debye)
         X      -0.2854      Y       0.3567      Z       0.0119
       Tot       0.4570
    Quadrupole Moments (Debye-Ang)
        XX    -121.3265     XY     -27.4341     YY    -112.9013
        XZ      -0.4569     YZ       0.4286     ZZ    -107.5301

 Total job time:  59.27s(wall), 445.72s(cpu)
        *  Thank you very much for using Q-Chem.  Have a nice day.  *
