 Gaussian 16, Revision A.03,
 Gaussian 16:  ES64L-G16RevA.03 25-Dec-2016

 --------------------------------------
 #P UB3LYP/6-311++G(d,p) nosym opt freq
 --------------------------------------

 --------
 Oxidized
 --------
 Symbolic Z-matrix:
 Charge =  0 Multiplicity = 1

 SCF Done:  E(UB3LYP) =  -947.964777112     A.U. after   17 cycles
 Optimization completed.
    -- Stationary point found.
 Normal termination of Gaussian 16 at Sat Jan  6 05:47:02 2024.

 ----------------------------------------------------------------------
 #P Geom=AllCheck Guess=TCheck SCRF=Check GenChk UB3LYP/6-311++G(d,p) F
 req
 ----------------------------------------------------------------------

 Structure from the checkpoint file:  "035.chk"
 --------
 Oxidized
 --------
 Charge =  0 Multiplicity = 1

                          Input orientation:
 ---------------------------------------------------------------------
 Center     Atomic      Atomic             Coordinates (Angstroms)
 Number     Number       Type             X           Y           Z
 ---------------------------------------------------------------------
      1          6           0        2.458116   -4.791999    2.054757
      2          6           0        2.472464   -3.917621    0.852410
      3          6           0        2.109988   -2.625713    0.806432
      4          6           0        1.647123   -2.017982    2.100571
      5          6           0        1.650264   -2.889197    3.309527
      6          6           0        2.003530   -4.180855    3.344103
      7          8           0        2.800780   -5.953554    1.994188
      8          8           0        1.270790   -0.867931    2.177397
      9          6           0        2.000570   -5.066849    4.547625
     10          6           0        2.139081   -1.779077   -0.449532
     11          6           0        0.725080   -1.317069   -0.860274
     12          6           0        3.122380   -0.597121   -0.319275
     13          7           0        2.942255   -4.616674   -0.370186
     14          7           0        1.213257   -2.195459    4.544782
     15          1           0        1.633071   -4.555296    5.435207
     16          1           0        3.011473   -5.437694    4.736583
     17          1           0        1.377297   -5.944431    4.358584
     18          1           0        2.512577   -2.419450   -1.252325
     19          1           0        0.783893   -0.811773   -1.827435
     20          1           0        0.306018   -0.620293   -0.134429
     21          1           0        0.045929   -2.166229   -0.968415
     22          1           0        3.195254   -0.088002   -1.283449
     23          1           0        4.123277   -0.941464   -0.047748
     24          1           0        2.784106    0.124444    0.424363
     25          8           0        4.139442   -4.582587   -0.592065
     26          8           0        2.091257   -5.167307   -1.045590
     27          8           0        0.055972   -2.358840    4.890281
     28          8           0        2.054375   -1.521189    5.110955
 ---------------------------------------------------------------------

 SCF Done:  E(UB3LYP) =  -947.964777111     A.U. after    1 cycles

 Alpha  occ. eigenvalues --  -19.20197 -19.20149 -19.20142 -19.20140 -19.18217
 Alpha  occ. eigenvalues --  -19.18179 -14.59205 -14.59148 -10.33565 -10.33389
 Alpha  occ. eigenvalues --  -10.29336 -10.29285 -10.27305 -10.26915 -10.22864
 Alpha  occ. eigenvalues --  -10.21829 -10.18763 -10.18758  -1.27993  -1.27949
 Alpha  occ. eigenvalues --   -1.11861  -1.11654  -1.10790  -1.10759  -0.93488
 Alpha  occ. eigenvalues --   -0.89818  -0.83445  -0.81039  -0.78270  -0.74001
 Alpha  occ. eigenvalues --   -0.71566  -0.68779  -0.66898  -0.62632  -0.62328
 Alpha  occ. eigenvalues --   -0.60951  -0.59498  -0.57735  -0.56347  -0.55680
 Alpha  occ. eigenvalues --   -0.55556  -0.53797  -0.50706  -0.50537  -0.50184
 Alpha  occ. eigenvalues --   -0.48749  -0.47300  -0.46878  -0.46002  -0.45216
 Alpha  occ. eigenvalues --   -0.44129  -0.44020  -0.41185  -0.39362  -0.38309
 Alpha  occ. eigenvalues --   -0.37855  -0.36894  -0.36538  -0.35870  -0.35637
 Alpha  occ. eigenvalues --   -0.35591  -0.35242  -0.33103  -0.32865  -0.31399
 Alpha  occ. eigenvalues --   -0.31361
 Alpha virt. eigenvalues --   -0.17432  -0.11593  -0.11322  -0.06941  -0.04464
 Alpha virt. eigenvalues --   -0.02336  -0.01080   0.00615   0.00937   0.01403
 Alpha virt. eigenvalues --    0.02393   0.02775   0.03448   0.04137   0.04296

  Beta  occ. eigenvalues --  -19.20197 -19.20149 -19.20142 -19.20140 -19.18217
  Beta  occ. eigenvalues --  -19.18179 -14.59205 -14.59148 -10.33565 -10.33389
  Beta  occ. eigenvalues --  -10.29336 -10.29285 -10.27305 -10.26915 -10.22864
  Beta  occ. eigenvalues --  -10.21829 -10.18763 -10.18758  -1.27993  -1.27949
  Beta  occ. eigenvalues --   -1.11861  -1.11654  -1.10790  -1.10759  -0.93488
  Beta  occ. eigenvalues --   -0.89818  -0.83445  -0.81039  -0.78270  -0.74001
  Beta  occ. eigenvalues --   -0.71566  -0.68779  -0.66898  -0.62632  -0.62328
  Beta  occ. eigenvalues --   -0.60951  -0.59498  -0.57735  -0.56347  -0.55680
  Beta  occ. eigenvalues --   -0.55556  -0.53797  -0.50706  -0.50537  -0.50184
  Beta  occ. eigenvalues --   -0.48749  -0.47300  -0.46878  -0.46002  -0.45216
  Beta  occ. eigenvalues --   -0.44129  -0.44020  -0.41185  -0.39362  -0.38309
  Beta  occ. eigenvalues --   -0.37855  -0.36894  -0.36538  -0.35870  -0.35637
  Beta  occ. eigenvalues --   -0.35591  -0.35242  -0.33103  -0.32865  -0.31399
  Beta  occ. eigenvalues --   -0.31361
  Beta virt. eigenvalues --   -0.17432  -0.11593  -0.11322  -0.06941  -0.04464
  Beta virt. eigenvalues --   -0.02336  -0.01080   0.00615   0.00937   0.01403
  Beta virt. eigenvalues --    0.02393   0.02775   0.03448   0.04137   0.04296

 Mulliken charges and spin densities:
               1          2
     1  C   -0.473757  -0.000000
     2  C   -0.206888  -0.000000
     3  C    1.265382  -0.000000
     4  C   -0.467256   0.000000
     5  C   -0.332219  -0.000000
     6  C    0.758348   0.000000
     7  O   -0.158568   0.000000
     8  O   -0.139506   0.000000
     9  C   -0.443019  -0.000000
    10  C   -0.219881   0.000000
    11  C   -0.612470   0.000000
    12  C   -0.620015  -0.000000
    13  N   -0.265976  -0.000000
    14  N   -0.282103   0.000000
    15  H    0.180204  -0.000000
    16  H    0.211272  -0.000000
    17  H    0.210899  -0.000000
    18  H    0.214524  -0.000000
    19  H    0.163767  -0.000000
    20  H    0.204858   0.000000
    21  H    0.152066  -0.000000
    22  H    0.164431  -0.000000
    23  H    0.151604  -0.000000
    24  H    0.204112   0.000000
    25  O    0.084436   0.000000
    26  O    0.086303   0.000000
    27  O    0.078902   0.000000
    28  O    0.090551   0.000000
 Sum of Mulliken charges =  -0.00000  -0.00000

 Dipole moment (field-independent basis, Debye):
    X=             -0.0558    Y=              0.4021    Z=             -0.3041  Tot=              0.5072
 Quadrupole moment (field-independent basis, Debye-Ang):
   XX=           -110.9753   YY=           -117.5013   ZZ=           -112.2854
   XY=              7.3302   XZ=              6.4743   YZ=            -19.5586

  Exact polarizability: 127.854 -16.152 184.711  -8.405  -2.523 159.497
 Approx polarizability: 244.065 -29.739 348.284  -1.053  13.805 202.978

                      1                      2                      3
                      A                      A                      A
 Frequencies --     27.0568                36.6122                52.2105
 Red. masses --     10.3971                10.8853                 5.4567
 Frc consts  --      0.0045                 0.0086                 0.0088
 IR Inten    --      0.0210                 0.0132                 0.0126

                      4                      5                      6
                      A                      A                      A
 Frequencies --     57.4592                63.1889                73.5141
 Red. masses --      4.6133                 2.4910                 1.2627
 Frc consts  --      0.0090                 0.0059                 0.0040
 IR Inten    --      4.7943                 0.0059                 0.1261

                      7                      8                      9
                      A                      A                      A
 Frequencies --     93.0789               137.9997               143.3427
 Red. masses --      7.3589                 5.9031                 4.7479
 Frc consts  --      0.0376                 0.0662                 0.0575
 IR Inten    --      3.0545                 3.1668                 3.1214

                     10                     11                     12
                      A                      A                      A
 Frequencies --    148.1644               176.2386               208.5116
 Red. masses --      7.7442                 5.8161                 5.1615
 Frc consts  --      0.1002                 0.1064                 0.1322
 IR Inten    --      4.6417                 0.1291                 1.5355

                     13                     14                     15
                      A                      A                      A
 Frequencies --    215.0566               235.3793               242.4288
 Red. masses --      1.6400                 1.0616                 2.1431
 Frc consts  --      0.0447                 0.0347                 0.0742
 IR Inten    --      0.2277                 0.0864                 0.1166

                     16                     17                     18
                      A                      A                      A
 Frequencies --    245.3035               273.4629               316.3352
 Red. masses --      6.3702                 3.4848                 4.7038
 Frc consts  --      0.2258                 0.1535                 0.2773
 IR Inten    --      0.4545                 0.0810                 0.7657

                     19                     20                     21
                      A                      A                      A
 Frequencies --    358.3198               361.8546               414.0168
 Red. masses --      8.4843                 6.9535                 3.4341
 Frc consts  --      0.6418                 0.5364                 0.3468
 IR Inten    --      5.0351                 2.6753                 0.0985

                     22                     23                     24
                      A                      A                      A
 Frequencies --    456.6227               466.2609               475.2183
 Red. masses --      3.9771                 5.8915                 6.3848
 Frc consts  --      0.4886                 0.7546                 0.8495
 IR Inten    --      0.1081                 0.7246                25.6012

                     25                     26                     27
                      A                      A                      A
 Frequencies --    515.6330               578.2904               610.5643
 Red. masses --      6.4200                11.6040                 7.7945
 Frc consts  --      1.0057                 2.2864                 1.7120
 IR Inten    --      0.2663                 0.1106                 0.6501

                     28                     29                     30
                      A                      A                      A
 Frequencies --    648.4415               663.6844               737.9284
 Red. masses --      7.2406                 7.7319                 5.7742
 Frc consts  --      1.7938                 2.0066                 1.8526
 IR Inten    --      3.9819                 4.9956                62.2274

                     31                     32                     33
                      A                      A                      A
 Frequencies --    755.9140               767.8513               783.5570
 Red. masses --     10.1750                11.1842                 9.5725
 Frc consts  --      3.4256                 3.8852                 3.4627
 IR Inten    --      6.7039                15.5804                 1.6793

                     34                     35                     36
                      A                      A                      A
 Frequencies --    825.7467               854.1530               891.7541
 Red. masses --      5.0683                 3.8631                 5.3007
 Frc consts  --      2.0361                 1.6606                 2.4836
 IR Inten    --      9.5282                 4.7271                37.6769

                     37                     38                     39
                      A                      A                      A
 Frequencies --    941.3037               953.0994               962.4241
 Red. masses --      1.1564                 8.2018                 3.4387
 Frc consts  --      0.6037                 4.3897                 1.8766
 IR Inten    --      0.8204                 0.4167                11.6021

                     40                     41                     42
                      A                      A                      A
 Frequencies --    969.6060              1042.6591              1044.4706
 Red. masses --      1.5427                 3.0994                 1.5301
 Frc consts  --      0.8545                 1.9853                 0.9835
 IR Inten    --      0.2601                 9.5386                 0.2307

                     43                     44                     45
                      A                      A                      A
 Frequencies --   1081.0313              1109.0799              1133.9131
 Red. masses --      2.3709                 2.3911                 2.5786
 Frc consts  --      1.6325                 1.7329                 1.9534
 IR Inten    --     30.9172                 0.6388                18.3553

                     46                     47                     48
                      A                      A                      A
 Frequencies --   1194.7690              1232.3862              1274.8737
 Red. masses --      2.0252                 5.7181                 7.3260
 Frc consts  --      1.7033                 5.1168                 7.0154
 IR Inten    --      6.8699               113.4654               204.9125

                     49                     50                     51
                      A                      A                      A
 Frequencies --   1326.7105              1327.9948              1398.6809
 Red. masses --      5.0287                 1.3922                 1.1956
 Frc consts  --      5.2151                 1.4466                 1.3780
 IR Inten    --      2.7025                 2.3876                 8.7702

                     52                     53                     54
                      A                      A                      A
 Frequencies --   1401.3861              1409.7995              1412.5514
 Red. masses --      1.3287                13.2146                 7.8126
 Frc consts  --      1.5374                15.4745                 9.1845
 IR Inten    --      6.2885               150.5409                 8.9915

                     55                     56                     57
                      A                      A                      A
 Frequencies --   1419.0990              1421.3986              1463.4493
 Red. masses --      1.2604                 1.2322                 1.0452
 Frc consts  --      1.4955                 1.4668                 1.3188
 IR Inten    --     24.0361                 3.7661                 3.9201

                     58                     59                     60
                      A                      A                      A
 Frequencies --   1479.6650              1488.8162              1499.0615
 Red. masses --      1.0820                 1.0397                 1.0473
 Frc consts  --      1.3958                 1.3578                 1.3866
 IR Inten    --      6.7866                 1.6449                 2.6038

                     61                     62                     63
                      A                      A                      A
 Frequencies --   1503.4904              1517.9729              1618.3474
 Red. masses --      1.0414                 1.0590                14.1368
 Frc consts  --      1.3870                 1.4377                21.8144
 IR Inten    --     19.2772                 8.1881                 2.1668

                     64                     65                     66
                      A                      A                      A
 Frequencies --   1620.1050              1656.3778              1704.2476
 Red. masses --     14.2016                 9.8624                 9.3960
 Frc consts  --     21.9621                15.9424                16.0789
 IR Inten    --    596.6542                60.1785                 8.7622

                     67                     68                     69
                      A                      A                      A
 Frequencies --   1733.0646              1739.1221              3037.4181
 Red. masses --     12.7317                12.7957                 1.0356
 Frc consts  --     22.5303                22.8021                 5.6293
 IR Inten    --      5.3997               396.9250                22.1136

                     70                     71                     72
                      A                      A                      A
 Frequencies --   3039.3865              3046.6602              3059.8124
 Red. masses --      1.0367                 1.0374                 1.0839
 Frc consts  --      5.6424                 5.6737                 5.9791
 IR Inten    --     15.7648                 0.2737                 4.3430

                     73                     74                     75
                      A                      A                      A
 Frequencies --   3098.0653              3098.5053              3100.2766
 Red. masses --      1.0989                 1.1025                 1.1020
 Frc consts  --      6.2144                 6.2363                 6.2408
 IR Inten    --      0.7036                 9.1565                28.4431

                     76                     77                     78
                      A                      A                      A
 Frequencies --   3127.4861              3131.5755              3148.1246
 Red. masses --      1.1019                 1.1008                 1.1020
 Frc consts  --      6.3500                 6.3604                 6.4346
 IR Inten    --      0.5811                15.0783                 3.4381

 - Thermochemistry -
 -------------------
 Temperature   298.150 Kelvin.  Pressure   1.00000 Atm.
 Atom     1 has atomic number  6 and mass  12.00000

 Molecular mass:   254.05389 amu.
 Principal axes and moments of inertia in atomic units:
                           1         2         3
     Eigenvalues --  3091.556094942.236267088.61821
           X           -0.25836  -0.20740   0.94352
           Y            0.20021   0.94398   0.26233
           Z            0.94508  -0.25667   0.20236
 This molecule is an asymmetric top.
 Rotational symmetry number  1.
 Warning -- assumption of classical behavior for rotation
           may cause significant error
 Rotational temperatures (Kelvin)      0.02802     0.01753     0.01222
 Rotational constants (GHZ):           0.58376     0.36517     0.25460
 Zero-point vibrational energy     525635.7 (Joules/Mol)
                                  125.62994 (Kcal/Mol)
 Warning -- explicit consideration of  27 degrees of freedom as
           vibrations may cause significant error
 Vibrational temperatures:     38.93    52.68    75.12    82.67    90.91
          (Kelvin)            105.77   133.92   198.55   206.24   213.18
                              253.57   300.00   309.42   338.66   348.80
                              352.94   393.45   455.14   515.54   520.63
                              595.68   656.98   670.85   683.73   741.88
                              832.03   878.47   932.96   954.89  1061.71
                             1087.59  1104.77  1127.36  1188.07  1228.94
                             1283.04  1354.33  1371.30  1384.71  1395.05
                             1500.15  1502.76  1555.36  1595.72  1631.45
                             1719.01  1773.13  1834.26  1908.84  1910.69
                             2012.39  2016.28  2028.39  2032.35  2041.77
                             2045.08  2105.58  2128.91  2142.07  2156.82
                             2163.19  2184.02  2328.44  2330.97  2383.16
                             2452.03  2493.49  2502.21  4370.17  4373.00
                             4383.46  4402.39  4457.42  4458.06  4460.61
                             4499.75  4505.64  4529.45

 Zero-point correction=                           0.200204 (Hartree/Particle)
 Thermal correction to Energy=                    0.218342
 Thermal correction to Enthalpy=                  0.219286
 Thermal correction to Gibbs Free Energy=         0.152016
 Sum of electronic and zero-point Energies=           -947.764573
 Sum of electronic and thermal Energies=              -947.746435
 Sum of electronic and thermal Enthalpies=            -947.745491
 Sum of electronic and thermal Free Energies=         -947.812761

                     E (Thermal)             CV                S
                      KCal/Mol        Cal/Mol-Kelvin    Cal/Mol-Kelvin
 Total                  137.012             63.267            141.583
 Electronic               0.000              0.000              0.000
 Translational            0.889              2.981             42.497
 Rotational               0.889              2.981             33.049
 Vibrational            135.234             57.305             66.037
 Vibration     1          0.593              1.984              6.034
 Vibration     2          0.594              1.982              5.434
 Vibration     3          0.596              1.977              4.732
 Vibration     4          0.596              1.975              4.543
 Vibration     5          0.597              1.972              4.355
 Vibration     6          0.599              1.966              4.057
 Vibration     7          0.602              1.954              3.594
 Vibration     8          0.614              1.915              2.831
 Vibration     9          0.616              1.910              2.759
 Vibration    10          0.618              1.905              2.696
 Vibration    11          0.628              1.872              2.368
 Vibration    12          0.642              1.828              2.057
 Vibration    13          0.645              1.818              2.000
 Vibration    14          0.655              1.787              1.838
 Vibration    15          0.659              1.775              1.785
 Vibration    16          0.660              1.771              1.764
 Vibration    17          0.676              1.722              1.574
 Vibration    18          0.703              1.642              1.329
 Vibration    19          0.733              1.558              1.129
 Vibration    20          0.736              1.551              1.114
 Vibration    21          0.778              1.440              0.913
 Vibration    22          0.815              1.346              0.776
 Vibration    23          0.824              1.325              0.748
 Vibration    24          0.832              1.305              0.723
 Vibration    25          0.871              1.215              0.620
 Vibration    26          0.935              1.078              0.489
 Vibration    27          0.970              1.009              0.432

                           ! Non-Optimized Parameters !
 Normal termination of Gaussian 16 at Sat Jan  6 06:49:35 2024.
