 Gaussian 16, Revision A.03,
 Gaussian 16:  ES64L-G16RevA.03 25-Dec-2016

 --------------------------------------
 #P UB3LYP/6-311++G(d,p) nosym opt freq
 --------------------------------------

 -------
 Radical
 -------
 Symbolic Z-matrix:
 Charge = -1 Multiplicity = 2

 SCF Done:  E(UB3LYP) =  -718.793241529     A.U. after   19 cycles
 SCF Done:  E(UB3LYP) =  -718.801632258     A.U. after   16 cycles
 SCF Done:  E(UB3LYP) =  -718.802248511     A.U. after   15 cycles
 SCF Done:  E(UB3LYP) =  -718.802322202     A.U. after   13 cycles
 SCF Done:  E(UB3LYP) =  -718.802330664     A.U. after   11 cycles
 SCF Done:  E(UB3LYP) =  -718.802329612     A.U. after   12 cycles
 SCF Done:  E(UB3LYP) =  -718.802331243     A.U. after   11 cycles
 Optimization completed.
    -- Stationary point found.
 Normal termination of Gaussian 16 at Wed Dec 20 01:33:46 2023.

 ----------------------------------------------------------------------
 #P Geom=AllCheck Guess=TCheck SCRF=Check GenChk UB3LYP/6-311++G(d,p) F
 req
 ----------------------------------------------------------------------

 Structure from the checkpoint file:  "075-rad.chk"
 -------
 Radical
 -------
 Charge = -1 Multiplicity = 2

                          Input orientation:
 ---------------------------------------------------------------------
 Center     Atomic      Atomic             Coordinates (Angstroms)
 Number     Number       Type             X           Y           Z
 ---------------------------------------------------------------------
      1          6           0        1.569472    1.094424   -1.570857
      2          6           0        0.158762    0.888073   -1.334082
      3          6           0       -0.319936    0.172396   -0.259326
      4          6           0        0.570637   -0.434281    0.726265
      5          6           0        1.985428   -0.217285    0.474407
      6          6           0        2.454515    0.492765   -0.592262
      7          8           0        1.996913    1.753774   -2.561060
      8          8           0        0.163791   -1.091869    1.716172
      9          6           0       -1.794645   -0.002441   -0.074836
     10          9           0       -2.523865    0.609403   -1.058829
     11          9           0       -2.193727   -1.303281   -0.091731
     12          9           0       -2.261750    0.519207    1.091919
     13          1           0       -0.521234    1.329426   -2.052851
     14          1           0        2.663267   -0.661257    1.197891
     15          1           0        3.520512    0.634268   -0.748223
 ---------------------------------------------------------------------

 SCF Done:  E(UB3LYP) =  -718.802331243     A.U. after    1 cycles

 Alpha  occ. eigenvalues --  -24.58511 -24.57901 -24.57901 -18.94811 -18.94771
 Alpha  occ. eigenvalues --  -10.29799 -10.10033 -10.09294 -10.06044 -10.05039
 Alpha  occ. eigenvalues --  -10.04468 -10.04384  -1.18417  -1.09725  -1.09457
 Alpha  occ. eigenvalues --   -0.87353  -0.86757  -0.71055  -0.65102  -0.58730
 Alpha  occ. eigenvalues --   -0.55225  -0.49777  -0.47659  -0.46412  -0.45260
 Alpha  occ. eigenvalues --   -0.40227  -0.35231  -0.34690  -0.34162  -0.34101
 Alpha  occ. eigenvalues --   -0.31905  -0.30778  -0.29723  -0.28497  -0.28026
 Alpha  occ. eigenvalues --   -0.27775  -0.27359  -0.24851  -0.24432  -0.23981
 Alpha  occ. eigenvalues --   -0.15929  -0.14470  -0.11251  -0.10898  -0.03816
 Alpha virt. eigenvalues --    0.09963   0.10041   0.11538   0.12383   0.14333
 Alpha virt. eigenvalues --    0.14886   0.16044   0.16773   0.17857   0.18558
 Alpha virt. eigenvalues --    0.18804   0.19073   0.20236   0.21389   0.21782

  Beta  occ. eigenvalues --  -24.58514 -24.57890 -24.57889 -18.94069 -18.93995
  Beta  occ. eigenvalues --  -10.29803 -10.09966 -10.09214 -10.05925 -10.04837
  Beta  occ. eigenvalues --  -10.04391 -10.04281  -1.18403  -1.09719  -1.09429
  Beta  occ. eigenvalues --   -0.86156  -0.85343  -0.70450  -0.64835  -0.58314
  Beta  occ. eigenvalues --   -0.54465  -0.49491  -0.47505  -0.46365  -0.45048
  Beta  occ. eigenvalues --   -0.39917  -0.35066  -0.34661  -0.34036  -0.33743
  Beta  occ. eigenvalues --   -0.31714  -0.30632  -0.29603  -0.28470  -0.27884
  Beta  occ. eigenvalues --   -0.26641  -0.26039  -0.24348  -0.23754  -0.21499
  Beta  occ. eigenvalues --   -0.13755  -0.12048  -0.10540  -0.10192
  Beta virt. eigenvalues --    0.03619   0.10054   0.11473   0.11552   0.12404
  Beta virt. eigenvalues --    0.14897   0.15228   0.16096   0.17917   0.18012
  Beta virt. eigenvalues --    0.18599   0.18983   0.19081   0.20426   0.21424

 Mulliken charges and spin densities:
               1          2
     1  C   -0.701266   0.074812
     2  C   -0.324811   0.128287
     3  C    0.400522   0.081337
     4  C   -0.571723   0.035353
     5  C    0.078297   0.086101
     6  C    0.280096   0.061689
     7  O   -0.404451   0.289429
     8  O   -0.382739   0.256490
     9  C    0.573554   0.007958
    10  F   -0.201374  -0.001385
    11  F   -0.108054   0.002102
    12  F   -0.108036   0.002101
    13  H    0.162950  -0.011837
    14  H    0.153985  -0.007484
    15  H    0.153049  -0.004952
 Sum of Mulliken charges =  -1.00000   1.00000

 Dipole moment (field-independent basis, Debye):
    X=             -1.3279    Y=             -1.2737    Z=              1.7657  Tot=              2.5502
 Quadrupole moment (field-independent basis, Debye-Ang):
   XX=            -85.0478   YY=            -81.2226   ZZ=            -93.0077
   XY=             -8.2437   XZ=             11.8849   YZ=             14.4163

  Exact polarizability: 117.664  11.072  85.264 -13.710 -38.614 118.466
 Approx polarizability: 164.023  22.712 139.463 -30.625 -76.945 205.413

                      1                      2                      3
                      A                      A                      A
 Frequencies --     50.5929               101.3439               143.8052
 Red. masses --     15.0888                 6.2102                11.4780
 Frc consts  --      0.0228                 0.0376                 0.1399
 IR Inten    --      0.5612                 3.8619                 6.9148

                      4                      5                      6
                      A                      A                      A
 Frequencies --    171.0465               281.0379               285.4971
 Red. masses --     13.5359                 7.7417                14.7543
 Frc consts  --      0.2333                 0.3603                 0.7086
 IR Inten    --      0.2629                 0.5566                 0.1978

                      7                      8                      9
                      A                      A                      A
 Frequencies --    339.6914               344.3266               420.4545
 Red. masses --     17.0377                 4.9540                 9.2588
 Frc consts  --      1.1583                 0.3461                 0.9644
 IR Inten    --      2.1244                 0.1361                 8.7222

                     10                     11                     12
                      A                      A                      A
 Frequencies --    450.9587               480.1703               507.5606
 Red. masses --      4.8191                11.4392                 9.7007
 Frc consts  --      0.5774                 1.5540                 1.4724
 IR Inten    --      0.3412                 0.1149                 0.8477

                     13                     14                     15
                      A                      A                      A
 Frequencies --    539.1965               574.2813               639.0722
 Red. masses --      4.3625                 7.1055                 4.3163
 Frc consts  --      0.7473                 1.3807                 1.0386
 IR Inten    --      4.2128                 4.3214                 5.0818

                     16                     17                     18
                      A                      A                      A
 Frequencies --    659.8500               728.1886               749.0292
 Red. masses --      7.7174                12.9212                 3.4648
 Frc consts  --      1.9798                 4.0368                 1.1453
 IR Inten    --      9.7046                 5.6699                 0.2663

                     19                     20                     21
                      A                      A                      A
 Frequencies --    819.9078               828.1897               887.9466
 Red. masses --      5.8228                 1.9665                 5.6920
 Frc consts  --      2.3063                 0.7947                 2.6442
 IR Inten    --     51.3118                13.3394                31.0982

                     22                     23                     24
                      A                      A                      A
 Frequencies --    888.9523               958.0927               998.7612
 Red. masses --      1.5666                 1.2655                 4.2782
 Frc consts  --      0.7294                 0.6844                 2.5144
 IR Inten    --     44.5367                 0.5775                82.1642

                     25                     26                     27
                      A                      A                      A
 Frequencies --   1080.5169              1082.5094              1107.3528
 Red. masses --      4.6163                12.3000                 2.0450
 Frc consts  --      3.1755                 8.4922                 1.4775
 IR Inten    --    158.9509               298.4782                40.2113

                     28                     29                     30
                      A                      A                      A
 Frequencies --   1190.6724              1251.2952              1267.4771
 Red. masses --      2.1683                 1.5008                 6.2624
 Frc consts  --      1.8112                 1.3845                 5.9275
 IR Inten    --    131.6415                52.6553               209.3228

                     31                     32                     33
                      A                      A                      A
 Frequencies --   1358.7983              1432.9663              1497.1663
 Red. masses --      2.2924                 5.1954                 9.6094
 Frc consts  --      2.4938                 6.2855                12.6908
 IR Inten    --     19.2429                34.1078                59.7240

                     34                     35                     36
                      A                      A                      A
 Frequencies --   1511.9513              1541.0057              1649.8459
 Red. masses --      5.2696                 7.6551                 7.1292
 Frc consts  --      7.0975                10.7104                11.4334
 IR Inten    --     84.5717               466.7000                15.8085

                     37                     38                     39
                      A                      A                      A
 Frequencies --   3137.1350              3159.4009              3186.9104
 Red. masses --      1.0854                 1.0949                 1.0894
 Frc consts  --      6.2935                 6.4390                 6.5190
 IR Inten    --     17.8541                35.8230                 5.0495

 - Thermochemistry -
 -------------------
 Temperature   298.150 Kelvin.  Pressure   1.00000 Atm.
 Atom     1 has atomic number  6 and mass  12.00000

 Molecular mass:   176.00851 amu.
 Principal axes and moments of inertia in atomic units:
                           1         2         3
     Eigenvalues --  1167.368802467.804413314.46431
           X            0.90390   0.42658  -0.03141
           Y            0.25622  -0.48120   0.83833
           Z           -0.34250   0.76582   0.54425
 This molecule is an asymmetric top.
 Rotational symmetry number  1.
 Warning -- assumption of classical behavior for rotation
           may cause significant error
 Rotational temperatures (Kelvin)      0.07420     0.03510     0.02613
 Rotational constants (GHZ):           1.54599     0.73131     0.54450
 Zero-point vibrational energy     229102.6 (Joules/Mol)
                                   54.75683 (Kcal/Mol)
 Warning -- explicit consideration of  14 degrees of freedom as
           vibrations may cause significant error
 Vibrational temperatures:     72.79   145.81   206.90   246.10   404.35
          (Kelvin)            410.77   488.74   495.41   604.94   648.83
                              690.86   730.27   775.78   826.26   919.48
                              949.38  1047.70  1077.69  1179.66  1191.58
                             1277.56  1279.00  1378.48  1436.99  1554.62
                             1557.49  1593.23  1713.11  1800.33  1823.62
                             1955.01  2061.72  2154.09  2175.36  2217.16
                             2373.76  4513.64  4545.67  4585.25

 Zero-point correction=                           0.087261 (Hartree/Particle)
 Thermal correction to Energy=                    0.096882
 Thermal correction to Enthalpy=                  0.097826
 Thermal correction to Gibbs Free Energy=         0.050850
 Sum of electronic and zero-point Energies=           -718.715071
 Sum of electronic and thermal Energies=              -718.705449
 Sum of electronic and thermal Enthalpies=            -718.704505
 Sum of electronic and thermal Free Energies=         -718.751481

                     E (Thermal)             CV                S
                      KCal/Mol        Cal/Mol-Kelvin    Cal/Mol-Kelvin
 Total                   60.794             36.150             98.869
 Electronic               0.000              0.000              1.377
 Translational            0.889              2.981             41.403
 Rotational               0.889              2.981             30.636
 Vibrational             59.017             30.188             25.453
 Vibration     1          0.595              1.977              4.794
 Vibration     2          0.604              1.948              3.428
 Vibration     3          0.616              1.909              2.753
 Vibration     4          0.626              1.878              2.424
 Vibration     5          0.681              1.709              1.527
 Vibration     6          0.683              1.701              1.501
 Vibration     7          0.720              1.596              1.214
 Vibration     8          0.723              1.587              1.192
 Vibration     9          0.783              1.426              0.890
 Vibration    10          0.810              1.359              0.793
 Vibration    11          0.837              1.294              0.710
 Vibration    12          0.863              1.233              0.639
 Vibration    13          0.894              1.163              0.567
 Vibration    14          0.931              1.087              0.496

 Optimization completed.
    -- Stationary point found.
 Normal termination of Gaussian 16 at Wed Dec 20 01:43:54 2023.
