 Q-Chem 5.4, Q-Chem, Inc., Pleasanton, CA (2021)
 Q-Chem 5.4.0 for Intel X86 EM64T Linux

User input:
--------------------------------------------------------------
$molecule
0 1
C                 -0.9917010000      3.9953130000     -0.1109490000
C                 -2.2401980000      3.3829410000     -0.1666850000
C                 -2.3345490000      1.9905560000     -0.1894270000
C                  0.1650690000      3.2132790000     -0.0727280000
C                  0.0708090000      1.8130790000     -0.0914250000
C                 -1.1827150000      1.2070180000     -0.1551100000
C                  1.4929360000      3.8661850000     -0.0358760000
C                  2.7101660000      2.9917400000      0.0312190000
C                  2.5981350000      1.6298360000      0.0939430000
C                  1.3002000000      0.9565370000     -0.0400790000
O                  1.6371990000      5.0790620000     -0.0779240000
O                  1.2175410000     -0.2612970000     -0.1083970000
N                  3.8826200000      3.6825560000      0.0736490000
S                  3.9992890000      0.5417700000      0.2389740000
H                 -0.8936940000      5.0738160000     -0.0994170000
H                 -3.1385520000      3.9887210000     -0.1948310000
H                 -3.3076770000      1.5148540000     -0.2342330000
H                 -1.2348850000      0.1255480000     -0.1736920000
H                  3.8015290000      4.6767520000     -0.0966030000
H                  4.7279740000      3.2271230000     -0.2351610000
H                  4.7456500000      1.3917720000      0.9783310000
$end

$rem
BASIS  =  6-311++G(d,p)
GUI  =  2
JOB_TYPE  =  SP
METHOD  =  B3LYP
SCF_CONVERGENCE  = 8
SOLVENT_METHOD = sm12
$end

$smx
solvent dimethylformamide
charges CM5
$end

--------------------------------------------------------------

             Standard Nuclear Orientation (Angstroms)
    I     Atom           X                Y                Z
 ----------------------------------------------------------------
    1      C      -0.9917010000     3.9953130000    -0.1109490000
    2      C      -2.2401980000     3.3829410000    -0.1666850000
    3      C      -2.3345490000     1.9905560000    -0.1894270000
    4      C       0.1650690000     3.2132790000    -0.0727280000
    5      C       0.0708090000     1.8130790000    -0.0914250000
    6      C      -1.1827150000     1.2070180000    -0.1551100000
    7      C       1.4929360000     3.8661850000    -0.0358760000
    8      C       2.7101660000     2.9917400000     0.0312190000
    9      C       2.5981350000     1.6298360000     0.0939430000
   10      C       1.3002000000     0.9565370000    -0.0400790000
   11      O       1.6371990000     5.0790620000    -0.0779240000
   12      O       1.2175410000    -0.2612970000    -0.1083970000
   13      N       3.8826200000     3.6825560000     0.0736490000
   14      S       3.9992890000     0.5417700000     0.2389740000
   15      H      -0.8936940000     5.0738160000    -0.0994170000
   16      H      -3.1385520000     3.9887210000    -0.1948310000
   17      H      -3.3076770000     1.5148540000    -0.2342330000
   18      H      -1.2348850000     0.1255480000    -0.1736920000
   19      H       3.8015290000     4.6767520000    -0.0966030000
   20      H       4.7279740000     3.2271230000    -0.2351610000
   21      H       4.7456500000     1.3917720000     0.9783310000
 ----------------------------------------------------------------

   15    -988.8624474891      7.21e-09  Convergence criterion met
 Total energy in the final basis set =     -988.8836835805

                    Orbital Energies (a.u.)
 --------------------------------------------------------------

 Alpha MOs
 -- Occupied --
-88.8684 -19.1416 -19.1217 -14.3487 -10.2907 -10.2777 -10.2534 -10.2227
-10.2096 -10.2091 -10.1995 -10.1984 -10.1967 -10.1966  -7.9548  -5.9185
 -5.9150  -5.9087  -1.0769  -1.0574  -0.9517  -0.8902  -0.8345  -0.7917
 -0.7788  -0.7373  -0.6895  -0.6465  -0.6320  -0.5956  -0.5763  -0.5432
 -0.5140  -0.5040  -0.4894  -0.4659  -0.4616  -0.4524  -0.4518  -0.4388
 -0.4301  -0.4207  -0.3936  -0.3820  -0.3736  -0.3671  -0.3560  -0.2994
 -0.2917  -0.2854  -0.2788  -0.2757  -0.2271

          Ground-State Mulliken Net Atomic Charges

     Atom                 Charge (a.u.)
  ----------------------------------------
      1 C                     0.263160
      2 C                     0.326177
      3 C                     0.344093
      4 C                     0.332367
      5 C                    -0.408638
      6 C                    -0.101771
      7 C                    -1.226564
      8 C                     1.047016
      9 C                     1.523400
     10 C                    -2.683388
     11 O                    -0.276613
     12 O                    -0.303320
     13 N                    -0.157083
     14 S                    -0.492847
     15 H                     0.199738
     16 H                     0.330571
     17 H                     0.317341
     18 H                     0.165621
     19 H                     0.335342
     20 H                     0.358319
     21 H                     0.107081
  ----------------------------------------
  Sum of atomic charges =     0.000000

                    Cartesian Multipole Moments
 -----------------------------------------------------------------
    Charge (ESU x 10^10)
                -0.0000
    Dipole Moment (Debye)
         X      -0.3939      Y       3.2006      Z      -0.1167
       Tot       3.2268
    Quadrupole Moments (Debye-Ang)
        XX     -62.3009     XY       7.2731     YY     -87.1892
        XZ       0.8502     YZ      -1.3305     ZZ     -90.3879

 Total job time:  293.03s(wall), 2232.26s(cpu)
        *  Thank you very much for using Q-Chem.  Have a nice day.  *
