 Gaussian 16, Revision A.03,
 Gaussian 16:  ES64L-G16RevA.03 25-Dec-2016

 --------------------------------------
 #P UB3LYP/6-311++G(d,p) nosym opt freq
 --------------------------------------

 --------
 Oxidized
 --------
 Symbolic Z-matrix:
 Charge =  0 Multiplicity = 1

 SCF Done:  E(UB3LYP) =  -914.656552026     A.U. after   18 cycles
 SCF Done:  E(UB3LYP) =  -914.689796342     A.U. after   14 cycles
 SCF Done:  E(UB3LYP) =  -914.696947100     A.U. after   14 cycles
 SCF Done:  E(UB3LYP) =  -914.702106544     A.U. after   13 cycles
 SCF Done:  E(UB3LYP) =  -914.702253849     A.U. after   12 cycles
 SCF Done:  E(UB3LYP) =  -914.702455756     A.U. after   12 cycles
 SCF Done:  E(UB3LYP) =  -914.702463144     A.U. after   10 cycles
 SCF Done:  E(UB3LYP) =  -914.702461585     A.U. after   10 cycles
 SCF Done:  E(UB3LYP) =  -914.702463423     A.U. after   10 cycles
 SCF Done:  E(UB3LYP) =  -914.702465371     A.U. after   10 cycles
 Optimization completed.
    -- Stationary point found.
 Normal termination of Gaussian 16 at Thu Dec 21 20:10:52 2023.

 ----------------------------------------------------------------------
 #P Geom=AllCheck Guess=TCheck SCRF=Check GenChk UB3LYP/6-311++G(d,p) F
 req
 ----------------------------------------------------------------------

 Structure from the checkpoint file:  "200.chk"
 --------
 Oxidized
 --------
 Charge =  0 Multiplicity = 1

                          Input orientation:
 ---------------------------------------------------------------------
 Center     Atomic      Atomic             Coordinates (Angstroms)
 Number     Number       Type             X           Y           Z
 ---------------------------------------------------------------------
      1          8           0        4.393152   -1.501154   -0.408346
      2          6           0        3.274054   -0.752271   -0.315862
      3          6           0        3.344732    0.623125   -0.367165
      4          6           0        2.185783    1.413342   -0.271989
      5          8           0        2.295682    2.762053   -0.326481
      6          6           0        0.922808    0.814986   -0.121714
      7          6           0       -0.316995    1.616558   -0.018799
      8          8           0       -0.334291    2.836622   -0.055935
      9          6           0       -1.610290    0.867287    0.139381
     10          6           0       -2.797484    1.597886    0.239021
     11          6           0       -4.013721    0.941504    0.386268
     12          6           0       -4.060778   -0.455423    0.436015
     13          6           0       -2.888418   -1.191732    0.338021
     14          6           0       -1.660077   -0.534524    0.189551
     15          6           0       -0.419745   -1.324491    0.086235
     16          8           0       -0.456547   -2.565939    0.129804
     17          6           0        0.858387   -0.613206   -0.069276
     18          6           0        2.020000   -1.385506   -0.165214
     19          8           0        2.054457   -2.732296   -0.125681
     20          1           0        4.135412   -2.433679   -0.352018
     21          1           0        4.317510    1.089981   -0.483204
     22          1           0        3.223427    3.001928   -0.430137
     23          1           0       -2.739681    2.678294    0.198256
     24          1           0       -4.930074    1.515991    0.462848
     25          1           0       -5.011531   -0.963158    0.550927
     26          1           0       -2.897896   -2.273792    0.373680
     27          1           0        1.112123   -3.032386   -0.018186
 ---------------------------------------------------------------------

 SCF Done:  E(UB3LYP) =  -914.702465371     A.U. after    1 cycles

 Alpha  occ. eigenvalues --  -19.18277 -19.17568 -19.17209 -19.14163 -19.11157
 Alpha  occ. eigenvalues --  -10.29125 -10.27223 -10.27127 -10.27111 -10.26831
 Alpha  occ. eigenvalues --  -10.21674 -10.20965 -10.20791 -10.20686 -10.20652
 Alpha  occ. eigenvalues --  -10.20274 -10.20155 -10.20090 -10.19625  -1.11179
 Alpha  occ. eigenvalues --   -1.09315  -1.08681  -1.06156  -1.04688  -0.89536
 Alpha  occ. eigenvalues --   -0.88169  -0.81776  -0.78069  -0.77761  -0.77049
 Alpha  occ. eigenvalues --   -0.70138  -0.68221  -0.66328  -0.63733  -0.61549
 Alpha  occ. eigenvalues --   -0.60232  -0.56893  -0.56078  -0.54038  -0.52566
 Alpha  occ. eigenvalues --   -0.51157  -0.49709  -0.48476  -0.47819  -0.46746
 Alpha  occ. eigenvalues --   -0.46058  -0.45222  -0.44332  -0.44051  -0.43690
 Alpha  occ. eigenvalues --   -0.43407  -0.40676  -0.40623  -0.40205  -0.39628
 Alpha  occ. eigenvalues --   -0.39330  -0.38520  -0.37579  -0.37041  -0.32968
 Alpha  occ. eigenvalues --   -0.29499  -0.28698  -0.27869  -0.27138  -0.26082
 Alpha  occ. eigenvalues --   -0.23375
 Alpha virt. eigenvalues --   -0.11767  -0.06772  -0.03944  -0.01757  -0.01546
 Alpha virt. eigenvalues --   -0.01001  -0.00638   0.01319   0.01676   0.03006
 Alpha virt. eigenvalues --    0.03022   0.03515   0.04006   0.04151   0.04806

  Beta  occ. eigenvalues --  -19.18277 -19.17568 -19.17209 -19.14163 -19.11157
  Beta  occ. eigenvalues --  -10.29125 -10.27223 -10.27127 -10.27111 -10.26831
  Beta  occ. eigenvalues --  -10.21674 -10.20965 -10.20791 -10.20686 -10.20652
  Beta  occ. eigenvalues --  -10.20274 -10.20155 -10.20090 -10.19625  -1.11179
  Beta  occ. eigenvalues --   -1.09315  -1.08681  -1.06156  -1.04688  -0.89536
  Beta  occ. eigenvalues --   -0.88169  -0.81776  -0.78069  -0.77761  -0.77049
  Beta  occ. eigenvalues --   -0.70138  -0.68221  -0.66328  -0.63733  -0.61549
  Beta  occ. eigenvalues --   -0.60232  -0.56893  -0.56078  -0.54038  -0.52566
  Beta  occ. eigenvalues --   -0.51157  -0.49709  -0.48476  -0.47819  -0.46746
  Beta  occ. eigenvalues --   -0.46058  -0.45222  -0.44332  -0.44051  -0.43690
  Beta  occ. eigenvalues --   -0.43407  -0.40676  -0.40623  -0.40205  -0.39628
  Beta  occ. eigenvalues --   -0.39330  -0.38520  -0.37579  -0.37041  -0.32968
  Beta  occ. eigenvalues --   -0.29499  -0.28698  -0.27869  -0.27138  -0.26082
  Beta  occ. eigenvalues --   -0.23375
  Beta virt. eigenvalues --   -0.11767  -0.06772  -0.03944  -0.01757  -0.01546
  Beta virt. eigenvalues --   -0.01001  -0.00638   0.01319   0.01676   0.03006
  Beta virt. eigenvalues --    0.03022   0.03515   0.04006   0.04151   0.04806

 Mulliken charges and spin densities:
               1          2
     1  O   -0.233504  -0.000000
     2  C   -0.428907  -0.000000
     3  C    0.187797  -0.000000
     4  C   -0.072024   0.000000
     5  O   -0.149727  -0.000000
     6  C    0.422080   0.000000
     7  C   -0.388965  -0.000000
     8  O   -0.217542   0.000000
     9  C   -0.169547  -0.000000
    10  C    0.178834   0.000000
    11  C   -0.437363   0.000000
    12  C   -0.432259   0.000000
    13  C    0.187656   0.000000
    14  C    0.238956  -0.000000
    15  C   -0.423479  -0.000000
    16  O   -0.276448   0.000000
    17  C    0.877647   0.000000
    18  C   -0.305172   0.000000
    19  O   -0.379434   0.000000
    20  H    0.296354   0.000000
    21  H    0.176526   0.000000
    22  H    0.266676  -0.000000
    23  H    0.182989  -0.000000
    24  H    0.176798   0.000000
    25  H    0.174899  -0.000000
    26  H    0.182589   0.000000
    27  H    0.364570  -0.000000
 Sum of Mulliken charges =  -0.00000  -0.00000

 Dipole moment (field-independent basis, Debye):
    X=              0.0073    Y=             -0.7497    Z=              0.0227  Tot=              0.7500
 Quadrupole moment (field-independent basis, Debye-Ang):
   XX=            -85.5702   YY=           -115.2669   ZZ=           -110.0864
   XY=              5.0836   XZ=             -2.7370   YZ=             -0.3687

  Exact polarizability: 284.691 -13.932 208.408 -20.284  -2.505  87.144
 Approx polarizability: 431.715 -30.884 405.500 -29.581  -5.383 140.471

                      1                      2                      3
                      A                      A                      A
 Frequencies --     36.4791                64.4357               110.6138
 Red. masses --      7.7865                 7.7243                 5.5958
 Frc consts  --      0.0061                 0.0189                 0.0403
 IR Inten    --      5.2964                 0.3194                 0.4979

                      4                      5                      6
                      A                      A                      A
 Frequencies --    134.8554               160.1248               192.8876
 Red. masses --      8.8744                 7.5296                 6.0314
 Frc consts  --      0.0951                 0.1137                 0.1322
 IR Inten    --      0.2014                 0.0026                 0.9263

                      7                      8                      9
                      A                      A                      A
 Frequencies --    206.9600               262.8229               293.1646
 Red. masses --      5.8008                 5.3132                 5.9667
 Frc consts  --      0.1464                 0.2162                 0.3021
 IR Inten    --      0.4381                 1.1767                 3.3294

                     10                     11                     12
                      A                      A                      A
 Frequencies --    305.2551               333.7034               344.9917
 Red. masses --      7.2620                 1.1772                 6.6177
 Frc consts  --      0.3987                 0.0772                 0.4641
 IR Inten    --      2.5719                74.7625                 3.8149

                     13                     14                     15
                      A                      A                      A
 Frequencies --    366.9677               397.3949               409.2189
 Red. masses --     10.0886                 7.7462                 6.5787
 Frc consts  --      0.8005                 0.7207                 0.6491
 IR Inten    --      8.4432                 5.2246                15.2938

                     16                     17                     18
                      A                      A                      A
 Frequencies --    425.8480               433.8451               452.3742
 Red. masses --      3.5819                11.6163                 4.1146
 Frc consts  --      0.3827                 1.2882                 0.4961
 IR Inten    --      0.2131                21.2425                19.9126

                     19                     20                     21
                      A                      A                      A
 Frequencies --    459.5763               480.4826               505.9764
 Red. masses --     10.3069                 1.4014                 7.9420
 Frc consts  --      1.2826                 0.1906                 1.1980
 IR Inten    --      1.2062               111.9665                 1.5476

                     22                     23                     24
                      A                      A                      A
 Frequencies --    508.7037               534.7939               597.5729
 Red. masses --      2.6783                 9.0631                 7.6584
 Frc consts  --      0.4084                 1.5272                 1.6113
 IR Inten    --     19.7944                 5.8573                17.6275

                     25                     26                     27
                      A                      A                      A
 Frequencies --    637.6517               663.8527               675.9923
 Red. masses --      5.4837                 6.4224                 8.4301
 Frc consts  --      1.3137                 1.6676                 2.2697
 IR Inten    --      2.9126                 6.6926                 0.2467

                     28                     29                     30
                      A                      A                      A
 Frequencies --    701.2424               716.4817               740.9117
 Red. masses --      6.1386                 5.3071                 6.9285
 Frc consts  --      1.7785                 1.6052                 2.2409
 IR Inten    --      0.2200                10.0411                 6.5850

                     31                     32                     33
                      A                      A                      A
 Frequencies --    744.1225               791.8142               807.7405
 Red. masses --      2.0949                 5.3416                 1.0974
 Frc consts  --      0.6835                 1.9732                 0.4218
 IR Inten    --     49.7169                 3.1008                98.2880

                     34                     35                     36
                      A                      A                      A
 Frequencies --    817.6117               839.1262               848.4933
 Red. masses --      2.1227                 1.4250                 7.5744
 Frc consts  --      0.8361                 0.5912                 3.2129
 IR Inten    --      0.2796                24.5434                41.4068

                     37                     38                     39
                      A                      A                      A
 Frequencies --    904.9502               915.6648               957.6909
 Red. masses --      7.8388                 1.3817                 6.0515
 Frc consts  --      3.7822                 0.6826                 3.2701
 IR Inten    --     10.6386                 0.0807                42.5415

                     40                     41                     42
                      A                      A                      A
 Frequencies --   1002.5996              1019.5883              1046.2569
 Red. masses --      1.3747                 1.3268                 3.1855
 Frc consts  --      0.8142                 0.8127                 2.0545
 IR Inten    --      1.3703                 0.2019                39.8408

                     43                     44                     45
                      A                      A                      A
 Frequencies --   1080.1004              1112.6581              1150.5584
 Red. masses --      2.7248                 2.4663                 2.7855
 Frc consts  --      1.8729                 1.7989                 2.1725
 IR Inten    --     42.9390                 4.7751                44.9512

                     46                     47                     48
                      A                      A                      A
 Frequencies --   1182.5849              1199.0530              1217.9831
 Red. masses --      1.1401                 1.6722                 2.2895
 Frc consts  --      0.9394                 1.4165                 2.0012
 IR Inten    --     27.4828                 7.1799                 2.4211

                     49                     50                     51
                      A                      A                      A
 Frequencies --   1223.9458              1260.6759              1290.2313
 Red. masses --      1.7190                 1.8691                 2.7353
 Frc consts  --      1.5172                 1.7502                 2.6828
 IR Inten    --    314.4129                21.2811               466.4093

                     52                     53                     54
                      A                      A                      A
 Frequencies --   1294.5547              1309.9715              1359.3628
 Red. masses --      2.5738                 3.5130                 6.8734
 Frc consts  --      2.5414                 3.5518                 7.4833
 IR Inten    --    364.0166               169.9087                 9.9063

                     55                     56                     57
                      A                      A                      A
 Frequencies --   1369.8623              1375.1575              1457.9812
 Red. masses --      2.5654                 4.3040                 3.4834
 Frc consts  --      2.8363                 4.7955                 4.3628
 IR Inten    --    129.9951               257.8165                65.3983

                     58                     59                     60
                      A                      A                      A
 Frequencies --   1481.9259              1485.9407              1495.1275
 Red. masses --      2.7588                 2.8676                 5.1423
 Frc consts  --      3.5697                 3.7306                 6.7727
 IR Inten    --     76.3529               393.1000                65.6495

                     61                     62                     63
                      A                      A                      A
 Frequencies --   1507.3518              1609.6139              1619.2247
 Red. masses --      2.6602                 7.1921                 5.2468
 Frc consts  --      3.5611                10.9787                 8.1052
 IR Inten    --      8.0104                11.5116               123.0560

                     64                     65                     66
                      A                      A                      A
 Frequencies --   1627.9508              1646.0061              1674.9562
 Red. masses --      5.7083                 4.8890                 8.8773
 Frc consts  --      8.9133                 7.8042                14.6737
 IR Inten    --    139.9982                68.7705                72.3931

                     67                     68                     69
                      A                      A                      A
 Frequencies --   1716.8757              3169.2572              3170.1440
 Red. masses --     11.5596                 1.0912                 1.0871
 Frc consts  --     20.0757                 6.4575                 6.4371
 IR Inten    --    200.6174                 5.8552                 3.7274

                     70                     71                     72
                      A                      A                      A
 Frequencies --   3184.9512              3202.6408              3204.9283
 Red. masses --      1.0921                 1.0924                 1.0945
 Frc consts  --      6.5271                 6.6014                 6.6237
 IR Inten    --     13.9854                 0.2586                 9.2186

                     73                     74                     75
                      A                      A                      A
 Frequencies --   3209.5592              3744.7253              3815.4237
 Red. masses --      1.0687                 1.0653                 1.0661
 Frc consts  --      6.4863                 8.8014                 9.1439
 IR Inten    --    274.5579               133.2085                87.0129

 - Thermochemistry -
 -------------------
 Temperature   298.150 Kelvin.  Pressure   1.00000 Atm.
 Atom     1 has atomic number  8 and mass  15.99491

 Molecular mass:   256.03717 amu.
 Principal axes and moments of inertia in atomic units:
                           1         2         3
     Eigenvalues --  2610.322945858.219418468.54228
           X            0.98463   0.14090   0.10319
           Y           -0.14486   0.98894   0.03182
           Z           -0.09757  -0.04628   0.99415
 This molecule is an asymmetric top.
 Rotational symmetry number  1.
 Warning -- assumption of classical behavior for rotation
           may cause significant error
 Rotational temperatures (Kelvin)      0.03318     0.01479     0.01023
 Rotational constants (GHZ):           0.69139     0.30807     0.21311
 Zero-point vibrational energy     504238.7 (Joules/Mol)
                                  120.51594 (Kcal/Mol)
 Warning -- explicit consideration of  24 degrees of freedom as
           vibrations may cause significant error
 Vibrational temperatures:     52.49    92.71   159.15   194.03   230.38
          (Kelvin)            277.52   297.77   378.14   421.80   439.19
                              480.12   496.37   527.98   571.76   588.77
                              612.70   624.21   650.87   661.23   691.31
                              727.99   731.91   769.45   859.77   917.44
                              955.14   972.60  1008.93  1030.86  1066.01
                             1070.63  1139.24  1162.16  1176.36  1207.32
                             1220.79  1302.02  1317.44  1377.90  1442.52
                             1466.96  1505.33  1554.02  1600.87  1655.40
                             1701.48  1725.17  1752.41  1760.99  1813.83
                             1856.36  1862.58  1884.76  1955.82  1970.93
                             1978.54  2097.71  2132.16  2137.94  2151.15
                             2168.74  2315.88  2329.70  2342.26  2368.24
                             2409.89  2470.20  4559.85  4561.13  4582.43
                             4607.89  4611.18  4617.84  5387.82  5489.54

 Zero-point correction=                           0.192054 (Hartree/Particle)
 Thermal correction to Energy=                    0.206485
 Thermal correction to Enthalpy=                  0.207429
 Thermal correction to Gibbs Free Energy=         0.150860
 Sum of electronic and zero-point Energies=           -914.510411
 Sum of electronic and thermal Energies=              -914.495980
 Sum of electronic and thermal Enthalpies=            -914.495036
 Sum of electronic and thermal Free Energies=         -914.551605

                     E (Thermal)             CV                S
                      KCal/Mol        Cal/Mol-Kelvin    Cal/Mol-Kelvin
 Total                  129.571             58.214            119.060
 Electronic               0.000              0.000              0.000
 Translational            0.889              2.981             42.520
 Rotational               0.889              2.981             33.226
 Vibrational            127.794             52.252             43.313
 Vibration     1          0.594              1.982              5.442
 Vibration     2          0.597              1.971              4.317
 Vibration     3          0.606              1.941              3.258
 Vibration     4          0.613              1.919              2.876
 Vibration     5          0.622              1.891              2.548
 Vibration     6          0.635              1.850              2.200
 Vibration     7          0.641              1.830              2.070
 Vibration     8          0.670              1.741              1.643
 Vibration     9          0.688              1.686              1.456
 Vibration    10          0.696              1.664              1.388
 Vibration    11          0.715              1.608              1.242
 Vibration    12          0.723              1.585              1.189
 Vibration    13          0.740              1.540              1.092
 Vibration    14          0.764              1.476              0.972
 Vibration    15          0.774              1.450              0.929
 Vibration    16          0.788              1.414              0.872
 Vibration    17          0.795              1.396              0.846
 Vibration    18          0.811              1.356              0.789
 Vibration    19          0.817              1.340              0.767
 Vibration    20          0.837              1.293              0.709
 Vibration    21          0.861              1.237              0.643
 Vibration    22          0.864              1.231              0.637
 Vibration    23          0.890              1.173              0.577
 Vibration    24          0.955              1.037              0.454

 Optimization completed.
    -- Stationary point found.
 Normal termination of Gaussian 16 at Thu Dec 21 21:31:26 2023.
