 Q-Chem 5.4, Q-Chem, Inc., Pleasanton, CA (2021)
 Q-Chem 5.4.0 for Intel X86 EM64T Linux

User input:
--------------------------------------------------------------
$molecule
0 1
O                  1.1984250000      1.6506640000      1.8466600000
C                  0.6527820000      0.8434890000      1.0932530000
C                 -0.7718190000      0.6431170000      1.1150990000
C                 -1.4634180000     -0.0868610000      0.1774250000
N                 -2.8158060000     -0.2180710000      0.2024960000
C                 -3.5458720000      0.2452270000      1.3928510000
C                 -4.9564810000     -0.3402140000      1.4339040000
C                 -5.7974530000      0.0997570000      0.2200020000
C                 -4.9000550000      0.2865320000     -1.0212480000
C                 -3.6457120000     -0.5901700000     -0.9672230000
C                 -0.6528090000     -0.8461980000     -0.8669150000
O                 -1.1983680000     -1.6540920000     -1.6195960000
C                  0.7717150000     -0.6454710000     -0.8890390000
C                  1.4632890000      0.0847840000      0.0484710000
N                  2.8156240000      0.2164820000      0.0229330000
C                  3.5454180000     -0.2457280000     -1.1680130000
C                  4.9550070000      0.3421240000     -1.2102870000
C                  5.7978170000     -0.0964190000      0.0028330000
C                  4.9017030000     -0.2855690000      1.2446330000
C                  3.6458100000      0.5890100000      1.1923160000
H                 -1.2775760000      1.2232710000      1.8738560000
H                 -3.5882790000      1.3445300000      1.4152320000
H                 -2.9839990000     -0.0693310000      2.2758050000
H                 -5.4337800000     -0.0391170000      2.3701430000
H                 -4.8767600000     -1.4313650000      1.4630650000
H                 -6.5706640000     -0.6486290000      0.0239110000
H                 -6.3203710000      1.0350250000      0.4410040000
H                 -5.4487420000      0.0504280000     -1.9371050000
H                 -4.5874940000      1.3323490000     -1.1085190000
H                 -3.0559030000     -0.4689700000     -1.8686950000
H                 -3.9133520000     -1.6509200000     -0.9140590000
H                  1.2775900000     -1.2257490000     -1.6476310000
H                  3.5895970000     -1.3449540000     -1.1904250000
H                  2.9822760000      0.0679250000     -2.0504670000
H                  5.4319720000      0.0419240000     -2.1469860000
H                  4.8733120000      1.4331370000     -1.2393070000
H                  6.5695330000      0.6535770000      0.1986600000
H                  6.3226040000     -1.0304860000     -0.2188130000
H                  5.4507180000     -0.0491580000      2.1602100000
H                  4.5910490000     -1.3319970000      1.3314220000
H                  3.0569580000      0.4658350000      2.0941660000
H                  3.9115100000      1.6502860000      1.1399980000
$end
$rem
MAX_SCF_CYCLES=200
BASIS  =  6-311++G(d,p)
GUI  =  2
JOB_TYPE  =  SP
METHOD  =  B3LYP
SOLVENT_METHOD = PCM
$end
$pcm
theory = CPCM
$end
$solvent
dielectric 37.219
opticaldielectric 1.43
$end

--------------------------------------------------------------

             Standard Nuclear Orientation (Angstroms)
    I     Atom           X                Y                Z
 ----------------------------------------------------------------
    1      O       1.1984250000     1.6506640000     1.8466600000
    2      C       0.6527820000     0.8434890000     1.0932530000
    3      C      -0.7718190000     0.6431170000     1.1150990000
    4      C      -1.4634180000    -0.0868610000     0.1774250000
    5      N      -2.8158060000    -0.2180710000     0.2024960000
    6      C      -3.5458720000     0.2452270000     1.3928510000
    7      C      -4.9564810000    -0.3402140000     1.4339040000
    8      C      -5.7974530000     0.0997570000     0.2200020000
    9      C      -4.9000550000     0.2865320000    -1.0212480000
   10      C      -3.6457120000    -0.5901700000    -0.9672230000
   11      C      -0.6528090000    -0.8461980000    -0.8669150000
   12      O      -1.1983680000    -1.6540920000    -1.6195960000
   13      C       0.7717150000    -0.6454710000    -0.8890390000
   14      C       1.4632890000     0.0847840000     0.0484710000
   15      N       2.8156240000     0.2164820000     0.0229330000
   16      C       3.5454180000    -0.2457280000    -1.1680130000
   17      C       4.9550070000     0.3421240000    -1.2102870000
   18      C       5.7978170000    -0.0964190000     0.0028330000
   19      C       4.9017030000    -0.2855690000     1.2446330000
   20      C       3.6458100000     0.5890100000     1.1923160000
   21      H      -1.2775760000     1.2232710000     1.8738560000
   22      H      -3.5882790000     1.3445300000     1.4152320000
   23      H      -2.9839990000    -0.0693310000     2.2758050000
   24      H      -5.4337800000    -0.0391170000     2.3701430000
   25      H      -4.8767600000    -1.4313650000     1.4630650000
   26      H      -6.5706640000    -0.6486290000     0.0239110000
   27      H      -6.3203710000     1.0350250000     0.4410040000
   28      H      -5.4487420000     0.0504280000    -1.9371050000
   29      H      -4.5874940000     1.3323490000    -1.1085190000
   30      H      -3.0559030000    -0.4689700000    -1.8686950000
   31      H      -3.9133520000    -1.6509200000    -0.9140590000
   32      H       1.2775900000    -1.2257490000    -1.6476310000
   33      H       3.5895970000    -1.3449540000    -1.1904250000
   34      H       2.9822760000     0.0679250000    -2.0504670000
   35      H       5.4319720000     0.0419240000    -2.1469860000
   36      H       4.8733120000     1.4331370000    -1.2393070000
   37      H       6.5695330000     0.6535770000     0.1986600000
   38      H       6.3226040000    -1.0304860000    -0.2188130000
   39      H       5.4507180000    -0.0491580000     2.1602100000
   40      H       4.5910490000    -1.3319970000     1.3314220000
   41      H       3.0569580000     0.4658350000     2.0941660000
   42      H       3.9115100000     1.6502860000     1.1399980000
 ----------------------------------------------------------------

    9    -883.1341667189      3.89e-06  Convergence criterion met
 Total energy in the final basis set =     -883.1341667189

                    Orbital Energies (a.u.)
 --------------------------------------------------------------

 Alpha MOs
 -- Occupied --
-19.1076 -19.1076 -14.3598 -14.3598 -10.2642 -10.2642 -10.2393 -10.2393
-10.2059 -10.2059 -10.2020 -10.2020 -10.1691 -10.1691 -10.1671 -10.1670
-10.1645 -10.1645 -10.1643 -10.1643  -1.0452  -1.0426  -0.9671  -0.9670
 -0.8386  -0.8150  -0.7908  -0.7658  -0.7642  -0.7452  -0.7020  -0.6812
 -0.6534  -0.6462  -0.6336  -0.6003  -0.5834  -0.5499  -0.5408  -0.5296
 -0.5193  -0.5189  -0.5029  -0.4985  -0.4573  -0.4569  -0.4468  -0.4464
 -0.4405  -0.4287  -0.4278  -0.4261  -0.4241  -0.4148  -0.4114  -0.4082
 -0.3977  -0.3886  -0.3830  -0.3814  -0.3718  -0.3705  -0.3462  -0.3435
 -0.3314  -0.3312  -0.3219  -0.3213  -0.3075  -0.3071  -0.2648  -0.2605
 -0.2285  -0.2124

          Ground-State Mulliken Net Atomic Charges

     Atom                 Charge (a.u.)
  ----------------------------------------
      1 O                    -0.360127
      2 C                     0.017424
      3 C                    -0.046163
      4 C                    -0.371518
      5 N                     0.315677
      6 C                    -0.147091
      7 C                    -0.483576
      8 C                    -0.534183
      9 C                    -0.284851
     10 C                    -0.243156
     11 C                     0.017233
     12 O                    -0.360155
     13 C                    -0.045034
     14 C                    -0.370480
     15 N                     0.315873
     16 C                    -0.147603
     17 C                    -0.483575
     18 C                    -0.534759
     19 C                    -0.283552
     20 C                    -0.244430
     21 H                     0.253698
     22 H                     0.197362
     23 H                     0.204556
     24 H                     0.190178
     25 H                     0.189612
     26 H                     0.163912
     27 H                     0.163952
     28 H                     0.189793
     29 H                     0.177362
     30 H                     0.208331
     31 H                     0.198181
     32 H                     0.253700
     33 H                     0.197434
     34 H                     0.204529
     35 H                     0.190196
     36 H                     0.189512
     37 H                     0.163884
     38 H                     0.163974
     39 H                     0.189807
     40 H                     0.177253
     41 H                     0.208478
     42 H                     0.198338
  ----------------------------------------
  Sum of atomic charges =    -0.000004

                    Cartesian Multipole Moments
 -----------------------------------------------------------------
    Charge (ESU x 10^10)
                -0.0000
    Dipole Moment (Debye)
         X       0.0006      Y       0.0057      Z      -0.0043
       Tot       0.0072
    Quadrupole Moments (Debye-Ang)
        XX     -75.6546     XY      -7.5808     YY    -132.2398
        XZ     -10.0535     YZ      -9.8004     ZZ    -125.9845

 Total job time:  192.85s(wall), 781.12s(cpu)
        *  Thank you very much for using Q-Chem.  Have a nice day.  *
