 Gaussian 16, Revision A.03,
 Gaussian 16:  ES64L-G16RevA.03 25-Dec-2016

 ----------------------------------------------------------------------
 #P UB3LYP/6-311++G(d,p) nosym opt freq SCRF=(PCM,Solvent=n,n-DiMethylF
 ormamide)
 ----------------------------------------------------------------------

 -------
 Radical
 -------
 Symbolic Z-matrix:
 Charge = -3 Multiplicity = 2

 SCF Done:  E(UB3LYP) =  -1936.02892036     A.U. after   20 cycles
 SCF Done:  E(UB3LYP) =  -1936.03002286     A.U. after   17 cycles
 SCF Done:  E(UB3LYP) =  -1936.03008272     A.U. after   15 cycles
 SCF Done:  E(UB3LYP) =  -1936.03008920     A.U. after   13 cycles
 SCF Done:  E(UB3LYP) =  -1936.03009105     A.U. after   12 cycles
 SCF Done:  E(UB3LYP) =  -1936.03009176     A.U. after   12 cycles
 SCF Done:  E(UB3LYP) =  -1936.03009195     A.U. after   10 cycles
 SCF Done:  E(UB3LYP) =  -1936.03009213     A.U. after   10 cycles
 SCF Done:  E(UB3LYP) =  -1936.03009261     A.U. after   12 cycles
 SCF Done:  E(UB3LYP) =  -1935.96816343     A.U. after   22 cycles
 SCF Done:  E(UB3LYP) =  -1936.02869489     A.U. after   19 cycles
 SCF Done:  E(UB3LYP) =  -1936.02900263     A.U. after   17 cycles
 SCF Done:  E(UB3LYP) =  -1936.03010284     A.U. after    6 cycles
 SCF Done:  E(UB3LYP) =  -1936.02994752     A.U. after   16 cycles
 SCF Done:  E(UB3LYP) =  -1936.03009443     A.U. after   16 cycles
 SCF Done:  E(UB3LYP) =  -1936.03010283     A.U. after   13 cycles
 SCF Done:  E(UB3LYP) =  -1936.03010354     A.U. after   12 cycles
 SCF Done:  E(UB3LYP) =  -1936.03010456     A.U. after   12 cycles
 SCF Done:  E(UB3LYP) =  -1936.03010449     A.U. after   10 cycles
 Optimization completed.
    -- Stationary point found.
 Normal termination of Gaussian 16 at Sun Feb 11 03:02:00 2024.

 ----------------------------------------------------------------------
 #P Geom=AllCheck Guess=TCheck SCRF=Check GenChk UB3LYP/6-311++G(d,p) F
 req
 ----------------------------------------------------------------------

 Structure from the checkpoint file:  "226-rad.chk"
 -------
 Radical
 -------
 Charge = -3 Multiplicity = 2

                          Input orientation:
 ---------------------------------------------------------------------
 Center     Atomic      Atomic             Coordinates (Angstroms)
 Number     Number       Type             X           Y           Z
 ---------------------------------------------------------------------
      1          8           0       -6.039175    0.323496   -1.173606
      2         16           0       -5.348091    0.615926    0.117784
      3          8           0       -5.178428    2.074600    0.370424
      4          8           0       -5.970076   -0.105019    1.269393
      5          6           0       -3.683095   -0.069373   -0.051703
      6          6           0       -3.536747   -1.434763   -0.387324
      7          6           0       -2.273588   -1.970013   -0.508943
      8          6           0       -1.114637   -1.184028   -0.303907
      9          6           0        0.204292   -1.794375   -0.444519
     10          8           0        0.343678   -3.012604   -0.747359
     11          6           0        1.354043   -0.923354   -0.217304
     12          6           0        2.662246   -1.449737   -0.336380
     13          6           0        3.775202   -0.664927   -0.131935
     14          6           0        3.611179    0.698218    0.205019
     15          6           0        2.351899    1.241912    0.329133
     16          6           0        1.198572    0.450872    0.123026
     17          6           0       -0.121602    1.063877    0.264019
     18          8           0       -0.260813    2.279028    0.565911
     19          6           0       -1.271996    0.190106    0.035831
     20          6           0       -2.575674    0.722764    0.155343
     21         16           0        5.083507    1.717106    0.460191
     22          8           0        5.810770    1.712945   -0.845070
     23          8           0        4.596976    3.070536    0.849935
     24          8           0        5.859639    1.042360    1.543518
     25          1           0       -4.412466   -2.051448   -0.551140
     26          1           0       -2.142750   -3.013666   -0.768140
     27          1           0        2.768732   -2.496282   -0.594310
     28          1           0        4.768817   -1.086650   -0.226353
     29          1           0        2.229988    2.285122    0.587735
     30          1           0       -2.690399    1.767374    0.410735
 ---------------------------------------------------------------------

 SCF Done:  E(UB3LYP) =  -1936.03010449     A.U. after    2 cycles

 Alpha  occ. eigenvalues --  -89.03752 -89.03748 -19.08285 -19.08285 -19.08196
 Alpha  occ. eigenvalues --  -19.08195 -19.08192 -19.08190 -19.07699 -19.07578
 Alpha  occ. eigenvalues --  -10.22666 -10.22428 -10.19321 -10.19320 -10.17842
 Alpha  occ. eigenvalues --  -10.17839 -10.17641 -10.17638 -10.17578 -10.17576
 Alpha  occ. eigenvalues --  -10.17557 -10.17554 -10.17302 -10.17294  -8.09656
 Alpha  occ. eigenvalues --   -8.09652  -6.05933  -6.05929  -6.05921  -6.05917
 Alpha  occ. eigenvalues --   -6.05817  -6.05813  -1.09952  -1.09945  -1.00229
 Alpha  occ. eigenvalues --   -0.99872  -0.96347  -0.96342  -0.96067  -0.96062
 Alpha  occ. eigenvalues --   -0.86701  -0.85813  -0.79437  -0.75783  -0.75769
 Alpha  occ. eigenvalues --   -0.74871  -0.67908  -0.65616  -0.64225  -0.60108
 Alpha  occ. eigenvalues --   -0.59220  -0.57349  -0.55892  -0.52232  -0.52034
 Alpha  occ. eigenvalues --   -0.48754  -0.47927  -0.47663  -0.46193  -0.44556
 Alpha  occ. eigenvalues --   -0.44522  -0.44388  -0.44040  -0.43077  -0.42798
 Alpha  occ. eigenvalues --   -0.42332  -0.42233  -0.41637  -0.41075  -0.39579
 Alpha  occ. eigenvalues --   -0.38015  -0.37530  -0.37440  -0.35113  -0.34981
 Alpha  occ. eigenvalues --   -0.34012  -0.32660  -0.32616  -0.32604  -0.32599
 Alpha  occ. eigenvalues --   -0.29739  -0.29512  -0.28818  -0.28734  -0.28579
 Alpha  occ. eigenvalues --   -0.28491  -0.26349  -0.26095  -0.25571  -0.24740
 Alpha  occ. eigenvalues --   -0.24723  -0.24655  -0.24422  -0.23812  -0.14507
 Alpha virt. eigenvalues --   -0.05648  -0.03147  -0.00603   0.00136   0.01020
 Alpha virt. eigenvalues --    0.01745   0.02607   0.02994   0.03655   0.04419
 Alpha virt. eigenvalues --    0.04551   0.04659   0.05064   0.05241   0.05997

  Beta  occ. eigenvalues --  -89.03753 -89.03749 -19.08283 -19.08282 -19.08193
  Beta  occ. eigenvalues --  -19.08191 -19.08188 -19.08186 -19.07148 -19.06993
  Beta  occ. eigenvalues --  -10.22513 -10.22256 -10.19265 -10.19264 -10.17792
  Beta  occ. eigenvalues --  -10.17789 -10.17593 -10.17589 -10.17539 -10.17537
  Beta  occ. eigenvalues --  -10.17488 -10.17486 -10.17301 -10.17293  -8.09657
  Beta  occ. eigenvalues --   -8.09653  -6.05934  -6.05929  -6.05922  -6.05918
  Beta  occ. eigenvalues --   -6.05820  -6.05815  -1.09946  -1.09939  -0.99263
  Beta  occ. eigenvalues --   -0.98842  -0.96342  -0.96336  -0.96059  -0.96054
  Beta  occ. eigenvalues --   -0.86442  -0.85700  -0.79035  -0.75651  -0.75513
  Beta  occ. eigenvalues --   -0.74704  -0.67311  -0.65336  -0.64053  -0.59993
  Beta  occ. eigenvalues --   -0.59086  -0.57267  -0.55638  -0.52131  -0.51865
  Beta  occ. eigenvalues --   -0.48620  -0.47842  -0.47458  -0.46097  -0.44515
  Beta  occ. eigenvalues --   -0.44496  -0.44348  -0.43973  -0.43046  -0.42757
  Beta  occ. eigenvalues --   -0.42018  -0.41529  -0.41098  -0.40588  -0.39287
  Beta  occ. eigenvalues --   -0.37402  -0.37132  -0.35665  -0.35045  -0.34035
  Beta  occ. eigenvalues --   -0.33831  -0.32648  -0.32596  -0.32590  -0.32546
  Beta  occ. eigenvalues --   -0.29613  -0.28804  -0.28793  -0.28722  -0.28557
  Beta  occ. eigenvalues --   -0.28440  -0.25755  -0.24895  -0.24719  -0.24715
  Beta  occ. eigenvalues --   -0.24302  -0.24134  -0.23962  -0.23292
  Beta virt. eigenvalues --   -0.08616  -0.04756  -0.02119  -0.00388   0.00154
  Beta virt. eigenvalues --    0.01021   0.01757   0.02626   0.02991   0.04232
  Beta virt. eigenvalues --    0.04576   0.04658   0.04684   0.05084   0.05247

 Mulliken charges and spin densities:
               1          2
     1  O   -0.381583  -0.000474
     2  S    0.855849   0.001600
     3  O   -0.419179   0.000495
     4  O   -0.367099  -0.000061
     5  C   -1.097441   0.029262
     6  C   -0.533053   0.041785
     7  C   -0.203463   0.029241
     8  C    0.595030   0.040708
     9  C   -0.390127   0.092734
    10  O   -0.446276   0.217447
    11  C    0.599337   0.040979
    12  C   -0.207796   0.029096
    13  C   -0.538269   0.041871
    14  C   -1.106347   0.028996
    15  C    0.105333   0.007412
    16  C    0.463193   0.055358
    17  C   -0.933519   0.085557
    18  O   -0.434823   0.204656
    19  C    0.455139   0.055241
    20  C    0.102134   0.007249
    21  S    0.855350   0.001633
    22  O   -0.368926  -0.000178
    23  O   -0.418731   0.000461
    24  O   -0.377049  -0.000410
    25  H    0.214861  -0.003321
    26  H    0.167658  -0.001324
    27  H    0.166760  -0.001323
    28  H    0.215486  -0.003341
    29  H    0.214662  -0.000676
    30  H    0.212893  -0.000672
 Sum of Mulliken charges =  -3.00000   1.00000

 Dipole moment (field-independent basis, Debye):
    X=              1.5923    Y=            -14.0080    Z=             -3.4877  Tot=             14.5232
 Quadrupole moment (field-independent basis, Debye-Ang):
   XX=           -509.9099   YY=           -226.3601   ZZ=           -181.4429
   XY=            -29.8973   XZ=             -9.3094   YZ=            -12.1295

  Exact polarizability: 615.206  20.263 409.073   7.988  51.067 217.070
 Approx polarizability: 589.273   8.737 487.654   4.780  61.654 255.424

                      1                      2                      3
                      A                      A                      A
 Frequencies --     25.0680                30.4456                33.3764
 Red. masses --     14.0485                14.5866                12.5603
 Frc consts  --      0.0052                 0.0080                 0.0082
 IR Inten    --      1.0570                 0.1318                 1.1069

                      4                      5                      6
                      A                      A                      A
 Frequencies --     53.4401                73.2322                78.8372
 Red. masses --      6.9930                14.5396                10.2527
 Frc consts  --      0.0118                 0.0459                 0.0375
 IR Inten    --      0.3718                 6.7817                23.9487

                      7                      8                      9
                      A                      A                      A
 Frequencies --    130.0535               133.2253               143.1826
 Red. masses --     10.5988                 5.2672                 5.8989
 Frc consts  --      0.1056                 0.0551                 0.0713
 IR Inten    --      1.3503                 0.0183                 2.0932

                     10                     11                     12
                      A                      A                      A
 Frequencies --    169.7744               184.1003               224.4741
 Red. masses --     11.7792                15.6877                 8.1788
 Frc consts  --      0.2000                 0.3133                 0.2428
 IR Inten    --      2.5239                 0.8286                 0.0140

                     13                     14                     15
                      A                      A                      A
 Frequencies --    228.2418               246.5600               269.4558
 Red. masses --      9.6336                13.3630                13.0006
 Frc consts  --      0.2957                 0.4786                 0.5561
 IR Inten    --      9.1768                 5.0055                 0.0218

                     16                     17                     18
                      A                      A                      A
 Frequencies --    318.5445               345.0608               374.8990
 Red. masses --      8.0612                 6.7736                 7.5056
 Frc consts  --      0.4819                 0.4752                 0.6215
 IR Inten    --      1.1978                 0.0171                25.0466

                     19                     20                     21
                      A                      A                      A
 Frequencies --    376.2525               388.2390               412.0611
 Red. masses --      7.5667                10.8471                 3.4994
 Frc consts  --      0.6311                 0.9633                 0.3501
 IR Inten    --      5.7884                40.5014                 1.5463

                     22                     23                     24
                      A                      A                      A
 Frequencies --    436.3915               451.5858               457.1352
 Red. masses --      8.3229                 9.5297                 3.2811
 Frc consts  --      0.9338                 1.1450                 0.4040
 IR Inten    --      2.0531                 7.5965                 0.0504

                     25                     26                     27
                      A                      A                      A
 Frequencies --    471.1275               485.5780               501.9648
 Red. masses --      9.0031                10.0185                10.6975
 Frc consts  --      1.1774                 1.3918                 1.5881
 IR Inten    --    106.6889                 0.0238                 1.0321

                     28                     29                     30
                      A                      A                      A
 Frequencies --    512.8849               519.6350               522.5522
 Red. masses --     14.7344                12.4161                10.8193
 Frc consts  --      2.2836                 1.9753                 1.7406
 IR Inten    --     26.7297                 1.3787               107.7783

                     31                     32                     33
                      A                      A                      A
 Frequencies --    578.3822               598.3773               598.9528
 Red. masses --      6.5551                13.0624                13.7118
 Frc consts  --      1.2920                 2.7557                 2.8982
 IR Inten    --      0.1552               342.6733               436.5802

                     34                     35                     36
                      A                      A                      A
 Frequencies --    648.0309               652.3254               680.1496
 Red. masses --      3.9941                 7.7040                 7.7476
 Frc consts  --      0.9882                 1.9315                 2.1117
 IR Inten    --     66.5017                71.3020                 1.8447

                     37                     38                     39
                      A                      A                      A
 Frequencies --    703.3881               715.6125               722.1897
 Red. masses --      6.7539                 5.1498                 4.9854
 Frc consts  --      1.9688                 1.5538                 1.5320
 IR Inten    --      4.9045                 0.3805                33.1620

                     40                     41                     42
                      A                      A                      A
 Frequencies --    726.8213               790.1691               817.9593
 Red. masses --      8.4075                 3.5879                 1.4044
 Frc consts  --      2.6168                 1.3199                 0.5536
 IR Inten    --     57.8345                 1.8512                 0.0493

                     43                     44                     45
                      A                      A                      A
 Frequencies --    835.4391               849.8528               929.0254
 Red. masses --      1.9814                 7.3947                 2.7253
 Frc consts  --      0.8148                 3.1467                 1.3859
 IR Inten    --     43.6696                 4.0411               125.0746

                     46                     47                     48
                      A                      A                      A
 Frequencies --    929.5976               936.3280               952.6640
 Red. masses --      1.9283                 1.3758                10.6515
 Frc consts  --      0.9818                 0.7107                 5.6956
 IR Inten    --     78.5812                16.7788               384.8709

                     49                     50                     51
                      A                      A                      A
 Frequencies --    971.9085               979.2216               983.2041
 Red. masses --     12.8924                 1.3262                 1.3396
 Frc consts  --      7.1752                 0.7492                 0.7630
 IR Inten    --     90.4781                 1.0266                 7.8308

                     52                     53                     54
                      A                      A                      A
 Frequencies --   1002.1006              1068.0020              1076.1335
 Red. masses --      4.3427                 2.0516                 2.3449
 Frc consts  --      2.5694                 1.3787                 1.6000
 IR Inten    --    280.0806                24.0887               515.3256

                     55                     56                     57
                      A                      A                      A
 Frequencies --   1101.3963              1102.0897              1116.2032
 Red. masses --     20.2619                20.1821                 5.2651
 Frc consts  --     14.4816                14.4428                 3.8650
 IR Inten    --    485.0929               698.8851               362.1000

                     58                     59                     60
                      A                      A                      A
 Frequencies --   1117.2523              1128.9787              1132.2226
 Red. masses --      8.1896                 2.1709                 2.3542
 Frc consts  --      6.0230                 1.6303                 1.7781
 IR Inten    --    625.9405                74.6866                57.4637

                     61                     62                     63
                      A                      A                      A
 Frequencies --   1180.8986              1191.2004              1201.1777
 Red. masses --      4.2856                 1.9615                 5.3692
 Frc consts  --      3.5211                 1.6399                 4.5643
 IR Inten    --      0.0361                 7.3591                51.3298

                     64                     65                     66
                      A                      A                      A
 Frequencies --   1211.5208              1244.9107              1311.7952
 Red. masses --      1.7630                 1.7149                 2.0535
 Frc consts  --      1.5246                 1.5659                 2.0820
 IR Inten    --     22.5601               222.0511                 5.1340

                     67                     68                     69
                      A                      A                      A
 Frequencies --   1362.5944              1364.1722              1378.8861
 Red. masses --     10.5903                10.8718                 3.9455
 Frc consts  --     11.5849                11.9204                 4.4198
 IR Inten    --     51.8856                48.2582               709.9687

                     70                     71                     72
                      A                      A                      A
 Frequencies --   1442.8194              1471.0752              1477.7222
 Red. masses --      3.4691                 3.7748                 3.9169
 Frc consts  --      4.2549                 4.8129                 5.0394
 IR Inten    --     44.7981               809.8998                65.7902

                     73                     74                     75
                      A                      A                      A
 Frequencies --   1491.5089              1522.1774              1545.8999
 Red. masses --      4.7895                 7.0948                 6.4101
 Frc consts  --      6.2775                 9.6855                 9.0256
 IR Inten    --    845.7328                81.3473               151.9704

                     76                     77                     78
                      A                      A                      A
 Frequencies --   1604.5267              1612.7365              1624.0158
 Red. masses --      9.5530                 6.2531                 6.9787
 Frc consts  --     14.4905                 9.5824                10.8445
 IR Inten    --      2.4076                 4.4965                11.3365

                     79                     80                     81
                      A                      A                      A
 Frequencies --   3177.7030              3179.6452              3192.1872
 Red. masses --      1.0868                 1.0869                 1.0947
 Frc consts  --      6.4659                 6.4743                 6.5726
 IR Inten    --      0.7495                 1.2836                21.1192

                     82                     83                     84
                      A                      A                      A
 Frequencies --   3194.8276              3208.3771              3212.3631
 Red. masses --      1.0943                 1.0897                 1.0894
 Frc consts  --      6.5809                 6.6089                 6.6238
 IR Inten    --     19.8819                 3.6998                 4.5907

 - Thermochemistry -
 -------------------
 Temperature   298.150 Kelvin.  Pressure   1.00000 Atm.
 Atom     1 has atomic number  8 and mass  15.99491

 Molecular mass:   365.95041 amu.
 Principal axes and moments of inertia in atomic units:
                           1         2         3
     Eigenvalues --  3229.22120********************
           X            0.99394  -0.10971  -0.00664
           Y            0.10488   0.96478  -0.24123
           Z            0.03287   0.23907   0.97045
 This molecule is an asymmetric top.
 Rotational symmetry number  1.
 Warning -- assumption of classical behavior for rotation
           may cause significant error
 Rotational temperatures (Kelvin)      0.02682     0.00405     0.00362
 Rotational constants (GHZ):           0.55888     0.08440     0.07549
 Zero-point vibrational energy     475193.2 (Joules/Mol)
                                  113.57390 (Kcal/Mol)
 Warning -- explicit consideration of  33 degrees of freedom as
           vibrations may cause significant error
 Vibrational temperatures:     36.07    43.80    48.02    76.89   105.36
          (Kelvin)            113.43   187.12   191.68   206.01   244.27
                              264.88   322.97   328.39   354.74   387.69
                              458.31   496.47   539.40   541.34   558.59
                              592.86   627.87   649.73   657.72   677.85
                              698.64   722.22   737.93   747.64   751.84
                              832.16   860.93   861.76   932.37   938.55
                              978.58  1012.02  1029.61  1039.07  1045.73
                             1136.88  1176.86  1202.01  1222.75  1336.66
                             1337.48  1347.17  1370.67  1398.36  1408.88
                             1414.61  1441.80  1536.62  1548.32  1584.66
                             1585.66  1605.97  1607.48  1624.35  1629.02
                             1699.05  1713.87  1728.23  1743.11  1791.15
                             1887.38  1960.47  1962.74  1983.91  2075.90
                             2116.55  2126.11  2145.95  2190.07  2224.21
                             2308.56  2320.37  2336.60  4572.01  4574.80
                             4592.85  4596.64  4616.14  4621.87

 Zero-point correction=                           0.180992 (Hartree/Particle)
 Thermal correction to Energy=                    0.200523
 Thermal correction to Enthalpy=                  0.201467
 Thermal correction to Gibbs Free Energy=         0.129963
 Sum of electronic and zero-point Energies=          -1935.849113
 Sum of electronic and thermal Energies=             -1935.829581
 Sum of electronic and thermal Enthalpies=           -1935.828637
 Sum of electronic and thermal Free Energies=        -1935.900142

                     E (Thermal)             CV                S
                      KCal/Mol        Cal/Mol-Kelvin    Cal/Mol-Kelvin
 Total                  125.830             74.411            150.494
 Electronic               0.000              0.000              1.377
 Translational            0.889              2.981             43.585
 Rotational               0.889              2.981             35.755
 Vibrational            124.053             68.450             69.776
 Vibration     1          0.593              1.985              6.186
 Vibration     2          0.594              1.984              5.800
 Vibration     3          0.594              1.983              5.618
 Vibration     4          0.596              1.976              4.686
 Vibration     5          0.599              1.967              4.065
 Vibration     6          0.600              1.963              3.920
 Vibration     7          0.612              1.923              2.945
 Vibration     8          0.613              1.920              2.899
 Vibration     9          0.616              1.910              2.761
 Vibration    10          0.625              1.880              2.438
 Vibration    11          0.631              1.862              2.286
 Vibration    12          0.649              1.804              1.923
 Vibration    13          0.651              1.798              1.893
 Vibration    14          0.661              1.768              1.755
 Vibration    15          0.674              1.729              1.600
 Vibration    16          0.705              1.638              1.318
 Vibration    17          0.723              1.585              1.189
 Vibration    18          0.746              1.524              1.060
 Vibration    19          0.747              1.521              1.054
 Vibration    20          0.756              1.495              1.007
 Vibration    21          0.776              1.444              0.919
 Vibration    22          0.797              1.391              0.838
 Vibration    23          0.810              1.357              0.791
 Vibration    24          0.815              1.345              0.774
 Vibration    25          0.828              1.314              0.734
 Vibration    26          0.842              1.282              0.695
 Vibration    27          0.857              1.246              0.653
 Vibration    28          0.868              1.221              0.627
 Vibration    29          0.875              1.207              0.611
 Vibration    30          0.878              1.200              0.604
 Vibration    31          0.935              1.078              0.488
 Vibration    32          0.956              1.035              0.452
 Vibration    33          0.957              1.034              0.451

                           ! Non-Optimized Parameters !
 Normal termination of Gaussian 16 at Sun Feb 11 04:16:04 2024.
