 Q-Chem 5.4, Q-Chem, Inc., Pleasanton, CA (2021)
 Q-Chem 5.4.0 for Intel X86 EM64T Linux

User input:
--------------------------------------------------------------
$molecule
0 1
O                 -2.2907030000     -2.6673530000     -0.4306210000
C                 -2.3536740000     -1.3350140000     -0.2024930000
C                 -3.5969180000     -0.7012190000     -0.0806290000
C                 -3.6836890000      0.6629790000      0.1532190000
C                 -2.5257420000      1.4241690000      0.2704640000
C                 -1.2813190000      0.8113630000      0.1521870000
C                 -0.0721210000      1.6853390000      0.2882060000
O                 -0.1902870000      2.8823960000      0.4937890000
C                  1.2644670000      1.0472030000      0.1649890000
C                  2.3990470000      1.8396440000      0.2882980000
C                  3.6638060000      1.2560590000      0.1751880000
C                  3.7979370000     -0.1018270000     -0.0581870000
C                  2.6616210000     -0.9171610000     -0.1854240000
O                  2.8553520000     -2.2216590000     -0.4103660000
C                  1.3700300000     -0.3416350000     -0.0733460000
C                  0.1791560000     -1.1996270000     -0.2071610000
O                  0.3130280000     -2.4121900000     -0.4159650000
C                 -1.1630730000     -0.5782350000     -0.0863570000
H                 -3.1859190000     -3.0219800000     -0.4813140000
H                 -4.5004160000     -1.2973940000     -0.1724970000
H                 -4.6572580000      1.1307800000      0.2437690000
H                 -2.5622560000      2.4898280000      0.4527930000
H                  2.2786330000      2.8993250000      0.4706040000
H                  4.5513480000      1.8713790000      0.2708790000
H                  4.7709540000     -0.5693560000     -0.1483820000
H                  1.9579970000     -2.6358150000     -0.4716420000
$end

$rem
BASIS  =  6-311++G(d,p)
GUI  =  2
JOB_TYPE  =  SP
METHOD  =  B3LYP
SCF_CONVERGENCE  = 8
SOLVENT_METHOD = sm12
$end

$smx
solvent dimethylformamide
charges CM5
$end

--------------------------------------------------------------

             Standard Nuclear Orientation (Angstroms)
    I     Atom           X                Y                Z
 ----------------------------------------------------------------
    1      O      -2.2907030000    -2.6673530000    -0.4306210000
    2      C      -2.3536740000    -1.3350140000    -0.2024930000
    3      C      -3.5969180000    -0.7012190000    -0.0806290000
    4      C      -3.6836890000     0.6629790000     0.1532190000
    5      C      -2.5257420000     1.4241690000     0.2704640000
    6      C      -1.2813190000     0.8113630000     0.1521870000
    7      C      -0.0721210000     1.6853390000     0.2882060000
    8      O      -0.1902870000     2.8823960000     0.4937890000
    9      C       1.2644670000     1.0472030000     0.1649890000
   10      C       2.3990470000     1.8396440000     0.2882980000
   11      C       3.6638060000     1.2560590000     0.1751880000
   12      C       3.7979370000    -0.1018270000    -0.0581870000
   13      C       2.6616210000    -0.9171610000    -0.1854240000
   14      O       2.8553520000    -2.2216590000    -0.4103660000
   15      C       1.3700300000    -0.3416350000    -0.0733460000
   16      C       0.1791560000    -1.1996270000    -0.2071610000
   17      O       0.3130280000    -2.4121900000    -0.4159650000
   18      C      -1.1630730000    -0.5782350000    -0.0863570000
   19      H      -3.1859190000    -3.0219800000    -0.4813140000
   20      H      -4.5004160000    -1.2973940000    -0.1724970000
   21      H      -4.6572580000     1.1307800000     0.2437690000
   22      H      -2.5622560000     2.4898280000     0.4527930000
   23      H       2.2786330000     2.8993250000     0.4706040000
   24      H       4.5513480000     1.8713790000     0.2708790000
   25      H       4.7709540000    -0.5693560000    -0.1483820000
   26      H       1.9579970000    -2.6358150000    -0.4716420000
 ----------------------------------------------------------------

   15    -839.4495630622      2.82e-09  Convergence criterion met
 Total energy in the final basis set =     -839.4790463646

                    Orbital Energies (a.u.)
 --------------------------------------------------------------

 Alpha MOs
 -- Occupied --
-19.1737 -19.1596 -19.1340 -19.1275 -10.2890 -10.2810 -10.2708 -10.2665
-10.2130 -10.2118 -10.2101 -10.2089 -10.2018 -10.2014 -10.1994 -10.1950
-10.1930 -10.1920  -1.0933  -1.0879  -1.0630  -1.0577  -0.8931  -0.8795
 -0.8163  -0.7781  -0.7738  -0.7687  -0.6944  -0.6749  -0.6603  -0.6301
 -0.6053  -0.5831  -0.5619  -0.5400  -0.5258  -0.5096  -0.4963  -0.4892
 -0.4778  -0.4676  -0.4596  -0.4534  -0.4490  -0.4366  -0.4262  -0.4135
 -0.4113  -0.4038  -0.3992  -0.3830  -0.3784  -0.3754  -0.3627  -0.3531
 -0.2931  -0.2879  -0.2804  -0.2731  -0.2547  -0.2486

          Ground-State Mulliken Net Atomic Charges

     Atom                 Charge (a.u.)
  ----------------------------------------
      1 O                    -0.195068
      2 C                     0.278575
      3 C                     1.370193
      4 C                     0.791495
      5 C                     0.385406
      6 C                    -0.139501
      7 C                    -1.501411
      8 O                    -0.253884
      9 C                    -0.291423
     10 C                    -0.034775
     11 C                     0.436369
     12 C                     0.195941
     13 C                    -0.644512
     14 O                    -0.330863
     15 C                    -0.291831
     16 C                    -1.079781
     17 O                    -0.314595
     18 C                    -0.699614
     19 H                     0.348078
     20 H                     0.337954
     21 H                     0.352660
     22 H                     0.162745
     23 H                     0.185875
     24 H                     0.360110
     25 H                     0.250989
     26 H                     0.320866
  ----------------------------------------
  Sum of atomic charges =     0.000000

                    Cartesian Multipole Moments
 -----------------------------------------------------------------
    Charge (ESU x 10^10)
                 0.0000
    Dipole Moment (Debye)
         X      -4.1962      Y      -0.0356      Z       0.0417
       Tot       4.1966
    Quadrupole Moments (Debye-Ang)
        XX     -68.7923     XY      14.4917     YY    -112.6002
        XZ       2.0772     YZ      -1.3985     ZZ    -105.5903

 Total job time:  532.77s(wall), 4136.12s(cpu)
        *  Thank you very much for using Q-Chem.  Have a nice day.  *
