 Gaussian 16, Revision A.03,
 Gaussian 16:  ES64L-G16RevA.03 25-Dec-2016

 --------------------------------------
 #P UB3LYP/6-311++G(d,p) nosym opt freq
 --------------------------------------

 --------
 Oxidized
 --------
 Symbolic Z-matrix:
 Charge =  0 Multiplicity = 1

 SCF Done:  E(UB3LYP) =  -839.451682668     A.U. after   15 cycles
 SCF Done:  E(UB3LYP) =  -839.451682501     A.U. after    9 cycles
 SCF Done:  E(UB3LYP) =  -839.451682756     A.U. after    8 cycles
 Optimization completed.
    -- Stationary point found.
 Normal termination of Gaussian 16 at Sun Jan  7 05:06:57 2024.

 ----------------------------------------------------------------------
 #P Geom=AllCheck Guess=TCheck SCRF=Check GenChk UB3LYP/6-311++G(d,p) F
 req
 ----------------------------------------------------------------------

 Structure from the checkpoint file:  "187.chk"
 --------
 Oxidized
 --------
 Charge =  0 Multiplicity = 1

                          Input orientation:
 ---------------------------------------------------------------------
 Center     Atomic      Atomic             Coordinates (Angstroms)
 Number     Number       Type             X           Y           Z
 ---------------------------------------------------------------------
      1          8           0       -2.290703   -2.667353   -0.430621
      2          6           0       -2.353674   -1.335014   -0.202493
      3          6           0       -3.596918   -0.701219   -0.080629
      4          6           0       -3.683689    0.662979    0.153219
      5          6           0       -2.525742    1.424169    0.270464
      6          6           0       -1.281319    0.811363    0.152187
      7          6           0       -0.072121    1.685339    0.288206
      8          8           0       -0.190287    2.882396    0.493789
      9          6           0        1.264467    1.047203    0.164989
     10          6           0        2.399047    1.839644    0.288298
     11          6           0        3.663806    1.256059    0.175188
     12          6           0        3.797937   -0.101827   -0.058187
     13          6           0        2.661621   -0.917161   -0.185424
     14          8           0        2.855352   -2.221659   -0.410366
     15          6           0        1.370030   -0.341635   -0.073346
     16          6           0        0.179156   -1.199627   -0.207161
     17          8           0        0.313028   -2.412190   -0.415965
     18          6           0       -1.163073   -0.578235   -0.086357
     19          1           0       -3.185919   -3.021980   -0.481314
     20          1           0       -4.500416   -1.297394   -0.172497
     21          1           0       -4.657258    1.130780    0.243769
     22          1           0       -2.562256    2.489828    0.452793
     23          1           0        2.278633    2.899325    0.470604
     24          1           0        4.551348    1.871379    0.270879
     25          1           0        4.770954   -0.569356   -0.148382
     26          1           0        1.957997   -2.635815   -0.471642
 ---------------------------------------------------------------------

 SCF Done:  E(UB3LYP) =  -839.451682756     A.U. after    2 cycles

 Alpha  occ. eigenvalues --  -19.18170 -19.15396 -19.13179 -19.12589 -10.28716
 Alpha  occ. eigenvalues --  -10.27922 -10.27710 -10.26345 -10.21683 -10.21546
 Alpha  occ. eigenvalues --  -10.21144 -10.20943 -10.20807 -10.20626 -10.20195
 Alpha  occ. eigenvalues --  -10.19734 -10.19396 -10.19147  -1.09994  -1.08499
 Alpha  occ. eigenvalues --   -1.06077  -1.05445  -0.89614  -0.88038  -0.81871
 Alpha  occ. eigenvalues --   -0.78108  -0.77809  -0.76758  -0.69561  -0.67843
 Alpha  occ. eigenvalues --   -0.66260  -0.63250  -0.60606  -0.58748  -0.56380
 Alpha  occ. eigenvalues --   -0.53839  -0.52773  -0.51386  -0.50106  -0.49131
 Alpha  occ. eigenvalues --   -0.48070  -0.46710  -0.45828  -0.45505  -0.44910
 Alpha  occ. eigenvalues --   -0.43866  -0.42372  -0.41958  -0.41080  -0.40291
 Alpha  occ. eigenvalues --   -0.40187  -0.38627  -0.38573  -0.37288  -0.36653
 Alpha  occ. eigenvalues --   -0.35201  -0.29515  -0.28497  -0.28190  -0.27075
 Alpha  occ. eigenvalues --   -0.25975  -0.24598
 Alpha virt. eigenvalues --   -0.11887  -0.06748  -0.04337  -0.02434  -0.01690
 Alpha virt. eigenvalues --   -0.00350  -0.00137   0.01225   0.01995   0.02738
 Alpha virt. eigenvalues --    0.02952   0.03955   0.04101   0.04168   0.04226

  Beta  occ. eigenvalues --  -19.18170 -19.15396 -19.13179 -19.12589 -10.28716
  Beta  occ. eigenvalues --  -10.27922 -10.27710 -10.26345 -10.21683 -10.21546
  Beta  occ. eigenvalues --  -10.21144 -10.20943 -10.20807 -10.20626 -10.20195
  Beta  occ. eigenvalues --  -10.19734 -10.19396 -10.19147  -1.09994  -1.08499
  Beta  occ. eigenvalues --   -1.06077  -1.05445  -0.89614  -0.88038  -0.81871
  Beta  occ. eigenvalues --   -0.78108  -0.77809  -0.76758  -0.69561  -0.67843
  Beta  occ. eigenvalues --   -0.66260  -0.63250  -0.60606  -0.58748  -0.56380
  Beta  occ. eigenvalues --   -0.53839  -0.52773  -0.51386  -0.50106  -0.49131
  Beta  occ. eigenvalues --   -0.48070  -0.46710  -0.45828  -0.45505  -0.44910
  Beta  occ. eigenvalues --   -0.43866  -0.42372  -0.41958  -0.41080  -0.40291
  Beta  occ. eigenvalues --   -0.40187  -0.38627  -0.38573  -0.37288  -0.36653
  Beta  occ. eigenvalues --   -0.35201  -0.29515  -0.28497  -0.28190  -0.27075
  Beta  occ. eigenvalues --   -0.25975  -0.24598
  Beta virt. eigenvalues --   -0.11887  -0.06748  -0.04337  -0.02434  -0.01690
  Beta virt. eigenvalues --   -0.00350  -0.00137   0.01225   0.01995   0.02738
  Beta virt. eigenvalues --    0.02952   0.03955   0.04101   0.04168   0.04226

 Mulliken charges and spin densities:
               1          2
     1  O   -0.161098   0.000000
     2  C    0.117346   0.000000
     3  C   -0.182735  -0.000000
     4  C   -0.263328   0.000000
     5  C    0.050797  -0.000000
     6  C    0.351624   0.000000
     7  C   -0.576945   0.000000
     8  O   -0.208140  -0.000000
     9  C    0.287314  -0.000000
    10  C    0.008166  -0.000000
    11  C   -0.316368   0.000000
    12  C   -0.133855  -0.000000
    13  C   -0.113237   0.000000
    14  O   -0.284483   0.000000
    15  C    0.387021   0.000000
    16  C   -0.385958  -0.000000
    17  O   -0.267580  -0.000000
    18  C    0.022789   0.000000
    19  H    0.271055  -0.000000
    20  H    0.125592  -0.000000
    21  H    0.190251   0.000000
    22  H    0.175911   0.000000
    23  H    0.176088  -0.000000
    24  H    0.184872  -0.000000
    25  H    0.193806   0.000000
    26  H    0.351094   0.000000
 Sum of Mulliken charges =  -0.00000  -0.00000

 Dipole moment (field-independent basis, Debye):
    X=             -3.2009    Y=             -0.0965    Z=              0.0196  Tot=              3.2024
 Quadrupole moment (field-independent basis, Debye-Ang):
   XX=            -75.4482   YY=           -111.9099   ZZ=           -105.3921
   XY=             12.6917   XZ=              1.8453   YZ=             -1.2916

  Exact polarizability: 269.734   6.789 198.682  -0.854  19.618  86.735
 Approx polarizability: 403.131  -0.134 384.452  -2.921  42.669 141.941

                      1                      2                      3
                      A                      A                      A
 Frequencies --     34.4766                59.6608               103.0912
 Red. masses --      7.2267                 6.7804                10.0423
 Frc consts  --      0.0051                 0.0142                 0.0629
 IR Inten    --      6.2299                 0.2749                 0.3730

                      4                      5                      6
                      A                      A                      A
 Frequencies --    159.5076               196.3048               200.4984
 Red. masses --      6.6685                 4.5411                 6.4064
 Frc consts  --      0.1000                 0.1031                 0.1517
 IR Inten    --      0.0022                 0.5586                 1.0496

                      7                      8                      9
                      A                      A                      A
 Frequencies --    233.6695               267.9439               312.0331
 Red. masses --      4.7137                 4.2700                 7.0658
 Frc consts  --      0.1516                 0.1806                 0.4053
 IR Inten    --      0.8572                 8.4901                 3.6445

                     10                     11                     12
                      A                      A                      A
 Frequencies --    339.0722               356.1568               371.4504
 Red. masses --      6.6846                 1.2073                11.5127
 Frc consts  --      0.4528                 0.0902                 0.9359
 IR Inten    --      0.9032                84.0077                 5.3025

                     13                     14                     15
                      A                      A                      A
 Frequencies --    428.9920               436.1045               446.7710
 Red. masses --      5.2192                12.5244                 7.2644
 Frc consts  --      0.5659                 1.4034                 0.8543
 IR Inten    --      0.3948                20.5231                 7.5633

                     16                     17                     18
                      A                      A                      A
 Frequencies --    462.2981               481.7159               488.0148
 Red. masses --      6.5127                 4.0625                 7.2043
 Frc consts  --      0.8201                 0.5554                 1.0109
 IR Inten    --     12.9165                 0.0000                 3.2339

                     19                     20                     21
                      A                      A                      A
 Frequencies --    527.5600               554.6316               578.8541
 Red. masses --      4.5665                 8.1743                 4.8174
 Frc consts  --      0.7488                 1.4815                 0.9510
 IR Inten    --      5.3472                 0.1100                 0.0027

                     22                     23                     24
                      A                      A                      A
 Frequencies --    579.3006               633.8330               665.9998
 Red. masses --      5.5972                 6.7838                 4.1407
 Frc consts  --      1.1067                 1.6057                 1.0821
 IR Inten    --      2.1257                 5.0917                 7.1789

                     25                     26                     27
                      A                      A                      A
 Frequencies --    710.3307               715.5746               760.8470
 Red. masses --      7.0321                 3.2570                 2.5454
 Frc consts  --      2.0905                 0.9826                 0.8682
 IR Inten    --      4.8625                 0.0152                69.3291

                     28                     29                     30
                      A                      A                      A
 Frequencies --    785.8252               790.7746               804.8038
 Red. masses --      3.9264                 6.4909                 1.5542
 Frc consts  --      1.4286                 2.3914                 0.5931
 IR Inten    --      4.3914                 1.9857                22.9527

                     31                     32                     33
                      A                      A                      A
 Frequencies --    820.7995               836.5843               845.8125
 Red. masses --      1.9006                 1.3142                 8.8520
 Frc consts  --      0.7544                 0.5419                 3.7311
 IR Inten    --    110.9353                 4.3534                69.6950

                     34                     35                     36
                      A                      A                      A
 Frequencies --    911.8559               925.4997               932.7702
 Red. masses --      1.3793                 6.3554                 1.4242
 Frc consts  --      0.6757                 3.2073                 0.7301
 IR Inten    --      0.3223                 5.9874                 0.1576

                     37                     38                     39
                      A                      A                      A
 Frequencies --    988.5202               995.6865              1002.2680
 Red. masses --      6.6472                 1.3133                 1.3175
 Frc consts  --      3.8270                 0.7671                 0.7798
 IR Inten    --     39.0848                 0.2923                 0.5231

                     40                     41                     42
                      A                      A                      A
 Frequencies --   1055.1508              1085.2999              1106.3263
 Red. masses --      3.7391                 2.3716                 1.8933
 Frc consts  --      2.4527                 1.6459                 1.3654
 IR Inten    --     28.3935                12.0363                19.9701

                     43                     44                     45
                      A                      A                      A
 Frequencies --   1169.9993              1183.7069              1193.1626
 Red. masses --      2.2239                 1.2534                 1.1563
 Frc consts  --      1.7936                 1.0348                 0.9699
 IR Inten    --      7.5272                33.3545                 7.4801

                     46                     47                     48
                      A                      A                      A
 Frequencies --   1208.2520              1233.0913              1282.6371
 Red. masses --      1.7165                 2.1753                 2.5297
 Frc consts  --      1.4764                 1.9488                 2.4520
 IR Inten    --     56.2327               157.3548               377.6005

                     49                     50                     51
                      A                      A                      A
 Frequencies --   1302.9923              1312.6963              1344.3390
 Red. masses --      2.4674                 4.4505                 4.1147
 Frc consts  --      2.4682                 4.5185                 4.3813
 IR Inten    --    203.5244               313.8668                44.0959

                     52                     53                     54
                      A                      A                      A
 Frequencies --   1366.2945              1372.5820              1399.1676
 Red. masses --      4.2227                 6.5005                 3.2694
 Frc consts  --      4.6444                 7.2156                 3.7710
 IR Inten    --     38.4322                54.3151                81.2739

                     55                     56                     57
                      A                      A                      A
 Frequencies --   1480.8124              1487.9714              1494.4308
 Red. masses --      2.5244                 2.6163                 2.9317
 Frc consts  --      3.2614                 3.4129                 3.8576
 IR Inten    --     74.8665                31.0736                66.5876

                     58                     59                     60
                      A                      A                      A
 Frequencies --   1517.0657              1609.4797              1611.8407
 Red. masses --      2.7825                 5.8583                 4.0641
 Frc consts  --      3.7730                 8.9412                 6.2209
 IR Inten    --     94.6418                16.4912                50.3465

                     61                     62                     63
                      A                      A                      A
 Frequencies --   1627.6340              1632.3146              1678.1723
 Red. masses --      6.3890                 6.0061                 7.7600
 Frc consts  --      9.9723                 9.4287                12.8761
 IR Inten    --    123.5991                 9.4727               324.9805

                     64                     65                     66
                      A                      A                      A
 Frequencies --   1723.1668              3149.7781              3174.8003
 Red. masses --     11.9940                 1.0892                 1.0883
 Frc consts  --     20.9831                 6.3668                 6.4627
 IR Inten    --    140.6226                11.7600                 9.4151

                     67                     68                     69
                      A                      A                      A
 Frequencies --   3183.0162              3196.5488              3209.5731
 Red. masses --      1.0921                 1.0935                 1.0932
 Frc consts  --      6.5194                 6.5829                 6.6348
 IR Inten    --      9.4268                 4.1328                 3.1682

                     70                     71                     72
                      A                      A                      A
 Frequencies --   3212.1096              3290.1114              3809.4304
 Red. masses --      1.0931                 1.0681                 1.0660
 Frc consts  --      6.6449                 6.8121                 9.1143
 IR Inten    --      3.1120               303.6235                80.7272

 - Thermochemistry -
 -------------------
 Temperature   298.150 Kelvin.  Pressure   1.00000 Atm.
 Atom     1 has atomic number  8 and mass  15.99491

 Molecular mass:   240.04226 amu.
 Principal axes and moments of inertia in atomic units:
                           1         2         3
     Eigenvalues --  2399.158164856.164277255.32230
           X            0.99629  -0.08540   0.01066
           Y            0.08597   0.98198  -0.16832
           Z            0.00391   0.16861   0.98567
 This molecule is an asymmetric top.
 Rotational symmetry number  1.
 Warning -- assumption of classical behavior for rotation
           may cause significant error
 Rotational temperatures (Kelvin)      0.03610     0.01784     0.01194
 Rotational constants (GHZ):           0.75224     0.37164     0.24875
 Zero-point vibrational energy     493159.6 (Joules/Mol)
                                  117.86797 (Kcal/Mol)
 Warning -- explicit consideration of  22 degrees of freedom as
           vibrations may cause significant error
 Vibrational temperatures:     49.60    85.84   148.33   229.50   282.44
          (Kelvin)            288.47   336.20   385.51   448.95   487.85
                              512.43   534.43   617.22   627.46   642.80
                              665.14   693.08   702.14   759.04   797.99
                              832.84   833.48   911.94   958.23  1022.01
                             1029.55  1094.69  1130.63  1137.75  1157.93
                             1180.95  1203.66  1216.94  1311.96  1331.59
                             1342.05  1422.26  1432.57  1442.04  1518.13
                             1561.50  1591.76  1683.37  1703.09  1716.69
                             1738.41  1774.14  1845.43  1874.72  1888.68
                             1934.20  1965.79  1974.84  2013.09  2130.56
                             2140.86  2150.15  2182.72  2315.68  2319.08
                             2341.80  2348.54  2414.52  2479.25  4531.83
                             4567.83  4579.65  4599.12  4617.86  4621.51
                             4733.74  5480.92

 Zero-point correction=                           0.187835 (Hartree/Particle)
 Thermal correction to Energy=                    0.201112
 Thermal correction to Enthalpy=                  0.202056
 Thermal correction to Gibbs Free Energy=         0.147663
 Sum of electronic and zero-point Energies=           -839.263848
 Sum of electronic and thermal Energies=              -839.250571
 Sum of electronic and thermal Enthalpies=            -839.249627
 Sum of electronic and thermal Free Energies=         -839.304020

                     E (Thermal)             CV                S
                      KCal/Mol        Cal/Mol-Kelvin    Cal/Mol-Kelvin
 Total                  126.200             53.762            114.480
 Electronic               0.000              0.000              0.000
 Translational            0.889              2.981             42.328
 Rotational               0.889              2.981             32.802
 Vibrational            124.422             47.800             39.349
 Vibration     1          0.594              1.983              5.554
 Vibration     2          0.597              1.974              4.468
 Vibration     3          0.605              1.947              3.395
 Vibration     4          0.621              1.892              2.556
 Vibration     5          0.636              1.845              2.167
 Vibration     6          0.638              1.839              2.129
 Vibration     7          0.654              1.789              1.851
 Vibration     8          0.673              1.732              1.609
 Vibration     9          0.700              1.651              1.352
 Vibration    10          0.719              1.597              1.217
 Vibration    11          0.732              1.563              1.139
 Vibration    12          0.743              1.531              1.074
 Vibration    13          0.790              1.407              0.862
 Vibration    14          0.797              1.392              0.839
 Vibration    15          0.806              1.368              0.806
 Vibration    16          0.820              1.334              0.759
 Vibration    17          0.838              1.291              0.705
 Vibration    18          0.844              1.277              0.689
 Vibration    19          0.883              1.189              0.593
 Vibration    20          0.910              1.130              0.535
 Vibration    21          0.935              1.077              0.487
 Vibration    22          0.936              1.076              0.487

 Optimization completed.
    -- Stationary point found.
 Normal termination of Gaussian 16 at Sun Jan  7 05:40:39 2024.
