 Q-Chem 5.4, Q-Chem, Inc., Pleasanton, CA (2021)
 Q-Chem 5.4.0 for Intel X86 EM64T Linux

User input:
--------------------------------------------------------------
$molecule
-1 1
C                 -1.7942870000      1.9642040000     -5.1378580000
C                 -1.7405090000      0.6319020000     -5.5240270000
C                 -1.4321210000     -0.3594110000     -4.5850940000
C                 -1.5323200000      2.3238010000     -3.8096620000
C                 -1.2256790000      1.3339450000     -2.8728860000
C                 -1.1819610000     -0.0098180000     -3.2654250000
C                 -1.5977350000      3.7609100000     -3.4158050000
C                 -0.9610350000      1.6811550000     -1.4461400000
C                 -1.2454010000      4.1323220000     -2.0501650000
C                 -0.8738770000      3.1261270000     -1.0844580000
C                 -1.2273890000      5.5231940000     -1.6920930000
C                 -0.8289070000      5.8763290000     -0.3610550000
C                 -0.4311960000      4.9081610000      0.5189020000
C                 -0.4536870000      3.5442340000      0.1756630000
O                 -1.9356770000      4.5813130000     -4.2854480000
O                 -0.8299420000      0.7777260000     -0.6330130000
H                 -2.0369460000      2.7501320000     -5.8418190000
H                 -1.9394530000      0.3589330000     -6.5550110000
H                 -1.3910760000     -1.4003340000     -4.8876730000
H                 -0.9496560000     -0.7556390000     -2.5154200000
Br                 0.1647880000      2.3874120000      1.5828470000
N                 -1.5556120000      6.4976890000     -2.5534640000
S                 -0.9323170000      7.6079730000      0.2585300000
O                 -0.4849230000      8.4272230000     -0.9079700000
O                 -2.3663940000      7.7740340000      0.5784490000
O                 -0.0190660000      7.6423600000      1.4170290000
H                 -0.1038240000      5.2155920000      1.5037640000
H                 -1.8016050000      6.2291590000     -3.4967770000
H                 -1.3500820000      7.4569920000     -2.2705410000
$end
$rem
MAX_SCF_CYCLES=200
BASIS  =  6-311++G(d,p)
GUI  =  2
JOB_TYPE  =  SP
METHOD  =  B3LYP
SOLVENT_METHOD = COSMO
$end
$solvent
dielectric 37.219
opticaldielectric 1.43
$end

--------------------------------------------------------------

             Standard Nuclear Orientation (Angstroms)
    I     Atom           X                Y                Z
 ----------------------------------------------------------------
    1      C       3.8934796872    -2.2524047833    -0.1025091808
    2      C       5.2015274273    -1.7883059114    -0.1284038848
    3      C       5.4608328648    -0.4147526094    -0.0541622677
    4      C       2.8271083542    -1.3488515657    -0.0103946381
    5      C       3.0865762172     0.0217040286     0.0647496824
    6      C       4.4084505142     0.4843680221     0.0477937964
    7      C       1.4295704957    -1.8691964861     0.0181331447
    8      C       1.9745347838     1.0093392511     0.1836441612
    9      C       0.3250262778    -0.9169348403     0.0335785154
   10      C       0.5763214115     0.5041073571     0.0567798019
   11      C      -1.0210986973    -1.4147516365    -0.0229095225
   12      C      -2.0948413541    -0.4655963066    -0.0594506854
   13      C      -1.8285052208     0.8753025364    -0.0895005519
   14      C      -0.5125238179     1.3681861358    -0.0272556941
   15      O       1.2739462208    -3.1017732503     0.0091648256
   16      O       2.2470444575     2.1844537769     0.3821112361
   17      H       3.6649227565    -3.3095136700    -0.1515992212
   18      H       6.0238577829    -2.4918442688    -0.2047279581
   19      H       6.4833740172    -0.0531081179    -0.0737144691
   20      H       4.5789108610     1.5516268116     0.1157939693
   21      Br     -0.4067294813     3.2877341674    -0.0983766337
   22      N      -1.3087609149    -2.7245558204    -0.0544418999
   23      S      -3.8586611879    -0.9874059942     0.0396673611
   24      O      -3.9094858214    -2.2205136754    -0.8023044358
   25      O      -4.0593117321    -1.2505582161     1.4808444951
   26      O      -4.6149357392     0.1569189659    -0.5042986089
   27      H      -2.6635295592     1.5611879406    -0.1522299055
   28      H      -0.5357474343    -3.3763702980    -0.0613973676
   29      H      -2.2731639132    -2.9837875633    -0.2672235043
 ----------------------------------------------------------------

    9   -3941.2625797723      8.00e-06  Convergence criterion met
 Total energy in the final basis set =    -3941.2625797723
    5   -3941.3516557580      5.23e-06  Convergence criterion met
 Total energy in the final basis set =    -3941.3516557580

                    Orbital Energies (a.u.)
 --------------------------------------------------------------

 Alpha MOs
 -- Occupied --
******** -89.0653 -62.4891 -56.3096 -56.3058 -56.3053 -19.1285 -19.1235
-19.1107 -19.1092 -19.1084 -14.3299 -10.2843 -10.2778 -10.2580 -10.2492
-10.2241 -10.2181 -10.2101 -10.2089 -10.2027 -10.2020 -10.1926 -10.1920
-10.1915 -10.1906  -8.6978  -8.1240  -6.5295  -6.5168  -6.5153  -6.0867
 -6.0865  -6.0859  -2.6404  -2.6370  -2.6359  -2.6258  -2.6257  -1.1312
 -1.0650  -1.0558  -0.9979  -0.9933  -0.9494  -0.8906  -0.8797  -0.8213
 -0.8073  -0.7735  -0.7726  -0.7397  -0.6946  -0.6735  -0.6548  -0.6229
 -0.5990  -0.5854  -0.5763  -0.5497  -0.5338  -0.5110  -0.5090  -0.4976
 -0.4791  -0.4739  -0.4681  -0.4669  -0.4574  -0.4537  -0.4504  -0.4448
 -0.4354  -0.4205  -0.4189  -0.4088  -0.3933  -0.3782  -0.3725  -0.3627
 -0.3615  -0.3541  -0.3524  -0.3255  -0.3191  -0.3122  -0.3071  -0.3035
 -0.2851  -0.2804  -0.2755  -0.2742  -0.2736  -0.2614  -0.2265

          Ground-State Mulliken Net Atomic Charges

     Atom                 Charge (a.u.)
  ----------------------------------------
      1 C                     0.090930
      2 C                    -0.548744
      3 C                    -0.471484
      4 C                     0.291038
      5 C                     0.064711
      6 C                     0.187093
      7 C                    -0.394965
      8 C                    -1.134970
      9 C                     0.443874
     10 C                     0.949631
     11 C                     0.160840
     12 C                    -0.489492
     13 C                    -0.411371
     14 C                     0.166376
     15 O                    -0.344461
     16 O                    -0.223714
     17 H                     0.209089
     18 H                     0.224162
     19 H                     0.221597
     20 H                     0.210762
     21 Br                   -0.207083
     22 N                    -0.452149
     23 S                     0.577510
     24 O                    -0.424133
     25 O                    -0.348696
     26 O                    -0.327505
     27 H                     0.279805
     28 H                     0.370951
     29 H                     0.330389
  ----------------------------------------
  Sum of atomic charges =    -1.000009

                    Cartesian Multipole Moments
 -----------------------------------------------------------------
    Charge (ESU x 10^10)
                -4.8032
    Dipole Moment (Debye)
         X      19.4204      Y       1.9891      Z      -1.4311
       Tot      19.5743
    Quadrupole Moments (Debye-Ang)
        XX    -210.4790     XY     -24.9614     YY    -169.3149
        XZ       0.0637     YZ       0.6252     ZZ    -158.4794

 Total job time:  98.60s(wall), 757.27s(cpu)
        *  Thank you very much for using Q-Chem.  Have a nice day.  *
