 Q-Chem 5.4, Q-Chem, Inc., Pleasanton, CA (2021)
 Q-Chem 5.4.0 for Intel X86 EM64T Linux

User input:
--------------------------------------------------------------
$molecule
-2 1
C                  4.2342530000     -0.0282110000     -0.0472460000
S                  3.0226430000     -1.3299990000     -0.4799080000
C                  1.4449140000     -0.4840880000     -0.2430110000
C                  1.3294620000      0.9070300000     -0.0699660000
C                  0.0895350000      1.5818000000      0.1032330000
O                 -0.0094590000      2.8553000000      0.2759600000
C                 -1.0773950000      0.7020020000      0.0851100000
C                 -2.3696250000      1.2443010000      0.2583030000
C                 -3.5080630000      0.4564080000      0.2492510000
C                 -3.3851990000     -0.9444270000      0.0571700000
C                 -2.1332500000     -1.5048110000     -0.1180800000
C                 -0.9514990000     -0.7245670000     -0.1084690000
C                  0.3348590000     -1.3773620000     -0.2990890000
O                  0.4607420000     -2.6414890000     -0.5109120000
H                  4.2047760000      0.8129230000     -0.7430130000
H                  5.2251970000     -0.4882060000     -0.1036000000
H                  4.0726010000      0.3470070000      0.9687200000
H                  2.2120930000      1.5371050000     -0.0337780000
H                 -2.4253730000      2.3197450000      0.4009450000
H                 -4.4903230000      0.9062630000      0.3862720000
H                 -4.2738170000     -1.5742120000      0.0454930000
H                 -2.0070720000     -2.5725100000     -0.2715190000
$end

$rem
BASIS  =  6-311++G(d,p)
GUI  =  2
JOB_TYPE  =  SP
METHOD  =  B3LYP
SCF_CONVERGENCE  = 8
SOLVENT_METHOD = sm12
$end

$smx
solvent dimethylformamide
charges CM5
$end

--------------------------------------------------------------

             Standard Nuclear Orientation (Angstroms)
    I     Atom           X                Y                Z
 ----------------------------------------------------------------
    1      C       4.2342530000    -0.0282110000    -0.0472460000
    2      S       3.0226430000    -1.3299990000    -0.4799080000
    3      C       1.4449140000    -0.4840880000    -0.2430110000
    4      C       1.3294620000     0.9070300000    -0.0699660000
    5      C       0.0895350000     1.5818000000     0.1032330000
    6      O      -0.0094590000     2.8553000000     0.2759600000
    7      C      -1.0773950000     0.7020020000     0.0851100000
    8      C      -2.3696250000     1.2443010000     0.2583030000
    9      C      -3.5080630000     0.4564080000     0.2492510000
   10      C      -3.3851990000    -0.9444270000     0.0571700000
   11      C      -2.1332500000    -1.5048110000    -0.1180800000
   12      C      -0.9514990000    -0.7245670000    -0.1084690000
   13      C       0.3348590000    -1.3773620000    -0.2990890000
   14      O       0.4607420000    -2.6414890000    -0.5109120000
   15      H       4.2047760000     0.8129230000    -0.7430130000
   16      H       5.2251970000    -0.4882060000    -0.1036000000
   17      H       4.0726010000     0.3470070000     0.9687200000
   18      H       2.2120930000     1.5371050000    -0.0337780000
   19      H      -2.4253730000     2.3197450000     0.4009450000
   20      H      -4.4903230000     0.9062630000     0.3862720000
   21      H      -4.2738170000    -1.5742120000     0.0454930000
   22      H      -2.0070720000    -2.5725100000    -0.2715190000
 ----------------------------------------------------------------

   18    -972.7692638876      6.73e-09  Convergence criterion met
 Total energy in the final basis set =     -973.0582780292

                    Orbital Energies (a.u.)
 --------------------------------------------------------------

 Alpha MOs
 -- Occupied --
-88.8392 -19.0265 -19.0245 -10.1940 -10.1881 -10.1846 -10.1775 -10.1761
-10.1725 -10.1715 -10.1699 -10.1575 -10.1564 -10.1422  -7.9232  -5.8873
 -5.8832  -5.8775  -0.9435  -0.9400  -0.8469  -0.8037  -0.7651  -0.7456
 -0.7194  -0.6690  -0.6353  -0.6079  -0.5783  -0.5454  -0.4968  -0.4847
 -0.4527  -0.4443  -0.4268  -0.4259  -0.4247  -0.3970  -0.3906  -0.3782
 -0.3676  -0.3627  -0.3405  -0.3346  -0.3290  -0.3276  -0.3075  -0.2633
 -0.2507  -0.2365  -0.2048  -0.2039  -0.2003  -0.1212

          Ground-State Mulliken Net Atomic Charges

     Atom                 Charge (a.u.)
  ----------------------------------------
      1 C                     0.433430
      2 S                     0.121268
      3 C                     2.541225
      4 C                     0.392060
      5 C                    -2.233993
      6 O                    -0.388857
      7 C                    -1.785627
      8 C                    -0.255717
      9 C                     1.357261
     10 C                     1.529663
     11 C                    -0.171680
     12 C                    -1.784982
     13 C                    -3.158341
     14 O                    -0.270149
     15 H                     0.128139
     16 H                     0.474022
     17 H                     0.101618
     18 H                    -0.038727
     19 H                     0.087386
     20 H                     0.410379
     21 H                     0.417399
     22 H                     0.094222
  ----------------------------------------
  Sum of atomic charges =    -2.000000

                    Cartesian Multipole Moments
 -----------------------------------------------------------------
    Charge (ESU x 10^10)
                -9.6064
    Dipole Moment (Debye)
         X       0.7504      Y       0.4561      Z       1.2078
       Tot       1.4933
    Quadrupole Moments (Debye-Ang)
        XX    -120.3413     XY       8.4693     YY    -155.4113
        XZ       3.5948     YZ      -7.6456     ZZ    -105.0288

 Total job time:  478.09s(wall), 2978.48s(cpu)
        *  Thank you very much for using Q-Chem.  Have a nice day.  *
