 Gaussian 16, Revision A.03,
 Gaussian 16:  ES64L-G16RevA.03 25-Dec-2016

 --------------------------------------
 #P UB3LYP/6-311++G(d,p) nosym opt freq
 --------------------------------------

 -------
 Radical
 -------
 Symbolic Z-matrix:
 Charge = -1 Multiplicity = 2

 SCF Done:  E(UB3LYP) =  -3184.10680353     A.U. after   23 cycles
 SCF Done:  E(UB3LYP) =  -3184.11559732     A.U. after   18 cycles
 SCF Done:  E(UB3LYP) =  -3184.11631601     A.U. after   18 cycles
 SCF Done:  E(UB3LYP) =  -3184.11637309     A.U. after   15 cycles
 SCF Done:  E(UB3LYP) =  -3184.11637565     A.U. after   13 cycles
 SCF Done:  E(UB3LYP) =  -3184.11637642     A.U. after   12 cycles
 Optimization completed.
    -- Stationary point found.
 Normal termination of Gaussian 16 at Thu Dec 28 20:06:57 2023.

 ----------------------------------------------------------------------
 #P Geom=AllCheck Guess=TCheck SCRF=Check GenChk UB3LYP/6-311++G(d,p) F
 req
 ----------------------------------------------------------------------

 Structure from the checkpoint file:  "306-rad.chk"
 -------
 Radical
 -------
 Charge = -1 Multiplicity = 2

                          Input orientation:
 ---------------------------------------------------------------------
 Center     Atomic      Atomic             Coordinates (Angstroms)
 Number     Number       Type             X           Y           Z
 ---------------------------------------------------------------------
      1          6           0       -4.121451    3.636194    1.516859
      2          6           0       -4.607961    3.860578    0.246045
      3          6           0       -4.014731    3.213458   -0.846253
      4          6           0       -2.941018    2.347083   -0.667042
      5          6           0       -2.412934    2.091911    0.629438
      6          6           0       -3.036280    2.764392    1.724735
      7          6           0       -2.571652    2.574651    3.113237
      8          6           0       -1.464893    1.679676    3.290742
      9          6           0       -0.875960    1.040957    2.231449
     10          6           0       -1.267055    1.170363    0.840305
     11          8           0       -3.118148    3.164838    4.082299
     12          8           0       -0.691090    0.560488   -0.080942
     13          1           0       -4.548358    4.114089    2.389819
     14          1           0       -4.390711    3.383211   -1.853490
     15          8           0       -2.390949    1.735112   -1.763415
     16         35           0        0.612391   -0.145822    2.588244
     17          1           0       -5.444951    4.532560    0.082925
     18          1           0       -1.112196    1.529129    4.303554
     19          1           0       -2.883923    2.035193   -2.534711
 ---------------------------------------------------------------------

 SCF Done:  E(UB3LYP) =  -3184.11637642     A.U. after    1 cycles

 Alpha  occ. eigenvalues -- -482.69573 -62.34851 -56.16865 -56.16520 -56.16491
 Alpha  occ. eigenvalues --  -19.04189 -18.94650 -18.94582 -10.12818 -10.10569
 Alpha  occ. eigenvalues --  -10.09655 -10.09094 -10.06657 -10.06428 -10.06349
 Alpha  occ. eigenvalues --  -10.05795 -10.04906 -10.04416  -8.55810  -6.38885
 Alpha  occ. eigenvalues --   -6.37724  -6.37639  -2.49991  -2.49672  -2.49608
 Alpha  occ. eigenvalues --   -2.48682  -2.48682  -0.95504  -0.87694  -0.87033
 Alpha  occ. eigenvalues --   -0.74201  -0.70494  -0.65681  -0.63044  -0.61171
 Alpha  occ. eigenvalues --   -0.55163  -0.51828  -0.48992  -0.45969  -0.41024
 Alpha  occ. eigenvalues --   -0.39507  -0.36465  -0.35305  -0.33736  -0.31576
 Alpha  occ. eigenvalues --   -0.31080  -0.28913  -0.27904  -0.27610  -0.27193
 Alpha  occ. eigenvalues --   -0.25395  -0.25142  -0.23819  -0.23446  -0.21922
 Alpha  occ. eigenvalues --   -0.19055  -0.15908  -0.14750  -0.12725  -0.11790
 Alpha  occ. eigenvalues --   -0.11323  -0.10634  -0.02656
 Alpha virt. eigenvalues --    0.07096   0.08960   0.09125   0.09388   0.10047
 Alpha virt. eigenvalues --    0.11285   0.11642   0.13444   0.14313   0.14741
 Alpha virt. eigenvalues --    0.15527   0.15697   0.16147   0.17173   0.17310

  Beta  occ. eigenvalues -- -482.69573 -62.34850 -56.16868 -56.16516 -56.16491
  Beta  occ. eigenvalues --  -19.04185 -18.93967 -18.93910 -10.12834 -10.10494
  Beta  occ. eigenvalues --  -10.09541 -10.08889 -10.06616 -10.06371 -10.06305
  Beta  occ. eigenvalues --  -10.05719 -10.04905 -10.04284  -8.55809  -6.38890
  Beta  occ. eigenvalues --   -6.37716  -6.37639  -2.49994  -2.49669  -2.49611
  Beta  occ. eigenvalues --   -2.48678  -2.48678  -0.95494  -0.86562  -0.85853
  Beta  occ. eigenvalues --   -0.73996  -0.70074  -0.65471  -0.62874  -0.60946
  Beta  occ. eigenvalues --   -0.54374  -0.51642  -0.48713  -0.45777  -0.40776
  Beta  occ. eigenvalues --   -0.39311  -0.36293  -0.35157  -0.33548  -0.31355
  Beta  occ. eigenvalues --   -0.30616  -0.28568  -0.27774  -0.26647  -0.26384
  Beta  occ. eigenvalues --   -0.25259  -0.23532  -0.23279  -0.23103  -0.20931
  Beta  occ. eigenvalues --   -0.18113  -0.15877  -0.12811  -0.11625  -0.10964
  Beta  occ. eigenvalues --   -0.10685  -0.10015
  Beta virt. eigenvalues --    0.03976   0.07095   0.08954   0.09900   0.10141
  Beta virt. eigenvalues --    0.10515   0.11307   0.11646   0.13453   0.14332
  Beta virt. eigenvalues --    0.14817   0.15582   0.15758   0.16159   0.17175

 Mulliken charges and spin densities:
               1          2
     1  C    0.183996   0.027770
     2  C   -0.348307   0.033462
     3  C   -0.145559   0.048164
     4  C    0.059887   0.021630
     5  C    0.115592   0.011145
     6  C    0.369622   0.063520
     7  C   -0.834836   0.045036
     8  C    0.149124   0.115291
     9  C    0.509986   0.122091
    10  C   -0.776298   0.023411
    11  O   -0.387631   0.248939
    12  O   -0.298562   0.255204
    13  H    0.151063  -0.002901
    14  H    0.072447  -0.004181
    15  O   -0.160901  -0.000985
    16  Br  -0.231568   0.004853
    17  H    0.137199  -0.002417
    18  H    0.197900  -0.009594
    19  H    0.236846  -0.000437
 Sum of Mulliken charges =  -1.00000   1.00000

 Dipole moment (field-independent basis, Debye):
    X=              7.2125    Y=             -7.4343    Z=            -10.2838  Tot=             14.5961
 Quadrupole moment (field-independent basis, Debye-Ang):
   XX=           -119.4393   YY=           -120.1942   ZZ=           -131.7906
   XY=             21.3356   XZ=             28.1210   YZ=            -28.0347

  Exact polarizability: 180.415 -76.759 147.775  22.105  -1.848 201.189
 Approx polarizability: 277.813-121.423 236.143   2.135  28.145 343.085

                      1                      2                      3
                      A                      A                      A
 Frequencies --     50.8520                67.5278               148.5786
 Red. masses --     10.7072                 7.0716                12.3313
 Frc consts  --      0.0163                 0.0190                 0.1604
 IR Inten    --      9.1569                 0.0315                 4.0692

                      4                      5                      6
                      A                      A                      A
 Frequencies --    149.9523               194.7525               239.5258
 Red. masses --      9.5970                 4.6405                18.1719
 Frc consts  --      0.1271                 0.1037                 0.6143
 IR Inten    --      1.8194                 0.2304                 0.1683

                      7                      8                      9
                      A                      A                      A
 Frequencies --    246.5442               276.0049               312.0295
 Red. masses --      2.4558                 9.0815                 1.5743
 Frc consts  --      0.0879                 0.4076                 0.0903
 IR Inten    --     22.4705                 2.8484                49.1949

                     10                     11                     12
                      A                      A                      A
 Frequencies --    359.2443               362.8727               382.1498
 Red. masses --      4.8639                 9.6308                10.4683
 Frc consts  --      0.3698                 0.7472                 0.9007
 IR Inten    --      9.2414                 3.0598                 5.0548

                     13                     14                     15
                      A                      A                      A
 Frequencies --    470.0160               475.5020               506.9113
 Red. masses --     10.4552                 4.5826                 5.5454
 Frc consts  --      1.3608                 0.6105                 0.8396
 IR Inten    --      4.8458                 0.3490                14.4761

                     16                     17                     18
                      A                      A                      A
 Frequencies --    538.1155               538.7280               659.7133
 Red. masses --      7.6466                 4.5729                 5.7118
 Frc consts  --      1.3046                 0.7819                 1.4647
 IR Inten    --      2.9290                 0.6848                 6.9501

                     19                     20                     21
                      A                      A                      A
 Frequencies --    661.2680               678.1094               698.0271
 Red. masses --      3.7063                 7.7924                 3.3811
 Frc consts  --      0.9549                 2.1112                 0.9706
 IR Inten    --     11.6722                 9.9196                 9.3424

                     22                     23                     24
                      A                      A                      A
 Frequencies --    747.7330               784.6902               786.4080
 Red. masses --      1.7026                 8.1275                 6.1794
 Frc consts  --      0.5608                 2.9485                 2.2516
 IR Inten    --     42.6750               100.0699                10.2012

                     25                     26                     27
                      A                      A                      A
 Frequencies --    809.7662               844.0737               858.1254
 Red. masses --      5.5201                 1.3641                 1.5628
 Frc consts  --      2.1326                 0.5726                 0.6780
 IR Inten    --      6.8478                 6.6925                17.2389

                     28                     29                     30
                      A                      A                      A
 Frequencies --    953.4750               961.4633              1054.1982
 Red. masses --      7.0450                 1.2675                 4.3293
 Frc consts  --      3.7735                 0.6904                 2.8347
 IR Inten    --     94.0937                 1.1286                 8.4877

                     31                     32                     33
                      A                      A                      A
 Frequencies --   1098.1894              1149.2650              1158.3313
 Red. masses --      1.9635                 1.9322                 2.3816
 Frc consts  --      1.3952                 1.5036                 1.8827
 IR Inten    --     64.9411                40.1992                72.5483

                     34                     35                     36
                      A                      A                      A
 Frequencies --   1189.5194              1220.4323              1277.7834
 Red. masses --      1.6720                 1.8060                 1.7921
 Frc consts  --      1.3939                 1.5849                 1.7240
 IR Inten    --     10.7439                 3.4030                37.6861

                     37                     38                     39
                      A                      A                      A
 Frequencies --   1279.3215              1350.7516              1371.7072
 Red. masses --      3.1689                 5.1187                 4.5062
 Frc consts  --      3.0557                 5.5025                 4.9955
 IR Inten    --     73.9939                 5.0407                27.5926

                     40                     41                     42
                      A                      A                      A
 Frequencies --   1447.8785              1469.5680              1505.0237
 Red. masses --      3.0069                 2.8813                 7.6448
 Frc consts  --      3.7139                 3.6662                10.2024
 IR Inten    --     33.1331               123.5136                73.9888

                     43                     44                     45
                      A                      A                      A
 Frequencies --   1548.0248              1554.9567              1616.1528
 Red. masses --      6.3207                 6.3032                 8.2103
 Frc consts  --      8.9242                 8.9794                12.6350
 IR Inten    --    576.3208                27.7408                21.1646

                     46                     47                     48
                      A                      A                      A
 Frequencies --   1627.1774              3114.8332              3152.0649
 Red. masses --      6.1462                 1.0870                 1.0907
 Frc consts  --      9.5880                 6.2135                 6.3850
 IR Inten    --     18.6003                37.8650                39.1234

                     49                     50                     51
                      A                      A                      A
 Frequencies --   3187.3935              3193.3633              3808.4405
 Red. masses --      1.0904                 1.0921                 1.0654
 Frc consts  --      6.5271                 6.5614                 9.1046
 IR Inten    --      5.0477                13.3641                16.6977

 - Thermochemistry -
 -------------------
 Temperature   298.150 Kelvin.  Pressure   1.00000 Atm.
 Atom     1 has atomic number  6 and mass  12.00000

 Molecular mass:   251.94221 amu.
 Principal axes and moments of inertia in atomic units:
                           1         2         3
     Eigenvalues --  1929.056985172.781287101.83810
           X            0.73129  -0.24814   0.63533
           Y           -0.55079   0.33458   0.76465
           Z            0.40231   0.90911  -0.10800
 This molecule is an asymmetric top.
 Rotational symmetry number  1.
 Warning -- assumption of classical behavior for rotation
           may cause significant error
 Rotational temperatures (Kelvin)      0.04490     0.01674     0.01220
 Rotational constants (GHZ):           0.93556     0.34889     0.25412
 Zero-point vibrational energy     323808.4 (Joules/Mol)
                                   77.39206 (Kcal/Mol)
 Warning -- explicit consideration of  17 degrees of freedom as
           vibrations may cause significant error
 Vibrational temperatures:     73.16    97.16   213.77   215.75   280.21
          (Kelvin)            344.62   354.72   397.11   448.94   516.87
                              522.09   549.83   676.25   684.14   729.33
                              774.23   775.11   949.18   951.42   975.65
                             1004.31  1075.82  1128.99  1131.47  1165.07
                             1214.43  1234.65  1371.84  1383.33  1516.76
                             1580.05  1653.54  1666.58  1711.45  1755.93
                             1838.45  1840.66  1943.43  1973.58  2083.17
                             2114.38  2165.39  2227.26  2237.24  2325.28
                             2341.15  4481.55  4535.12  4585.95  4594.54
                             5479.50

 Zero-point correction=                           0.123332 (Hartree/Particle)
 Thermal correction to Energy=                    0.134880
 Thermal correction to Enthalpy=                  0.135824
 Thermal correction to Gibbs Free Energy=         0.083889
 Sum of electronic and zero-point Energies=          -3183.993044
 Sum of electronic and thermal Energies=             -3183.981496
 Sum of electronic and thermal Enthalpies=           -3183.980552
 Sum of electronic and thermal Free Energies=        -3184.032488

                     E (Thermal)             CV                S
                      KCal/Mol        Cal/Mol-Kelvin    Cal/Mol-Kelvin
 Total                   84.639             44.025            109.308
 Electronic               0.000              0.000              1.377
 Translational            0.889              2.981             42.472
 Rotational               0.889              2.981             32.627
 Vibrational             82.861             38.063             32.831
 Vibration     1          0.595              1.977              4.784
 Vibration     2          0.598              1.970              4.224
 Vibration     3          0.618              1.904              2.690
 Vibration     4          0.618              1.903              2.673
 Vibration     5          0.635              1.847              2.182
 Vibration     6          0.657              1.780              1.806
 Vibration     7          0.661              1.769              1.755
 Vibration     8          0.678              1.718              1.558
 Vibration     9          0.700              1.651              1.352
 Vibration    10          0.734              1.556              1.125
 Vibration    11          0.737              1.549              1.110
 Vibration    12          0.752              1.508              1.031
 Vibration    13          0.827              1.317              0.738
 Vibration    14          0.832              1.304              0.722
 Vibration    15          0.862              1.235              0.641
 Vibration    16          0.893              1.166              0.569
 Vibration    17          0.894              1.164              0.568

 Optimization completed.
    -- Stationary point found.
 Normal termination of Gaussian 16 at Thu Dec 28 20:33:27 2023.
