 Gaussian 16, Revision A.03,
 Gaussian 16:  ES64L-G16RevA.03 25-Dec-2016

 ----------------------------------------------------------------------
 #P UB3LYP/genecp nosym opt freq SCRF=(PCM,Solvent=n,n-DiMethylFormamid
 e)
 ----------------------------------------------------------------------

 --------
 Oxidized
 --------
 Symbolic Z-matrix:
 Charge =  0 Multiplicity = 1

 SCF Done:  E(UB3LYP) =  -986.157263986     A.U. after   15 cycles
 SCF Done:  E(UB3LYP) =  -986.157339207     A.U. after   10 cycles
 SCF Done:  E(UB3LYP) =  -986.157348103     A.U. after    9 cycles
 SCF Done:  E(UB3LYP) =  -986.157348529     A.U. after    8 cycles
 Optimization completed.
    -- Stationary point found.
 Normal termination of Gaussian 16 at Sat Feb 10 22:04:54 2024.

 ------------------------------------------------------------------
 #P Geom=AllCheck Guess=TCheck SCRF=Check GenChk UB3LYP/GenECP Freq
 ------------------------------------------------------------------

 Structure from the checkpoint file:  "119.chk"
 --------
 Oxidized
 --------
 Charge =  0 Multiplicity = 1

                          Input orientation:
 ---------------------------------------------------------------------
 Center     Atomic      Atomic             Coordinates (Angstroms)
 Number     Number       Type             X           Y           Z
 ---------------------------------------------------------------------
      1          6           0        6.906807   -1.638282   -0.258460
      2          6           0        7.466945   -0.671743   -1.086518
      3          6           0        6.660743    0.323106   -1.645996
      4          6           0        5.296784    0.348581   -1.376010
      5          6           0        4.723678   -0.618700   -0.544747
      6          6           0        5.536258   -1.621212    0.019160
      7          6           0        4.964129   -2.668115    0.909236
      8          6           0        3.496785   -2.615485    1.180568
      9          6           0        2.686958   -1.614338    0.617283
     10          6           0        3.260361   -0.566911   -0.272706
     11          6           0        2.932779   -3.587380    2.011916
     12          6           0        1.568510   -3.556841    2.276831
     13          6           0        0.752267   -2.565878    1.722998
     14          6           0        1.317298   -1.601823    0.897263
     15          8           0        5.665313   -3.541144    1.401741
     16          8           0        2.551996    0.303624   -0.761710
     17          1           0        7.519924   -2.414407    0.181495
     18          1           0        4.661075    1.113769   -1.802832
     19          1           0        3.575275   -4.348200    2.434012
     20          1           0        0.698102   -0.828356    0.460979
     21         53           0        0.718058   -5.024966    3.529977
     22          1           0        8.529580   -0.690921   -1.297370
     23          1           0        7.097835    1.076078   -2.291012
     24          1           0       -0.309459   -2.544464    1.931361
 ---------------------------------------------------------------------

 SCF Done:  E(UB3LYP) =  -986.157348529     A.U. after    1 cycles

 Alpha  occ. eigenvalues --  -19.13664 -19.13503 -10.28913 -10.28761 -10.24741
 Alpha  occ. eigenvalues --  -10.21877 -10.21570 -10.21318 -10.21265 -10.21118
 Alpha  occ. eigenvalues --  -10.21071 -10.20732 -10.20175 -10.20139 -10.20096
 Alpha  occ. eigenvalues --  -10.20077  -6.85760  -4.88209  -4.87045  -4.87001
 Alpha  occ. eigenvalues --   -1.93022  -1.92635  -1.92610  -1.91601  -1.91601
 Alpha  occ. eigenvalues --   -1.07007  -1.06741  -0.90391  -0.88940  -0.82356
 Alpha  occ. eigenvalues --   -0.79209  -0.78211  -0.78089  -0.71866  -0.69253
 Alpha  occ. eigenvalues --   -0.66865  -0.64203  -0.62407  -0.59273  -0.56729
 Alpha  occ. eigenvalues --   -0.55398  -0.51195  -0.49660  -0.49363  -0.47544
 Alpha  occ. eigenvalues --   -0.46274  -0.46145  -0.46075  -0.45383  -0.44938
 Alpha  occ. eigenvalues --   -0.44046  -0.42347  -0.40413  -0.39584  -0.38421
 Alpha  occ. eigenvalues --   -0.37786  -0.37240  -0.36316  -0.31632  -0.29323
 Alpha  occ. eigenvalues --   -0.29192  -0.28511  -0.28243  -0.28168  -0.27760
 Alpha  occ. eigenvalues --   -0.25921
 Alpha virt. eigenvalues --   -0.12441  -0.08131  -0.04914  -0.04442  -0.03403
 Alpha virt. eigenvalues --   -0.00652   0.00231   0.01026   0.01952   0.02233
 Alpha virt. eigenvalues --    0.02463   0.02957   0.03899   0.04313   0.04532

  Beta  occ. eigenvalues --  -19.13664 -19.13503 -10.28913 -10.28761 -10.24741
  Beta  occ. eigenvalues --  -10.21877 -10.21570 -10.21318 -10.21265 -10.21118
  Beta  occ. eigenvalues --  -10.21071 -10.20732 -10.20175 -10.20139 -10.20096
  Beta  occ. eigenvalues --  -10.20077  -6.85760  -4.88209  -4.87045  -4.87001
  Beta  occ. eigenvalues --   -1.93022  -1.92635  -1.92610  -1.91601  -1.91601
  Beta  occ. eigenvalues --   -1.07007  -1.06741  -0.90391  -0.88940  -0.82356
  Beta  occ. eigenvalues --   -0.79209  -0.78211  -0.78089  -0.71866  -0.69253
  Beta  occ. eigenvalues --   -0.66865  -0.64203  -0.62407  -0.59273  -0.56729
  Beta  occ. eigenvalues --   -0.55398  -0.51195  -0.49660  -0.49363  -0.47544
  Beta  occ. eigenvalues --   -0.46274  -0.46145  -0.46075  -0.45383  -0.44938
  Beta  occ. eigenvalues --   -0.44046  -0.42347  -0.40413  -0.39584  -0.38421
  Beta  occ. eigenvalues --   -0.37786  -0.37240  -0.36316  -0.31632  -0.29323
  Beta  occ. eigenvalues --   -0.29192  -0.28511  -0.28243  -0.28168  -0.27760
  Beta  occ. eigenvalues --   -0.25921
  Beta virt. eigenvalues --   -0.12441  -0.08131  -0.04914  -0.04442  -0.03403
  Beta virt. eigenvalues --   -0.00652   0.00231   0.01026   0.01952   0.02233
  Beta virt. eigenvalues --    0.02463   0.02957   0.03899   0.04313   0.04532

 Mulliken charges and spin densities:
               1          2
     1  C    0.155159  -0.000000
     2  C   -0.398371   0.000000
     3  C   -0.400671  -0.000000
     4  C    0.188460   0.000000
     5  C    0.156846   0.000000
     6  C    0.261616  -0.000000
     7  C   -0.512133  -0.000000
     8  C    0.211818  -0.000000
     9  C    0.290140   0.000000
    10  C   -0.589878  -0.000000
    11  C    0.267328   0.000000
    12  C    0.258317   0.000000
    13  C   -0.732888  -0.000000
    14  C    0.099622   0.000000
    15  O   -0.270167   0.000000
    16  O   -0.273564   0.000000
    17  H    0.186866  -0.000000
    18  H    0.188998  -0.000000
    19  H    0.170133  -0.000000
    20  H    0.197068   0.000000
    21  I   -0.062435  -0.000000
    22  H    0.209552   0.000000
    23  H    0.209599  -0.000000
    24  H    0.188587  -0.000000
 Sum of Mulliken charges =  -0.00000   0.00000

 Dipole moment (field-independent basis, Debye):
    X=              0.8919    Y=              1.1178    Z=             -1.0096  Tot=              1.7505
 Quadrupole moment (field-independent basis, Debye-Ang):
   XX=            -96.1947   YY=           -126.8008   ZZ=           -118.2481
   XY=             15.0184   XZ=            -16.2154   YZ=              1.2817

  Exact polarizability: 358.940  29.906 300.398 -67.580-121.859 246.475
 Approx polarizability: 406.244  -3.713 356.228 -47.344-136.387 279.175

                      1                      2                      3
                      A                      A                      A
 Frequencies --     29.9405                71.7225               104.0870
 Red. masses --      8.4743                 7.5369                10.3005
 Frc consts  --      0.0045                 0.0228                 0.0658
 IR Inten    --      5.4760                 5.7379                 0.1594

                      4                      5                      6
                      A                      A                      A
 Frequencies --    112.0105               134.1470               180.4329
 Red. masses --      4.6842                 5.8237                 6.3342
 Frc consts  --      0.0346                 0.0617                 0.1215
 IR Inten    --      0.0742                 1.0025                 1.1391

                      7                      8                      9
                      A                      A                      A
 Frequencies --    186.3390               260.8398               265.7503
 Red. masses --     15.4217                 6.2319                 5.8369
 Frc consts  --      0.3155                 0.2498                 0.2429
 IR Inten    --      0.0334                 1.3517                 1.2534

                     10                     11                     12
                      A                      A                      A
 Frequencies --    330.3924               382.0331               403.7850
 Red. masses --      6.6762                 8.7723                 9.4027
 Frc consts  --      0.4294                 0.7543                 0.9032
 IR Inten    --      0.3560                15.8534                41.0835

                     13                     14                     15
                      A                      A                      A
 Frequencies --    409.9170               440.9881               446.1696
 Red. masses --      3.3072                 3.4050                 4.6597
 Frc consts  --      0.3274                 0.3901                 0.5465
 IR Inten    --      1.2388                 0.0701                 2.2742

                     16                     17                     18
                      A                      A                      A
 Frequencies --    447.5193               488.2598               517.8175
 Red. masses --      9.0523                10.6473                 4.7076
 Frc consts  --      1.0682                 1.4955                 0.7437
 IR Inten    --     12.5864                 5.5694                 9.2971

                     19                     20                     21
                      A                      A                      A
 Frequencies --    640.7065               645.1592               661.7858
 Red. masses --      7.0479                 7.1521                 4.5125
 Frc consts  --      1.7046                 1.7540                 1.1644
 IR Inten    --     19.5610                 3.2703                 6.6531

                     22                     23                     24
                      A                      A                      A
 Frequencies --    694.9439               702.0785               723.4273
 Red. masses --      6.7715                 7.5786                 4.1668
 Frc consts  --      1.9268                 2.2010                 1.2848
 IR Inten    --      0.2651                17.5325                15.5330

                     25                     26                     27
                      A                      A                      A
 Frequencies --    728.8300               803.1876               809.3309
 Red. masses --      2.2713                 2.4303                 2.4242
 Frc consts  --      0.7109                 0.9237                 0.9356
 IR Inten    --    125.4786                 0.7258                 5.4059

                     28                     29                     30
                      A                      A                      A
 Frequencies --    810.5165               863.7385               915.6947
 Red. masses --      6.8882                 1.5825                 1.4013
 Frc consts  --      2.6661                 0.6956                 0.6923
 IR Inten    --     43.3156                30.7950                 0.9073

                     31                     32                     33
                      A                      A                      A
 Frequencies --    932.8897               935.1170               955.7734
 Red. masses --      1.4363                 7.1431                 7.1356
 Frc consts  --      0.7365                 3.6802                 3.8405
 IR Inten    --      8.5391               144.8682                75.3181

                     34                     35                     36
                      A                      A                      A
 Frequencies --   1001.8659              1005.1099              1025.3903
 Red. masses --      1.3541                 1.3890                 1.3361
 Frc consts  --      0.8008                 0.8268                 0.8277
 IR Inten    --      0.0274                 3.3343                 0.0001

                     37                     38                     39
                      A                      A                      A
 Frequencies --   1056.3952              1082.0112              1112.3266
 Red. masses --      2.0759                 2.0942                 2.3933
 Frc consts  --      1.3649                 1.4446                 1.7447
 IR Inten    --      3.3366                32.1983                 3.1789

                     40                     41                     42
                      A                      A                      A
 Frequencies --   1125.2326              1174.4125              1184.6106
 Red. masses --      2.5547                 1.5018                 1.5687
 Frc consts  --      1.9058                 1.2204                 1.2970
 IR Inten    --      6.2367                 0.2715                61.5893

                     43                     44                     45
                      A                      A                      A
 Frequencies --   1192.1433              1232.9547              1277.7590
 Red. masses --      1.9966                 1.7175                 1.5397
 Frc consts  --      1.6719                 1.5383                 1.4811
 IR Inten    --      6.9379                10.5437               188.1998

                     46                     47                     48
                      A                      A                      A
 Frequencies --   1291.8233              1311.1607              1338.3587
 Red. masses --      4.2392                 2.4922                 6.6249
 Frc consts  --      4.1681                 2.5243                 6.9916
 IR Inten    --   1340.7718                29.5650                74.7324

                     49                     50                     51
                      A                      A                      A
 Frequencies --   1359.5306              1421.2172              1480.5127
 Red. masses --      8.2046                 3.6900                 2.3742
 Frc consts  --      8.9349                 4.3914                 3.0662
 IR Inten    --     35.1762                14.6304                 6.4092

                     52                     53                     54
                      A                      A                      A
 Frequencies --   1492.9240              1504.8660              1589.1414
 Red. masses --      2.5569                 2.5792                 7.6647
 Frc consts  --      3.3577                 3.4413                11.4044
 IR Inten    --      5.9484                17.7409                28.9935

                     55                     56                     57
                      A                      A                      A
 Frequencies --   1598.9806              1611.1474              1621.8938
 Red. masses --      6.4254                 7.0250                 5.7746
 Frc consts  --      9.6791                10.7440                 8.9499
 IR Inten    --    497.0853                 1.8150               125.5664

                     58                     59                     60
                      A                      A                      A
 Frequencies --   1694.9524              1703.2608              3180.4438
 Red. masses --     12.4269                11.8269                 1.0875
 Frc consts  --     21.0343                20.2155                 6.4814
 IR Inten    --     34.2166               731.8296                 3.0575

                     61                     62                     63
                      A                      A                      A
 Frequencies --   3192.4799              3197.4553              3204.4360
 Red. masses --      1.0913                 1.0886                 1.0926
 Frc consts  --      6.5534                 6.5576                 6.6100
 IR Inten    --      9.7876                 0.4389                 2.5861

                     64                     65                     66
                      A                      A                      A
 Frequencies --   3207.4297              3209.2402              3212.2924
 Red. masses --      1.0956                 1.0947                 1.0917
 Frc consts  --      6.6406                 6.6430                 6.6372
 IR Inten    --     22.5518                 0.9399                 4.8528

 - Thermochemistry -
 -------------------
 Temperature   298.150 Kelvin.  Pressure   1.00000 Atm.
 Atom     1 has atomic number  6 and mass  12.00000

 Molecular mass:   333.94500 amu.
 Principal axes and moments of inertia in atomic units:
                           1         2         3
     Eigenvalues --  1813.86161********************
           X            0.63446   0.75451   0.16788
           Y            0.55345  -0.59505   0.58275
           Z           -0.53959   0.27682   0.79512
 This molecule is an asymmetric top.
 Rotational symmetry number  1.
 Warning -- assumption of classical behavior for rotation
           may cause significant error
 Rotational temperatures (Kelvin)      0.04775     0.00652     0.00574
 Rotational constants (GHZ):           0.99497     0.13591     0.11958
 Zero-point vibrational energy     442194.2 (Joules/Mol)
                                  105.68694 (Kcal/Mol)
 Warning -- explicit consideration of  18 degrees of freedom as
           vibrations may cause significant error
 Vibrational temperatures:     43.08   103.19   149.76   161.16   193.01
          (Kelvin)            259.60   268.10   375.29   382.36   475.36
                              549.66   580.96   589.78   634.48   641.94
                              643.88   702.50   745.02   921.83   928.24
                              952.16   999.87  1010.13  1040.85  1048.62
                             1155.61  1164.45  1166.15  1242.73  1317.48
                             1342.22  1345.42  1375.14  1441.46  1446.13
                             1475.31  1519.92  1556.77  1600.39  1618.96
                             1689.72  1704.39  1715.23  1773.95  1838.41
                             1858.65  1886.47  1925.60  1956.06  2044.81
                             2130.13  2147.98  2165.17  2286.42  2300.58
                             2318.08  2333.54  2438.66  2450.61  4575.95
                             4593.27  4600.43  4610.47  4614.78  4617.38
                             4621.77

 Zero-point correction=                           0.168423 (Hartree/Particle)
 Thermal correction to Energy=                    0.181394
 Thermal correction to Enthalpy=                  0.182339
 Thermal correction to Gibbs Free Energy=         0.126642
 Sum of electronic and zero-point Energies=           -985.988926
 Sum of electronic and thermal Energies=              -985.975954
 Sum of electronic and thermal Enthalpies=            -985.975010
 Sum of electronic and thermal Free Energies=         -986.030707

                     E (Thermal)             CV                S
                      KCal/Mol        Cal/Mol-Kelvin    Cal/Mol-Kelvin
 Total                  113.827             50.244            117.224
 Electronic               0.000              0.000              0.000
 Translational            0.889              2.981             43.312
 Rotational               0.889              2.981             34.252
 Vibrational            112.049             44.283             39.660
 Vibration     1          0.594              1.984              5.833
 Vibration     2          0.598              1.967              4.106
 Vibration     3          0.605              1.946              3.376
 Vibration     4          0.607              1.940              3.234
 Vibration     5          0.613              1.919              2.886
 Vibration     6          0.629              1.866              2.324
 Vibration     7          0.632              1.859              2.264
 Vibration     8          0.669              1.744              1.656
 Vibration     9          0.672              1.736              1.624
 Vibration    10          0.713              1.615              1.258
 Vibration    11          0.751              1.508              1.031
 Vibration    12          0.769              1.462              0.949
 Vibration    13          0.774              1.449              0.927
 Vibration    14          0.801              1.381              0.824
 Vibration    15          0.805              1.369              0.807
 Vibration    16          0.807              1.366              0.803
 Vibration    17          0.844              1.276              0.688
 Vibration    18          0.873              1.211              0.615

 Optimization completed.
    -- Stationary point found.
 Normal termination of Gaussian 16 at Sat Feb 10 22:59:42 2024.
