 Gaussian 16, Revision A.03,
 Gaussian 16:  ES64L-G16RevA.03 25-Dec-2016

 ----------------------------------------------------------------
 #P UB3LYP/6-311++G(d,p) SCRF=(PCM,Solvent=n,n-DiMethylFormamide)
 ----------------------------------------------------------------

 -------
 Reduced
 -------
 Symbolic Z-matrix:
 Charge = -2 Multiplicity = 1

                         Standard orientation:
 ---------------------------------------------------------------------
 Center     Atomic      Atomic             Coordinates (Angstroms)
 Number     Number       Type             X           Y           Z
 ---------------------------------------------------------------------
      1          6           0        2.111630   -1.888201    0.113125
      2          6           0        3.423632   -1.483177    0.245933
      3          6           0        3.713005   -0.096236    0.321711
      4          6           0        1.038012   -0.966947    0.046199
      5          6           0        1.343718    0.442020    0.141565
      6          6           0        2.700124    0.832522    0.274820
      7          6           0       -0.316579   -1.467921   -0.101299
      8          6           0       -1.343746   -0.441931   -0.141578
      9          6           0       -1.038041    0.967036   -0.046211
     10          6           0        0.316551    1.468009    0.101282
     11          6           0       -2.700149   -0.832435   -0.274837
     12          6           0       -3.713034    0.096324   -0.321716
     13          6           0       -3.423662    1.483262   -0.245930
     14          6           0       -2.111660    1.888288   -0.113128
     15          8           0       -0.586396   -2.713692   -0.180366
     16          8           0        0.586365    2.713781    0.180351
     17          1           0        2.911819    1.893979    0.347855
     18          1           0       -1.852526    2.940701   -0.057313
     19          1           0        1.852495   -2.940614    0.057318
     20          1           0       -2.911832   -1.893894   -0.347882
     21          8           0       -5.046134   -0.309683   -0.492702
     22          8           0        5.046093    0.309798    0.492716
     23          6           0        5.754045    0.494746   -0.724395
     24          6           0       -5.753859   -0.495306    0.724437
     25          1           0        4.236595   -2.201789    0.306061
     26          1           0       -4.236635    2.201865   -0.306039
     27          1           0        6.778904    0.784825   -0.466802
     28          1           0        5.298994    1.286532   -1.334469
     29          1           0        5.786410   -0.429623   -1.319102
     30          1           0       -6.778748   -0.785309    0.466875
     31          1           0       -5.786166    0.428757    1.319624
     32          1           0       -5.298659   -1.287377    1.334023
 ---------------------------------------------------------------------

 SCF Done:  E(UB3LYP) =  -918.296203556     A.U. after   17 cycles

 The electronic state is 1-A.
 Alpha  occ. eigenvalues --  -19.12743 -19.12743 -19.01869 -19.01868 -10.20801
 Alpha  occ. eigenvalues --  -10.20801 -10.20090 -10.20090 -10.17218 -10.17217
 Alpha  occ. eigenvalues --  -10.15003 -10.15003 -10.14903 -10.14903 -10.14452
 Alpha  occ. eigenvalues --  -10.14452 -10.13591 -10.13590 -10.13456 -10.13455
 Alpha  occ. eigenvalues --   -1.03671  -1.03671  -0.94217  -0.93894  -0.82794
 Alpha  occ. eigenvalues --   -0.82158  -0.75274  -0.72860  -0.72770  -0.71614
 Alpha  occ. eigenvalues --   -0.68032  -0.67021  -0.62646  -0.61093  -0.57753
 Alpha  occ. eigenvalues --   -0.56741  -0.52914  -0.51849  -0.50469  -0.48463
 Alpha  occ. eigenvalues --   -0.46033  -0.45204  -0.44890  -0.44875  -0.44000
 Alpha  occ. eigenvalues --   -0.43045  -0.42115  -0.40530  -0.40503  -0.39654
 Alpha  occ. eigenvalues --   -0.38099  -0.37927  -0.37384  -0.36107  -0.35452
 Alpha  occ. eigenvalues --   -0.34438  -0.33257  -0.32885  -0.32619  -0.31964
 Alpha  occ. eigenvalues --   -0.30544  -0.29479  -0.26644  -0.26602  -0.23485
 Alpha  occ. eigenvalues --   -0.22583  -0.22160  -0.21115  -0.20194  -0.19413
 Alpha  occ. eigenvalues --   -0.10156
 Alpha virt. eigenvalues --   -0.02686  -0.00085   0.00199   0.00819   0.01423
 Alpha virt. eigenvalues --    0.01692   0.01910   0.02467   0.02689   0.03088
 Alpha virt. eigenvalues --    0.03770   0.04473   0.04682   0.05247   0.05753

  Beta  occ. eigenvalues --  -19.12743 -19.12743 -19.01869 -19.01868 -10.20801
  Beta  occ. eigenvalues --  -10.20801 -10.20090 -10.20090 -10.17218 -10.17217
  Beta  occ. eigenvalues --  -10.15003 -10.15003 -10.14903 -10.14903 -10.14452
  Beta  occ. eigenvalues --  -10.14452 -10.13591 -10.13590 -10.13456 -10.13455
  Beta  occ. eigenvalues --   -1.03671  -1.03671  -0.94217  -0.93894  -0.82794
  Beta  occ. eigenvalues --   -0.82158  -0.75274  -0.72860  -0.72770  -0.71614
  Beta  occ. eigenvalues --   -0.68032  -0.67021  -0.62646  -0.61093  -0.57753
  Beta  occ. eigenvalues --   -0.56741  -0.52914  -0.51849  -0.50469  -0.48463
  Beta  occ. eigenvalues --   -0.46033  -0.45204  -0.44890  -0.44875  -0.44000
  Beta  occ. eigenvalues --   -0.43045  -0.42115  -0.40530  -0.40503  -0.39654
  Beta  occ. eigenvalues --   -0.38099  -0.37927  -0.37384  -0.36107  -0.35452
  Beta  occ. eigenvalues --   -0.34438  -0.33257  -0.32885  -0.32619  -0.31964
  Beta  occ. eigenvalues --   -0.30544  -0.29479  -0.26644  -0.26602  -0.23485
  Beta  occ. eigenvalues --   -0.22583  -0.22160  -0.21115  -0.20194  -0.19413
  Beta  occ. eigenvalues --   -0.10156
  Beta virt. eigenvalues --   -0.02686  -0.00085   0.00199   0.00819   0.01423
  Beta virt. eigenvalues --    0.01692   0.01910   0.02467   0.02689   0.03088
  Beta virt. eigenvalues --    0.03770   0.04473   0.04682   0.05247   0.05753

 Mulliken charges and spin densities:
               1          2
     1  C   -0.031536   0.000000
     2  C    0.067159   0.000000
     3  C   -0.724408   0.000000
     4  C    0.209170  -0.000000
     5  C    0.391889   0.000000
     6  C   -0.088041  -0.000000
     7  C   -0.602003   0.000000
     8  C    0.391838   0.000000
     9  C    0.209306   0.000000
    10  C   -0.602014  -0.000000
    11  C   -0.088032  -0.000000
    12  C   -0.724408  -0.000000
    13  C    0.067266   0.000000
    14  C   -0.031438   0.000000
    15  O   -0.645957  -0.000000
    16  O   -0.645955   0.000000
    17  H    0.161885   0.000000
    18  H    0.150213  -0.000000
    19  H    0.150211  -0.000000
    20  H    0.161885  -0.000000
    21  O   -0.217825   0.000000
    22  O   -0.217817  -0.000000
    23  C   -0.289379   0.000000
    24  C   -0.289375  -0.000000
    25  H    0.187112  -0.000000
    26  H    0.187117   0.000000
    27  H    0.161773  -0.000000
    28  H    0.136909   0.000000
    29  H    0.132886   0.000000
    30  H    0.161772   0.000000
    31  H    0.132887  -0.000000
    32  H    0.136911   0.000000
 Sum of Mulliken charges =  -2.00000  -0.00000

 Dipole moment (field-independent basis, Debye):
    X=              0.0004    Y=             -0.0014    Z=              0.0001  Tot=              0.0014
 Quadrupole moment (field-independent basis, Debye-Ang):
   XX=           -151.7474   YY=           -174.9596   ZZ=           -129.9808
   XY=             -9.2846   XZ=            -21.0338   YZ=             -4.6852

 Normal termination of Gaussian 16 at Sun Jan 14 01:27:02 2024.
