 Gaussian 16, Revision A.03,
 Gaussian 16:  ES64L-G16RevA.03 25-Dec-2016

 --------------------------------------
 #P UB3LYP/6-311++G(d,p) nosym opt freq
 --------------------------------------

 -------
 Reduced
 -------
 Symbolic Z-matrix:
 Charge = -2 Multiplicity = 1

 SCF Done:  E(UB3LYP) =  -918.040622852     A.U. after   32 cycles
 Optimization completed.
    -- Stationary point found.
 Normal termination of Gaussian 16 at Wed Dec 27 20:37:02 2023.

 ----------------------------------------------------------------------
 #P Geom=AllCheck Guess=TCheck SCRF=Check GenChk UB3LYP/6-311++G(d,p) F
 req
 ----------------------------------------------------------------------

 Structure from the checkpoint file:  "141-an.chk"
 -------
 Reduced
 -------
 Charge = -2 Multiplicity = 1

                          Input orientation:
 ---------------------------------------------------------------------
 Center     Atomic      Atomic             Coordinates (Angstroms)
 Number     Number       Type             X           Y           Z
 ---------------------------------------------------------------------
      1          6           0       -3.087804    3.765978    0.641313
      2          6           0       -4.345822    3.222973    0.801207
      3          6           0       -4.517115    1.822769    0.648979
      4          6           0       -1.956154    2.974749    0.326403
      5          6           0       -2.140100    1.548043    0.190702
      6          6           0       -3.443288    1.015039    0.357109
      7          6           0       -0.664766    3.618363    0.166014
      8          6           0        0.431488    2.715489   -0.137952
      9          6           0        0.247543    1.288783   -0.273653
     10          6           0       -1.043847    0.645170   -0.113268
     11          6           0        1.734673    3.248495   -0.304362
     12          6           0        2.808504    2.440762   -0.596221
     13          6           0        2.637214    1.040561   -0.748441
     14          6           0        1.379194    0.497554   -0.588554
     15          8           0       -0.502112    4.878869    0.291186
     16          8           0       -1.206497   -0.615336   -0.238439
     17          1           0       -3.563282   -0.058241    0.254592
     18          1           0        1.209798   -0.568340   -0.702630
     19          1           0       -2.918406    4.831871    0.755397
     20          1           0        1.854654    4.321778   -0.201854
     21          8           0        4.083821    2.993282   -0.795024
     22          8           0       -5.792416    1.270221    0.847794
     23          6           0       -6.594218    1.232037   -0.323707
     24          6           0        4.885348    3.032102    0.376644
     25          1           0       -5.203496    3.841093    1.052706
     26          1           0        3.494898    0.422447   -0.999921
     27          1           0       -7.564607    0.807179   -0.043211
     28          1           0       -6.137395    0.603292   -1.099708
     29          1           0       -6.754416    2.237822   -0.738333
     30          1           0        5.855775    3.456883    0.096162
     31          1           0        5.045510    2.026528    0.791800
     32          1           0        4.428309    3.661197    1.152230
 ---------------------------------------------------------------------

 SCF Done:  E(UB3LYP) =  -918.040622852     A.U. after    8 cycles

 Alpha  occ. eigenvalues --  -18.93731 -18.93731 -18.81066 -18.81065 -10.03191
 Alpha  occ. eigenvalues --  -10.03191 -10.00067 -10.00066  -9.96897  -9.96896
 Alpha  occ. eigenvalues --   -9.95003  -9.95002  -9.94572  -9.94572  -9.94177
 Alpha  occ. eigenvalues --   -9.94177  -9.93272  -9.93271  -9.92971  -9.92970
 Alpha  occ. eigenvalues --   -0.84598  -0.84598  -0.73113  -0.72754  -0.62394
 Alpha  occ. eigenvalues --   -0.61873  -0.55258  -0.53101  -0.52662  -0.51718
 Alpha  occ. eigenvalues --   -0.49332  -0.47804  -0.42499  -0.40960  -0.37964
 Alpha  occ. eigenvalues --   -0.36533  -0.32643  -0.32614  -0.30312  -0.29146
 Alpha  occ. eigenvalues --   -0.26840  -0.26558  -0.26476  -0.26293  -0.23860
 Alpha  occ. eigenvalues --   -0.23659  -0.22876  -0.20529  -0.20149  -0.19417
 Alpha  occ. eigenvalues --   -0.17825  -0.17222  -0.17120  -0.16115  -0.15501
 Alpha  occ. eigenvalues --   -0.14547  -0.12816  -0.12807  -0.11994  -0.11216
 Alpha  occ. eigenvalues --   -0.09908  -0.08926  -0.07510  -0.07461  -0.02846
 Alpha  occ. eigenvalues --   -0.01823  -0.00971  -0.00649   0.01177   0.01844
 Alpha  occ. eigenvalues --    0.11270
 Alpha virt. eigenvalues --    0.12865   0.13126   0.16334   0.16335   0.16797
 Alpha virt. eigenvalues --    0.16848   0.17984   0.18462   0.18884   0.19698
 Alpha virt. eigenvalues --    0.20335   0.20755   0.20804   0.21701   0.22331

  Beta  occ. eigenvalues --  -18.93731 -18.93731 -18.81066 -18.81065 -10.03191
  Beta  occ. eigenvalues --  -10.03191 -10.00067 -10.00066  -9.96897  -9.96896
  Beta  occ. eigenvalues --   -9.95003  -9.95002  -9.94572  -9.94572  -9.94177
  Beta  occ. eigenvalues --   -9.94177  -9.93272  -9.93271  -9.92971  -9.92970
  Beta  occ. eigenvalues --   -0.84598  -0.84598  -0.73113  -0.72754  -0.62394
  Beta  occ. eigenvalues --   -0.61873  -0.55258  -0.53101  -0.52662  -0.51718
  Beta  occ. eigenvalues --   -0.49332  -0.47804  -0.42499  -0.40960  -0.37964
  Beta  occ. eigenvalues --   -0.36533  -0.32643  -0.32614  -0.30312  -0.29146
  Beta  occ. eigenvalues --   -0.26840  -0.26558  -0.26476  -0.26293  -0.23860
  Beta  occ. eigenvalues --   -0.23659  -0.22876  -0.20529  -0.20149  -0.19417
  Beta  occ. eigenvalues --   -0.17825  -0.17222  -0.17120  -0.16115  -0.15501
  Beta  occ. eigenvalues --   -0.14547  -0.12816  -0.12807  -0.11994  -0.11216
  Beta  occ. eigenvalues --   -0.09908  -0.08926  -0.07510  -0.07461  -0.02846
  Beta  occ. eigenvalues --   -0.01823  -0.00971  -0.00649   0.01177   0.01844
  Beta  occ. eigenvalues --    0.11270
  Beta virt. eigenvalues --    0.12865   0.13126   0.16334   0.16335   0.16797
  Beta virt. eigenvalues --    0.16848   0.17984   0.18462   0.18884   0.19698
  Beta virt. eigenvalues --    0.20335   0.20755   0.20804   0.21701   0.22331

 Mulliken charges and spin densities:
               1          2
     1  C    0.001207  -0.000000
     2  C    0.243584   0.000000
     3  C   -0.748242   0.000000
     4  C    0.281131  -0.000000
     5  C    0.464801  -0.000000
     6  C   -0.134205  -0.000000
     7  C   -0.840523   0.000000
     8  C    0.464738   0.000000
     9  C    0.281308   0.000000
    10  C   -0.840545  -0.000000
    11  C   -0.134154   0.000000
    12  C   -0.748138  -0.000000
    13  C    0.243559  -0.000000
    14  C    0.001342   0.000000
    15  O   -0.465303  -0.000000
    16  O   -0.465298   0.000000
    17  H    0.169364   0.000000
    18  H    0.146540  -0.000000
    19  H    0.146543   0.000000
    20  H    0.169356  -0.000000
    21  O   -0.212229   0.000000
    22  O   -0.212225  -0.000000
    23  C    0.442205   0.000000
    24  C    0.442061  -0.000000
    25  H    0.086659  -0.000000
    26  H    0.086714   0.000000
    27  H   -0.402251  -0.000000
    28  H   -0.013863  -0.000000
    29  H   -0.019076  -0.000000
    30  H   -0.402234   0.000000
    31  H   -0.019015   0.000000
    32  H   -0.013811   0.000000
 Sum of Mulliken charges =  -2.00000   0.00000

 Dipole moment (field-independent basis, Debye):
    X=              8.2079    Y=            -20.4787    Z=             -0.2533  Tot=             22.0638
 Quadrupole moment (field-independent basis, Debye-Ang):
   XX=           -286.5621   YY=           -220.5459   ZZ=           -138.8248
   XY=            -10.9030   XZ=             12.3667   YZ=             -3.3775

  Exact polarizability:6687.9911117.281 614.962 350.155  91.998 406.213
 Approx polarizability:********1811.378 916.390 515.601 148.022 424.904

                      1                      2                      3
                      A                      A                      A
 Frequencies --     17.1230                21.0342                34.1575
 Red. masses --      2.6983                 2.8868                 5.7954
 Frc consts  --      0.0005                 0.0008                 0.0040
 IR Inten    --     10.0788                 0.0001                 0.0735

                      4                      5                      6
                      A                      A                      A
 Frequencies --     86.8617                89.8096               144.6861
 Red. masses --      4.8152                 4.9054                 3.7944
 Frc consts  --      0.0214                 0.0233                 0.0468
 IR Inten    --      0.0000                12.7847                13.7731

                      7                      8                      9
                      A                      A                      A
 Frequencies --    150.2304               165.0184               168.9442
 Red. masses --      1.9165                 1.1438                 3.8187
 Frc consts  --      0.0255                 0.0184                 0.0642
 IR Inten    --     13.9125                 0.0000                 0.0000

                     10                     11                     12
                      A                      A                      A
 Frequencies --    191.4341               198.0316               233.1253
 Red. masses --      2.2266                 4.0244                 5.1962
 Frc consts  --      0.0481                 0.0930                 0.1664
 IR Inten    --     48.8825                36.3154                 0.0000

                     13                     14                     15
                      A                      A                      A
 Frequencies --    254.4826               309.5605               335.0640
 Red. masses --      6.8994                 7.8231                 8.0689
 Frc consts  --      0.2633                 0.4417                 0.5337
 IR Inten    --      0.0000                 0.0000                53.5226

                     16                     17                     18
                      A                      A                      A
 Frequencies --    377.5169               378.8398               391.2570
 Red. masses --      5.5329                 5.7239                 7.7369
 Frc consts  --      0.4646                 0.4840                 0.6978
 IR Inten    --      5.9929                 0.0000                 0.0000

                     19                     20                     21
                      A                      A                      A
 Frequencies --    405.6185               438.6282               454.3986
 Red. masses --      6.1609                 3.5600                 6.2134
 Frc consts  --      0.5972                 0.4035                 0.7559
 IR Inten    --     23.1179                 2.7418                 0.0000

                     22                     23                     24
                      A                      A                      A
 Frequencies --    474.7232               482.9741               506.4013
 Red. masses --      3.2799                 9.2258                 5.9319
 Frc consts  --      0.4355                 1.2680                 0.8963
 IR Inten    --      0.0000                 0.0000                 0.0000

                     25                     26                     27
                      A                      A                      A
 Frequencies --    526.0168               601.9488               628.9573
 Red. masses --      5.7069                 3.2705                 5.9515
 Frc consts  --      0.9304                 0.6982                 1.3871
 IR Inten    --      5.5936                18.9115                 0.0000

                     28                     29                     30
                      A                      A                      A
 Frequencies --    655.9540               674.8582               698.2303
 Red. masses --      6.9580                 3.4018                 6.5366
 Frc consts  --      1.7639                 0.9128                 1.8776
 IR Inten    --     25.1846                 0.0000                 0.0000

                     31                     32                     33
                      A                      A                      A
 Frequencies --    712.9882               716.2047               736.7190
 Red. masses --      5.6773                 4.4816                 5.6760
 Frc consts  --      1.7004                 1.3544                 1.8151
 IR Inten    --      7.5271                63.8624                36.2065

                     34                     35                     36
                      A                      A                      A
 Frequencies --    765.1362               777.0356               790.6540
 Red. masses --      1.8703                 4.5028                 1.6614
 Frc consts  --      0.6451                 1.6018                 0.6119
 IR Inten    --      0.0000                 0.0000               113.3667

                     37                     38                     39
                      A                      A                      A
 Frequencies --    821.5906               873.9156               926.4513
 Red. masses --      4.1704                 6.7389                 1.4500
 Frc consts  --      1.6586                 3.0323                 0.7333
 IR Inten    --      0.0000               171.6977                 0.0001

                     40                     41                     42
                      A                      A                      A
 Frequencies --    927.0715               964.3528               968.3291
 Red. masses --      1.4302                 3.2391                 1.3047
 Frc consts  --      0.7242                 1.7748                 0.7208
 IR Inten    --     25.3878                79.5697                 0.0000

                     43                     44                     45
                      A                      A                      A
 Frequencies --    970.9924               981.3780              1023.3672
 Red. masses --      1.3367                 4.4715                 3.3757
 Frc consts  --      0.7425                 2.5373                 2.0830
 IR Inten    --     24.4240                 0.0000              1326.4073

                     46                     47                     48
                      A                      A                      A
 Frequencies --   1024.5830              1090.7019              1101.9634
 Red. masses --      4.9544                 2.2444                 1.6678
 Frc consts  --      3.0643                 1.5731                 1.1932
 IR Inten    --      0.0044               266.8661                 0.0000

                     49                     50                     51
                      A                      A                      A
 Frequencies --   1119.7501              1120.5932              1161.7070
 Red. masses --      1.7387                 2.4428                 1.2924
 Frc consts  --      1.2844                 1.8073                 1.0277
 IR Inten    --      0.0003               459.7846                13.9740

                     52                     53                     54
                      A                      A                      A
 Frequencies --   1162.3097              1180.2372              1191.0322
 Red. masses --      1.2723                 2.4461                 1.7159
 Frc consts  --      1.0127                 2.0075                 1.4342
 IR Inten    --      0.0000               254.0643                 0.0001

                     55                     56                     57
                      A                      A                      A
 Frequencies --   1195.1116              1201.7746              1211.9273
 Red. masses --      1.7629                 1.7199                 3.2661
 Frc consts  --      1.4836                 1.4635                 2.8264
 IR Inten    --    133.6115                 0.0000              1727.8877

                     58                     59                     60
                      A                      A                      A
 Frequencies --   1226.1871              1240.1276              1299.5335
 Red. masses --      4.3652                 1.8890                 2.4719
 Frc consts  --      3.8669                 1.7117                 2.4596
 IR Inten    --      0.0000                98.7717                 0.0000

                     61                     62                     63
                      A                      A                      A
 Frequencies --   1338.1774              1346.8942              1369.8289
 Red. masses --      7.5002                 6.4054                 4.6062
 Frc consts  --      7.9132                 6.8464                 5.0924
 IR Inten    --      0.0000                55.7142               595.9666

                     64                     65                     66
                      A                      A                      A
 Frequencies --   1441.9277              1450.4405              1454.1104
 Red. masses --      1.7904                 1.8856                 2.1091
 Frc consts  --      2.1932                 2.3372                 2.6275
 IR Inten    --    312.8169                 0.0000                 0.0000

                     67                     68                     69
                      A                      A                      A
 Frequencies --   1462.0062              1466.2865              1466.4527
 Red. masses --      1.8018                 1.0616                 1.0961
 Frc consts  --      2.2691                 1.3448                 1.3888
 IR Inten    --   1039.1614               463.8276                 0.0015

                     70                     71                     72
                      A                      A                      A
 Frequencies --   1473.8119              1484.6611              1488.9305
 Red. masses --      6.0573                 4.3599                 3.0845
 Frc consts  --      7.7520                 5.6622                 4.0289
 IR Inten    --      0.0000              1588.1920                 0.0002

                     73                     74                     75
                      A                      A                      A
 Frequencies --   1500.5009              1501.3886              1528.8019
 Red. masses --      1.0588                 1.0718                 6.0547
 Frc consts  --      1.4045                 1.4234                 8.3377
 IR Inten    --    633.3233                 0.0009               146.1996

                     76                     77                     78
                      A                      A                      A
 Frequencies --   1561.1539              1593.3146              1595.6109
 Red. masses --      8.1827                 6.6672                 5.9882
 Frc consts  --     11.7500                 9.9723                 8.9825
 IR Inten    --      0.0000              1294.3576                 0.0027

                     79                     80                     81
                      A                      A                      A
 Frequencies --   2955.6128              2955.6603              3011.9651
 Red. masses --      1.0301                 1.0301                 1.1032
 Frc consts  --      5.3020                 5.3021                 5.8966
 IR Inten    --    115.8311                 0.0072                38.7655

                     82                     83                     84
                      A                      A                      A
 Frequencies --   3011.9814              3043.4216              3043.4316
 Red. masses --      1.1032                 1.1021                 1.1021
 Frc consts  --      5.8966                 6.0143                 6.0145
 IR Inten    --      4.9162                76.7226                 0.0082

                     85                     86                     87
                      A                      A                      A
 Frequencies --   3134.7212              3134.8728              3165.9715
 Red. masses --      1.0867                 1.0869                 1.0919
 Frc consts  --      6.2914                 6.2935                 6.4481
 IR Inten    --     44.3420                 0.0031                47.4111

                     88                     89                     90
                      A                      A                      A
 Frequencies --   3166.0104              3172.8771              3173.0856
 Red. masses --      1.0917                 1.0893                 1.0893
 Frc consts  --      6.4476                 6.4610                 6.4621
 IR Inten    --      0.0257                56.0938                 0.0260

 - Thermochemistry -
 -------------------
 Temperature   298.150 Kelvin.  Pressure   1.00000 Atm.
 Atom     1 has atomic number  6 and mass  12.00000

 Molecular mass:   268.07356 amu.
 Principal axes and moments of inertia in atomic units:
                           1         2         3
     Eigenvalues --  1977.90848********************
           X            0.99149  -0.07887   0.10358
           Y            0.09526   0.98181  -0.16426
           Z           -0.08874   0.17273   0.98096
 This molecule is an asymmetric top.
 Rotational symmetry number  1.
 Warning -- assumption of classical behavior for rotation
           may cause significant error
 Rotational temperatures (Kelvin)      0.04379     0.00837     0.00717
 Rotational constants (GHZ):           0.91245     0.17433     0.14947
 Zero-point vibrational energy     622497.9 (Joules/Mol)
                                  148.78057 (Kcal/Mol)
 Warning -- explicit consideration of  26 degrees of freedom as
           vibrations may cause significant error
 Vibrational temperatures:     24.64    30.26    49.15   124.97   129.22
          (Kelvin)            208.17   216.15   237.42   243.07   275.43
                              284.92   335.42   366.14   445.39   482.08
                              543.16   545.07   562.93   583.59   631.09
                              653.78   683.02   694.89   728.60   756.82
                              866.07   904.93   943.77   970.97  1004.60
                             1025.83  1030.46  1059.97  1100.86  1117.98
                             1137.57  1182.09  1257.37  1332.96  1333.85
                             1387.49  1393.21  1397.04  1411.98  1472.40
                             1474.15  1569.28  1585.48  1611.07  1612.28
                             1671.44  1672.30  1698.10  1713.63  1719.50
                             1729.09  1743.69  1764.21  1784.27  1869.74
                             1925.34  1937.88  1970.88  2074.61  2086.86
                             2092.14  2103.50  2109.66  2109.90  2120.49
                             2136.10  2142.24  2158.89  2160.16  2199.60
                             2246.15  2292.42  2295.73  4252.47  4252.54
                             4333.55  4333.57  4378.80  4378.82  4510.16
                             4510.38  4555.13  4555.18  4565.06  4565.36

 Zero-point correction=                           0.237097 (Hartree/Particle)
 Thermal correction to Energy=                    0.254344
 Thermal correction to Enthalpy=                  0.255288
 Thermal correction to Gibbs Free Energy=         0.189906
 Sum of electronic and zero-point Energies=           -917.803526
 Sum of electronic and thermal Energies=              -917.786279
 Sum of electronic and thermal Enthalpies=            -917.785335
 Sum of electronic and thermal Free Energies=         -917.850717

                     E (Thermal)             CV                S
                      KCal/Mol        Cal/Mol-Kelvin    Cal/Mol-Kelvin
 Total                  159.603             65.758            137.609
 Electronic               0.000              0.000              0.000
 Translational            0.889              2.981             42.657
 Rotational               0.889              2.981             33.869
 Vibrational            157.826             59.796             61.083
 Vibration     1          0.593              1.986              6.943
 Vibration     2          0.593              1.985              6.534
 Vibration     3          0.594              1.983              5.572
 Vibration     4          0.601              1.958              3.730
 Vibration     5          0.602              1.956              3.664
 Vibration     6          0.616              1.908              2.741
 Vibration     7          0.618              1.902              2.669
 Vibration     8          0.623              1.885              2.491
 Vibration     9          0.625              1.881              2.447
 Vibration    10          0.634              1.852              2.214
 Vibration    11          0.637              1.843              2.151
 Vibration    12          0.654              1.790              1.855
 Vibration    13          0.665              1.755              1.699
 Vibration    14          0.699              1.656              1.365
 Vibration    15          0.716              1.605              1.236
 Vibration    16          0.748              1.518              1.049
 Vibration    17          0.749              1.515              1.044
 Vibration    18          0.759              1.489              0.995
 Vibration    19          0.771              1.458              0.942
 Vibration    20          0.799              1.386              0.831
 Vibration    21          0.813              1.351              0.783
 Vibration    22          0.831              1.306              0.724
 Vibration    23          0.839              1.288              0.702
 Vibration    24          0.862              1.236              0.642
 Vibration    25          0.881              1.192              0.596
 Vibration    26          0.960              1.028              0.446

 Optimization completed.
    -- Stationary point found.
 Normal termination of Gaussian 16 at Wed Dec 27 21:26:20 2023.
