 Gaussian 16, Revision A.03,
 Gaussian 16:  ES64L-G16RevA.03 25-Dec-2016

 ----------------------------------------------------------------------
 #P UB3LYP/6-311++G(d,p) nosym opt freq SCRF=(PCM,Solvent=n,n-DiMethylF
 ormamide)
 ----------------------------------------------------------------------

 -------
 Radical
 -------
 Symbolic Z-matrix:
 Charge = -1 Multiplicity = 2

 SCF Done:  E(UB3LYP) =  -918.209418072     A.U. after   19 cycles
 SCF Done:  E(UB3LYP) =  -918.210150149     A.U. after   15 cycles
 SCF Done:  E(UB3LYP) =  -918.210300724     A.U. after   14 cycles
 SCF Done:  E(UB3LYP) =  -918.210305639     A.U. after   12 cycles
 SCF Done:  E(UB3LYP) =  -918.210306589     A.U. after   10 cycles
 SCF Done:  E(UB3LYP) =  -918.210307155     A.U. after   10 cycles
 Optimization completed.
    -- Stationary point found.
 Normal termination of Gaussian 16 at Sat Feb 10 16:38:32 2024.

 ----------------------------------------------------------------------
 #P Geom=AllCheck Guess=TCheck SCRF=Check GenChk UB3LYP/6-311++G(d,p) F
 req
 ----------------------------------------------------------------------

 Structure from the checkpoint file:  "142-rad.chk"
 -------
 Radical
 -------
 Charge = -1 Multiplicity = 2

                          Input orientation:
 ---------------------------------------------------------------------
 Center     Atomic      Atomic             Coordinates (Angstroms)
 Number     Number       Type             X           Y           Z
 ---------------------------------------------------------------------
      1          6           0       -3.257751    3.665459    0.084164
      2          6           0       -4.490789    3.034406    0.089803
      3          6           0       -4.561940    1.622655    0.065412
      4          6           0       -2.056612    2.928911    0.054072
      5          6           0       -2.121483    1.501835    0.030327
      6          6           0       -3.389791    0.890020    0.036573
      7          6           0       -0.781514    3.638399    0.047466
      8          6           0        0.423544    2.816070    0.018624
      9          6           0        0.357825    1.389045   -0.004947
     10          6           0       -0.917026    0.675755    0.000584
     11          6           0        1.686862    3.440893    0.013594
     12          6           0        2.857251    2.700504   -0.014234
     13          6           0        2.799157    1.288174   -0.039070
     14          6           0        1.565106    0.664887   -0.034004
     15          8           0       -0.723225    4.906137    0.066341
     16          8           0       -0.974890   -0.584758   -0.018335
     17          1           0       -3.432252   -0.192484    0.017856
     18          1           0        1.509081   -0.416803   -0.052963
     19          1           0       -3.210001    4.746806    0.103248
     20          1           0        1.737173    4.522367    0.032264
     21          8           0        4.028201    3.410800   -0.016022
     22          6           0        5.265961    2.698358   -0.040903
     23          8           0       -5.591703    3.848425    0.119719
     24          1           0        3.701076    0.691648   -0.061719
     25          1           0        6.044834    3.458666   -0.035971
     26          1           0        5.358141    2.091312   -0.946347
     27          1           0        5.376416    2.060872    0.841280
     28          6           0       -6.889614    3.252101    0.121058
     29          1           0       -5.514607    1.110561    0.069075
     30          1           0       -7.595451    4.080382    0.143670
     31          1           0       -7.038931    2.624701    1.004743
     32          1           0       -7.056157    2.658685   -0.782796
 ---------------------------------------------------------------------

 SCF Done:  E(UB3LYP) =  -918.210307155     A.U. after    1 cycles

 Alpha  occ. eigenvalues --  -19.15615 -19.15612 -19.07347 -19.07029 -10.23549
 Alpha  occ. eigenvalues --  -10.23546 -10.22510 -10.22056 -10.22052 -10.21677
 Alpha  occ. eigenvalues --  -10.17436 -10.17434 -10.17428 -10.17427 -10.17309
 Alpha  occ. eigenvalues --  -10.17308 -10.16761 -10.16760 -10.16410 -10.16405
 Alpha  occ. eigenvalues --   -1.06803  -1.06802  -0.99770  -0.99111  -0.86046
 Alpha  occ. eigenvalues --   -0.85051  -0.78587  -0.75997  -0.75973  -0.74310
 Alpha  occ. eigenvalues --   -0.70928  -0.69643  -0.65902  -0.63567  -0.60685
 Alpha  occ. eigenvalues --   -0.59431  -0.56038  -0.54129  -0.54009  -0.50089
 Alpha  occ. eigenvalues --   -0.49797  -0.48827  -0.47016  -0.46990  -0.46969
 Alpha  occ. eigenvalues --   -0.44841  -0.43564  -0.42754  -0.42445  -0.41990
 Alpha  occ. eigenvalues --   -0.41902  -0.40832  -0.39921  -0.39469  -0.38147
 Alpha  occ. eigenvalues --   -0.37758  -0.37648  -0.36467  -0.35952  -0.35440
 Alpha  occ. eigenvalues --   -0.33137  -0.32698  -0.32334  -0.30957  -0.26205
 Alpha  occ. eigenvalues --   -0.25749  -0.24345  -0.23733  -0.23553  -0.22454
 Alpha  occ. eigenvalues --   -0.13745
 Alpha virt. eigenvalues --   -0.05347  -0.01354  -0.00446  -0.00087   0.00012
 Alpha virt. eigenvalues --    0.01175   0.01246   0.01965   0.02913   0.03316
 Alpha virt. eigenvalues --    0.03524   0.03736   0.04034   0.04801   0.05150

  Beta  occ. eigenvalues --  -19.15592 -19.15589 -19.06895 -19.06414 -10.23524
  Beta  occ. eigenvalues --  -10.23521 -10.22363 -10.22057 -10.22053 -10.21430
  Beta  occ. eigenvalues --  -10.17451 -10.17449 -10.17361 -10.17361 -10.17264
  Beta  occ. eigenvalues --  -10.17263 -10.16696 -10.16695 -10.16349 -10.16344
  Beta  occ. eigenvalues --   -1.06757  -1.06756  -0.98968  -0.98007  -0.85788
  Beta  occ. eigenvalues --   -0.84943  -0.78227  -0.75884  -0.75746  -0.74168
  Beta  occ. eigenvalues --   -0.70697  -0.69577  -0.65281  -0.63389  -0.60469
  Beta  occ. eigenvalues --   -0.59352  -0.55821  -0.53951  -0.53932  -0.49937
  Beta  occ. eigenvalues --   -0.49703  -0.48623  -0.46939  -0.46921  -0.46888
  Beta  occ. eigenvalues --   -0.44715  -0.43341  -0.42714  -0.42336  -0.41858
  Beta  occ. eigenvalues --   -0.40834  -0.40364  -0.39831  -0.39203  -0.37908
  Beta  occ. eigenvalues --   -0.37694  -0.36154  -0.35826  -0.35291  -0.35016
  Beta  occ. eigenvalues --   -0.33095  -0.32593  -0.32148  -0.29924  -0.25276
  Beta  occ. eigenvalues --   -0.24485  -0.23874  -0.23034  -0.22613  -0.22058
  Beta virt. eigenvalues --   -0.07846  -0.04430  -0.00544  -0.00437   0.00010
  Beta virt. eigenvalues --    0.00344   0.01182   0.01263   0.01961   0.02916
  Beta virt. eigenvalues --    0.03358   0.03530   0.03740   0.04055   0.04795

 Mulliken charges and spin densities:
               1          2
     1  C   -0.565271   0.068941
     2  C   -0.782832   0.004808
     3  C    0.040522   0.036140
     4  C    0.775677   0.051034
     5  C    0.533053   0.024605
     6  C    0.026211   0.006577
     7  C   -0.707503   0.146234
     8  C    0.775254   0.051068
     9  C    0.533260   0.024642
    10  C   -0.453201   0.077285
    11  C   -0.564304   0.068994
    12  C   -0.783829   0.004780
    13  C    0.041191   0.036193
    14  C    0.025979   0.006522
    15  O   -0.478934   0.231059
    16  O   -0.469049   0.166760
    17  H    0.168342  -0.000471
    18  H    0.168248  -0.000466
    19  H    0.173387  -0.004903
    20  H    0.173480  -0.004909
    21  O   -0.211470   0.005077
    22  C   -0.337638   0.000143
    23  O   -0.211416   0.005085
    24  H    0.214727  -0.003045
    25  H    0.190258  -0.000017
    26  H    0.164507   0.000195
    27  H    0.164613   0.000195
    28  C   -0.337536   0.000141
    29  H    0.215005  -0.003041
    30  H    0.190186  -0.000017
    31  H    0.164570   0.000196
    32  H    0.164514   0.000195
 Sum of Mulliken charges =  -1.00000   1.00000

 Dipole moment (field-independent basis, Debye):
    X=              3.9287    Y=            -13.5709    Z=             -0.1714  Tot=             14.1292
 Quadrupole moment (field-independent basis, Debye-Ang):
   XX=            -86.0980   YY=           -196.9928   ZZ=           -122.7023
   XY=              7.6233   XZ=             -0.3668   YZ=             -1.0090

  Exact polarizability: 544.658  -7.601 375.995  -5.242   3.797 157.464
 Approx polarizability: 538.622  -3.944 450.299  -4.850   4.635 179.722

                      1                      2                      3
                      A                      A                      A
 Frequencies --     30.6533                62.2712                71.4719
 Red. masses --      4.9075                 3.2683                 3.9972
 Frc consts  --      0.0027                 0.0075                 0.0120
 IR Inten    --     17.5093                 0.0111                 0.4175

                      4                      5                      6
                      A                      A                      A
 Frequencies --     86.8935               110.5164               125.0250
 Red. masses --      4.0146                 5.5390                 4.7388
 Frc consts  --      0.0179                 0.0399                 0.0436
 IR Inten    --      0.1776                13.1071                11.4188

                      7                      8                      9
                      A                      A                      A
 Frequencies --    157.9194               182.4363               194.3124
 Red. masses --      6.9620                 4.8500                 4.7736
 Frc consts  --      0.1023                 0.0951                 0.1062
 IR Inten    --      8.0191                 0.0734                 2.1343

                     10                     11                     12
                      A                      A                      A
 Frequencies --    221.8419               228.1285               260.1249
 Red. masses --      1.2287                 1.1577                 4.2652
 Frc consts  --      0.0356                 0.0355                 0.1700
 IR Inten    --      0.6051                 0.0029                 0.0946

                     13                     14                     15
                      A                      A                      A
 Frequencies --    289.6788               306.4434               307.2612
 Red. masses --      3.9019                 5.3162                 4.7710
 Frc consts  --      0.1929                 0.2941                 0.2654
 IR Inten    --      1.8685                 1.1277                 8.8171

                     16                     17                     18
                      A                      A                      A
 Frequencies --    334.1326               342.1478               404.1793
 Red. masses --      4.9580                10.5010                 8.0962
 Frc consts  --      0.3261                 0.7243                 0.7793
 IR Inten    --      0.0065                 2.8917                24.6760

                     19                     20                     21
                      A                      A                      A
 Frequencies --    418.0685               457.8173               467.9024
 Red. masses --      4.0305                 3.0057                 8.0150
 Frc consts  --      0.4151                 0.3712                 1.0339
 IR Inten    --      0.9018                 0.0142                10.6730

                     22                     23                     24
                      A                      A                      A
 Frequencies --    488.6789               502.2263               528.2122
 Red. masses --      5.0398                 6.7933                 4.5211
 Frc consts  --      0.7091                 1.0095                 0.7432
 IR Inten    --     10.5863                 7.3107                10.6977

                     25                     26                     27
                      A                      A                      A
 Frequencies --    586.4180               590.0762               616.7682
 Red. masses --      6.6076                 4.6130                 4.7814
 Frc consts  --      1.3388                 0.9464                 1.0716
 IR Inten    --     65.0489                 0.0170                 0.2491

                     28                     29                     30
                      A                      A                      A
 Frequencies --    654.4998               657.5913               709.6708
 Red. masses --      7.7997                 2.9817                 6.7716
 Frc consts  --      1.9686                 0.7597                 2.0093
 IR Inten    --      0.8338                35.9973                 2.8819

                     31                     32                     33
                      A                      A                      A
 Frequencies --    713.8409               717.6131               729.2397
 Red. masses --      6.3819                 4.0794                 7.5045
 Frc consts  --      1.9160                 1.2377                 2.3513
 IR Inten    --     54.9447                 0.5056                49.4076

                     34                     35                     36
                      A                      A                      A
 Frequencies --    773.7895               779.7662               808.2356
 Red. masses --      2.9644                 6.3751                 1.4493
 Frc consts  --      1.0458                 2.2839                 0.5578
 IR Inten    --     15.6638               108.0708                 0.0390

                     37                     38                     39
                      A                      A                      A
 Frequencies --    823.7090               883.0303               893.0184
 Red. masses --      2.0414                 1.5082                 1.4967
 Frc consts  --      0.8161                 0.6929                 0.7033
 IR Inten    --     53.8818                18.5070                51.8143

                     40                     41                     42
                      A                      A                      A
 Frequencies --    899.8170               937.4607               971.5019
 Red. masses --      5.3457                 6.8315                 1.3180
 Frc consts  --      2.5502                 3.5373                 0.7329
 IR Inten    --     27.2608                79.1008                 0.9906

                     43                     44                     45
                      A                      A                      A
 Frequencies --    977.6986               992.8357              1042.0167
 Red. masses --      1.3230                 3.9712                 2.9080
 Frc consts  --      0.7451                 2.3064                 1.8604
 IR Inten    --      3.5638                24.4032                51.2189

                     46                     47                     48
                      A                      A                      A
 Frequencies --   1045.8196              1111.0337              1130.8107
 Red. masses --      2.8591                 3.6683                 1.6393
 Frc consts  --      1.8424                 2.6679                 1.2351
 IR Inten    --    100.8779                21.2042                49.2571

                     49                     50                     51
                      A                      A                      A
 Frequencies --   1148.5681              1165.1404              1165.3098
 Red. masses --      1.7004                 1.2700                 1.2701
 Frc consts  --      1.3217                 1.0158                 1.0161
 IR Inten    --     12.0817                 0.9724                 1.3284

                     52                     53                     54
                      A                      A                      A
 Frequencies --   1181.7028              1192.9857              1194.2017
 Red. masses --      2.7093                 1.8050                 1.9065
 Frc consts  --      2.2291                 1.5136                 1.6019
 IR Inten    --    825.0835                 4.2687                60.4227

                     55                     56                     57
                      A                      A                      A
 Frequencies --   1203.9720              1216.3997              1239.8516
 Red. masses --      1.5765                 1.8511                 2.3723
 Frc consts  --      1.3464                 1.6138                 2.1486
 IR Inten    --     52.1669                 0.5269               371.7999

                     58                     59                     60
                      A                      A                      A
 Frequencies --   1264.9467              1276.4656              1329.6507
 Red. masses --      4.1117                 2.8426                 2.2679
 Frc consts  --      3.8763                 2.7289                 2.3624
 IR Inten    --    747.9518                 1.0530                 8.6359

                     61                     62                     63
                      A                      A                      A
 Frequencies --   1350.2679              1361.7814              1412.3703
 Red. masses --      8.2273                 8.6461                 4.5131
 Frc consts  --      8.8379                 9.4468                 5.3042
 IR Inten    --    349.9177                 4.0850              1065.9508

                     64                     65                     66
                      A                      A                      A
 Frequencies --   1446.6836              1460.1902              1471.1845
 Red. masses --      2.6303                 2.8475                 1.6386
 Frc consts  --      3.2435                 3.5771                 2.0896
 IR Inten    --    439.0076               233.2643                23.1645

                     67                     68                     69
                      A                      A                      A
 Frequencies --   1475.6763              1484.2063              1484.3815
 Red. masses --      1.4663                 1.0450                 1.0450
 Frc consts  --      1.8813                 1.3564                 1.3566
 IR Inten    --    402.8068                 9.5370                16.6414

                     70                     71                     72
                      A                      A                      A
 Frequencies --   1490.7492              1494.7900              1497.9560
 Red. masses --      2.0287                 1.2375                 1.2027
 Frc consts  --      2.6563                 1.6291                 1.5900
 IR Inten    --    219.9599               204.6391                22.1700

                     73                     74                     75
                      A                      A                      A
 Frequencies --   1506.1399              1528.3957              1556.5326
 Red. masses --      3.1654                 4.1090                 5.2282
 Frc consts  --      4.2307                 5.6554                 7.4631
 IR Inten    --    483.2690               146.4079                 2.4957

                     76                     77                     78
                      A                      A                      A
 Frequencies --   1595.9246              1617.4110              1638.9941
 Red. masses --      8.0575                 6.1179                 7.2963
 Frc consts  --     12.0914                 9.4296                11.5480
 IR Inten    --     64.0268               932.4229                 0.0599

                     79                     80                     81
                      A                      A                      A
 Frequencies --   3015.4319              3015.6150              3078.5067
 Red. masses --      1.0332                 1.0332                 1.1068
 Frc consts  --      5.5352                 5.5361                 6.1804
 IR Inten    --    145.4014                70.2224                50.5080

                     82                     83                     84
                      A                      A                      A
 Frequencies --   3078.6206              3136.8277              3137.3796
 Red. masses --      1.1068                 1.1008                 1.1007
 Frc consts  --      6.1808                 6.3819                 6.3836
 IR Inten    --     54.0506                32.4428                32.4393

                     85                     86                     87
                      A                      A                      A
 Frequencies --   3183.7899              3185.7528              3194.6717
 Red. masses --      1.0877                 1.0876                 1.0894
 Frc consts  --      6.4960                 6.5033                 6.5508
 IR Inten    --      3.4695                 2.1027                18.2461

                     88                     89                     90
                      A                      A                      A
 Frequencies --   3197.0665              3206.5600              3207.2059
 Red. masses --      1.0895                 1.0926                 1.0926
 Frc consts  --      6.5610                 6.6187                 6.6219
 IR Inten    --     10.7744                18.0843                15.9528

 - Thermochemistry -
 -------------------
 Temperature   298.150 Kelvin.  Pressure   1.00000 Atm.
 Atom     1 has atomic number  6 and mass  12.00000

 Molecular mass:   268.07356 amu.
 Principal axes and moments of inertia in atomic units:
                           1         2         3
     Eigenvalues --  1927.95473********************
           X            0.99887   0.04566   0.01306
           Y           -0.04543   0.99882  -0.01700
           Z           -0.01382   0.01639   0.99977
 This molecule is an asymmetric top.
 Rotational symmetry number  1.
 Warning -- assumption of classical behavior for rotation
           may cause significant error
 Rotational temperatures (Kelvin)      0.04493     0.00817     0.00692
 Rotational constants (GHZ):           0.93609     0.17016     0.14425
 Zero-point vibrational energy     632315.3 (Joules/Mol)
                                  151.12698 (Kcal/Mol)
 Warning -- explicit consideration of  27 degrees of freedom as
           vibrations may cause significant error
 Vibrational temperatures:     44.10    89.59   102.83   125.02   159.01
          (Kelvin)            179.88   227.21   262.49   279.57   319.18
                              328.23   374.26   416.78   440.90   442.08
                              480.74   492.27   581.52   601.51   658.70
                              673.21   703.10   722.59   759.98   843.72
                              848.99   887.39   941.68   946.13  1021.06
                             1027.06  1032.49  1049.21  1113.31  1121.91
                             1162.87  1185.13  1270.48  1284.85  1294.64
                             1348.80  1397.77  1406.69  1428.47  1499.23
                             1504.70  1598.53  1626.98  1652.53  1676.38
                             1676.62  1700.21  1716.44  1718.19  1732.25
                             1750.13  1783.87  1819.98  1836.55  1913.07
                             1942.73  1959.30  2032.09  2081.46  2100.89
                             2116.71  2123.17  2135.44  2135.69  2144.86
                             2150.67  2155.22  2167.00  2199.02  2239.50
                             2296.18  2327.09  2358.15  4338.53  4338.80
                             4429.28  4429.45  4513.20  4513.99  4580.76
                             4583.59  4596.42  4599.87  4613.52  4614.45

 Zero-point correction=                           0.240836 (Hartree/Particle)
 Thermal correction to Energy=                    0.257601
 Thermal correction to Enthalpy=                  0.258545
 Thermal correction to Gibbs Free Energy=         0.195509
 Sum of electronic and zero-point Energies=           -917.969471
 Sum of electronic and thermal Energies=              -917.952706
 Sum of electronic and thermal Enthalpies=            -917.951762
 Sum of electronic and thermal Free Energies=         -918.014798

                     E (Thermal)             CV                S
                      KCal/Mol        Cal/Mol-Kelvin    Cal/Mol-Kelvin
 Total                  161.647             65.069            132.671
 Electronic               0.000              0.000              1.377
 Translational            0.889              2.981             42.657
 Rotational               0.889              2.981             33.903
 Vibrational            159.869             59.108             54.734
 Vibration     1          0.594              1.984              5.787
 Vibration     2          0.597              1.972              4.384
 Vibration     3          0.598              1.968              4.112
 Vibration     4          0.601              1.958              3.729
 Vibration     5          0.606              1.941              3.260
 Vibration     6          0.610              1.928              3.021
 Vibration     7          0.621              1.894              2.575
 Vibration     8          0.630              1.864              2.303
 Vibration     9          0.635              1.848              2.186
 Vibration    10          0.648              1.808              1.944
 Vibration    11          0.651              1.798              1.894
 Vibration    12          0.668              1.746              1.661
 Vibration    13          0.686              1.693              1.476
 Vibration    14          0.697              1.661              1.381
 Vibration    15          0.697              1.660              1.377
 Vibration    16          0.716              1.607              1.240
 Vibration    17          0.721              1.591              1.202
 Vibration    18          0.769              1.461              0.947
 Vibration    19          0.781              1.431              0.899
 Vibration    20          0.816              1.344              0.772
 Vibration    21          0.825              1.321              0.743
 Vibration    22          0.845              1.275              0.687
 Vibration    23          0.858              1.245              0.653
 Vibration    24          0.883              1.188              0.591
 Vibration    25          0.943              1.061              0.474
 Vibration    26          0.947              1.053              0.467
 Vibration    27          0.976              0.996              0.422

 Optimization completed.
    -- Stationary point found.
 Normal termination of Gaussian 16 at Sat Feb 10 18:19:35 2024.
