 Gaussian 16, Revision A.03,
 Gaussian 16:  ES64L-G16RevA.03 25-Dec-2016

 ----------------------------------------------------------------------
 #P UB3LYP/6-311++G(d,p) nosym opt freq SCRF=(PCM,Solvent=n,n-DiMethylF
 ormamide)
 ----------------------------------------------------------------------

 --------
 Oxidized
 --------
 Symbolic Z-matrix:
 Charge =  0 Multiplicity = 1

 SCF Done:  E(UB3LYP) =  -10675.7173074     A.U. after   13 cycles
 SCF Done:  E(UB3LYP) =  -10675.7173458     A.U. after   10 cycles
 SCF Done:  E(UB3LYP) =  -10675.7173510     A.U. after    9 cycles
 Optimization completed.
    -- Stationary point found.
 Normal termination of Gaussian 16 at Sat Feb 10 10:05:12 2024.

 ----------------------------------------------------------------------
 #P Geom=AllCheck Guess=TCheck SCRF=Check GenChk UB3LYP/6-311++G(d,p) F
 req
 ----------------------------------------------------------------------

 Structure from the checkpoint file:  "030.chk"
 --------
 Oxidized
 --------
 Charge =  0 Multiplicity = 1

                          Input orientation:
 ---------------------------------------------------------------------
 Center     Atomic      Atomic             Coordinates (Angstroms)
 Number     Number       Type             X           Y           Z
 ---------------------------------------------------------------------
      1         35           0       -3.122776   -1.147969    0.016132
      2          6           0       -1.384041   -0.418523    0.007332
      3          6           0       -1.129621    0.902750    0.009144
      4         35           0       -2.472805    2.226194    0.020099
      5          6           0        0.274991    1.428026    0.001773
      6          8           0        0.503951    2.615524    0.004338
      7          6           0        1.384032    0.418519   -0.007508
      8          6           0        1.129624   -0.902748   -0.009322
      9         35           0        2.472819   -2.226187   -0.019624
     10          6           0       -0.274992   -1.428031   -0.002509
     11          8           0       -0.503952   -2.615536   -0.004198
     12         35           0        3.122771    1.147981   -0.015654
 ---------------------------------------------------------------------

 SCF Done:  E(UB3LYP) =  -10675.7173510     A.U. after    1 cycles

 Alpha  occ. eigenvalues -- -482.86366-482.86366-482.86365-482.86365 -62.51626
 Alpha  occ. eigenvalues --  -62.51626 -62.51626 -62.51626 -56.33686 -56.33686
 Alpha  occ. eigenvalues --  -56.33686 -56.33686 -56.33286 -56.33286 -56.33286
 Alpha  occ. eigenvalues --  -56.33286 -56.33232 -56.33231 -56.33231 -56.33231
 Alpha  occ. eigenvalues --  -19.16839 -19.16839 -10.32578 -10.32576 -10.28737
 Alpha  occ. eigenvalues --  -10.28735 -10.28660 -10.28660  -8.72595  -8.72595
 Alpha  occ. eigenvalues --   -8.72594  -8.72593  -6.55806  -6.55806  -6.55806
 Alpha  occ. eigenvalues --   -6.55806  -6.54468  -6.54468  -6.54468  -6.54467
 Alpha  occ. eigenvalues --   -6.54310  -6.54310  -6.54309  -6.54309  -2.66891
 Alpha  occ. eigenvalues --   -2.66891  -2.66890  -2.66890  -2.66534  -2.66534
 Alpha  occ. eigenvalues --   -2.66533  -2.66533  -2.66414  -2.66413  -2.66413
 Alpha  occ. eigenvalues --   -2.66413  -2.65348  -2.65348  -2.65347  -2.65347
 Alpha  occ. eigenvalues --   -2.65346  -2.65345  -2.65345  -2.65345  -1.10726
 Alpha  occ. eigenvalues --   -1.10525  -0.92271  -0.89272  -0.83358  -0.83331
 Alpha  occ. eigenvalues --   -0.80675  -0.75097  -0.71965  -0.63109  -0.63034
 Alpha  occ. eigenvalues --   -0.57569  -0.51667  -0.49814  -0.49055  -0.46228
 Alpha  occ. eigenvalues --   -0.45897  -0.45683  -0.45344  -0.42812  -0.40087
 Alpha  occ. eigenvalues --   -0.37614  -0.33930  -0.33702  -0.33220  -0.33102
 Alpha  occ. eigenvalues --   -0.32413  -0.32254  -0.30898  -0.29826  -0.29343
 Alpha  occ. eigenvalues --   -0.27750
 Alpha virt. eigenvalues --   -0.16039  -0.06905  -0.06122  -0.04681  -0.02867
 Alpha virt. eigenvalues --   -0.02292  -0.00498   0.00625   0.01462   0.02041
 Alpha virt. eigenvalues --    0.03319   0.03676   0.04344   0.04867   0.05167

  Beta  occ. eigenvalues -- -482.86366-482.86366-482.86365-482.86365 -62.51626
  Beta  occ. eigenvalues --  -62.51626 -62.51626 -62.51626 -56.33686 -56.33686
  Beta  occ. eigenvalues --  -56.33686 -56.33686 -56.33286 -56.33286 -56.33286
  Beta  occ. eigenvalues --  -56.33286 -56.33232 -56.33231 -56.33231 -56.33231
  Beta  occ. eigenvalues --  -19.16839 -19.16839 -10.32578 -10.32576 -10.28737
  Beta  occ. eigenvalues --  -10.28735 -10.28660 -10.28660  -8.72595  -8.72595
  Beta  occ. eigenvalues --   -8.72594  -8.72593  -6.55806  -6.55806  -6.55806
  Beta  occ. eigenvalues --   -6.55806  -6.54468  -6.54468  -6.54468  -6.54467
  Beta  occ. eigenvalues --   -6.54310  -6.54310  -6.54309  -6.54309  -2.66891
  Beta  occ. eigenvalues --   -2.66891  -2.66890  -2.66890  -2.66534  -2.66534
  Beta  occ. eigenvalues --   -2.66533  -2.66533  -2.66414  -2.66413  -2.66413
  Beta  occ. eigenvalues --   -2.66413  -2.65348  -2.65348  -2.65347  -2.65347
  Beta  occ. eigenvalues --   -2.65346  -2.65345  -2.65345  -2.65345  -1.10726
  Beta  occ. eigenvalues --   -1.10525  -0.92271  -0.89272  -0.83358  -0.83331
  Beta  occ. eigenvalues --   -0.80675  -0.75097  -0.71965  -0.63109  -0.63034
  Beta  occ. eigenvalues --   -0.57569  -0.51667  -0.49814  -0.49055  -0.46228
  Beta  occ. eigenvalues --   -0.45897  -0.45683  -0.45344  -0.42812  -0.40087
  Beta  occ. eigenvalues --   -0.37614  -0.33930  -0.33702  -0.33220  -0.33102
  Beta  occ. eigenvalues --   -0.32413  -0.32254  -0.30898  -0.29826  -0.29343
  Beta  occ. eigenvalues --   -0.27750
  Beta virt. eigenvalues --   -0.16039  -0.06905  -0.06122  -0.04681  -0.02867
  Beta virt. eigenvalues --   -0.02292  -0.00498   0.00625   0.01462   0.02041
  Beta virt. eigenvalues --    0.03319   0.03676   0.04344   0.04867   0.05167

 Mulliken charges and spin densities:
               1          2
     1  Br   0.004034  -0.000000
     2  C    0.316028   0.000000
     3  C    0.315937   0.000000
     4  Br   0.003936  -0.000000
     5  C   -0.471099  -0.000000
     6  O   -0.168839   0.000000
     7  C    0.316013   0.000000
     8  C    0.315976  -0.000000
     9  Br   0.003936  -0.000000
    10  C   -0.471111  -0.000000
    11  O   -0.168842  -0.000000
    12  Br   0.004031  -0.000000
 Sum of Mulliken charges =  -0.00000  -0.00000

 Dipole moment (field-independent basis, Debye):
    X=             -0.0000    Y=             -0.0000    Z=             -0.0013  Tot=              0.0013
 Quadrupole moment (field-independent basis, Debye-Ang):
   XX=           -108.5939   YY=           -131.3786   ZZ=           -115.6405
   XY=             -4.5594   XZ=             -0.0530   YZ=             -0.0207

  Exact polarizability: 253.037  10.825 307.219  -0.809   0.422 110.920
 Approx polarizability: 273.493  27.202 409.436  -0.755   0.546 131.780

                      1                      2                      3
                      A                      A                      A
 Frequencies --     31.6206                36.8696                63.1366
 Red. masses --     18.4153                63.2449                19.0169
 Frc consts  --      0.0108                 0.0507                 0.0447
 IR Inten    --      3.3642                 0.2046                 0.0000

                      4                      5                      6
                      A                      A                      A
 Frequencies --    126.4283               136.4428               137.7876
 Red. masses --     77.9941                43.0815                60.9411
 Frc consts  --      0.7345                 0.4725                 0.6817
 IR Inten    --      0.0000                 0.3437                 0.7119

                      7                      8                      9
                      A                      A                      A
 Frequencies --    163.6581               184.4874               210.7033
 Red. masses --     13.4128                56.3809                64.4686
 Frc consts  --      0.2117                 1.1306                 1.6863
 IR Inten    --      6.1294                 0.0000                 0.0000

                     10                     11                     12
                      A                      A                      A
 Frequencies --    274.2748               302.0860               346.8179
 Red. masses --     12.3110                16.4962                20.6380
 Frc consts  --      0.5457                 0.8869                 1.4626
 IR Inten    --      0.0000                 0.0000                 6.8789

                     13                     14                     15
                      A                      A                      A
 Frequencies --    351.0960               394.2531               475.3685
 Red. masses --     18.0636                12.3436                14.1388
 Frc consts  --      1.3119                 1.1304                 1.8825
 IR Inten    --      4.4327                 0.0001                 0.0000

                     16                     17                     18
                      A                      A                      A
 Frequencies --    516.9569               619.0984               700.5795
 Red. masses --     12.0865                13.7602                12.6848
 Frc consts  --      1.9031                 3.1074                 3.6681
 IR Inten    --      0.0001               273.0540                 0.0000

                     19                     20                     21
                      A                      A                      A
 Frequencies --    722.4361               754.6816               758.1925
 Red. masses --     12.2159                12.6361                12.1596
 Frc consts  --      3.7564                 4.2402                 4.1184
 IR Inten    --     29.1182                 0.0000                 0.0000

                     22                     23                     24
                      A                      A                      A
 Frequencies --    866.9620               914.6919              1038.4967
 Red. masses --     12.8243                12.4493                12.0548
 Frc consts  --      5.6791                 6.1368                 7.6598
 IR Inten    --     62.2265                 0.0000               932.5529

                     25                     26                     27
                      A                      A                      A
 Frequencies --   1187.9818              1192.6981              1576.5486
 Red. masses --     12.0672                12.0217                12.0109
 Frc consts  --     10.0340                10.0757                17.5889
 IR Inten    --    338.5957                 0.0008               476.4962

                     28                     29                     30
                      A                      A                      A
 Frequencies --   1613.4837              1724.1167              1732.5822
 Red. masses --     12.0020                13.2681                13.3054
 Frc consts  --     18.4090                23.2377                23.5323
 IR Inten    --      0.0001              1080.1252                 0.0039

 - Thermochemistry -
 -------------------
 Temperature   298.150 Kelvin.  Pressure   1.00000 Atm.
 Atom     1 has atomic number 35 and mass  78.91834

 Molecular mass:   419.66317 amu.
 Principal axes and moments of inertia in atomic units:
                           1         2         3
     Eigenvalues --  4396.964099432.84287**********
           X            0.98191   0.18927   0.00593
           Y           -0.18926   0.98192  -0.00242
           Z           -0.00628   0.00125   0.99998
 This molecule is an asymmetric top.
 Rotational symmetry number  1.
 Warning -- assumption of classical behavior for rotation
           may cause significant error
 Rotational temperatures (Kelvin)      0.01970     0.00918     0.00626
 Rotational constants (GHZ):           0.41045     0.19133     0.13050
 Zero-point vibrational energy     114569.6 (Joules/Mol)
                                   27.38279 (Kcal/Mol)
 Warning -- explicit consideration of  17 degrees of freedom as
           vibrations may cause significant error
 Vibrational temperatures:     45.49    53.05    90.84   181.90   196.31
          (Kelvin)            198.25   235.47   265.44   303.15   394.62
                              434.63   498.99   505.15   567.24   683.95
                              743.79   890.74  1007.98  1039.42  1085.82
                             1090.87  1247.36  1316.04  1494.17  1709.24
                             1716.03  2268.30  2321.44  2480.62  2492.80

 Zero-point correction=                           0.043637 (Hartree/Particle)
 Thermal correction to Energy=                    0.055886
 Thermal correction to Enthalpy=                  0.056830
 Thermal correction to Gibbs Free Energy=         0.000131
 Sum of electronic and zero-point Energies=         -10675.673714
 Sum of electronic and thermal Energies=            -10675.661465
 Sum of electronic and thermal Enthalpies=          -10675.660521
 Sum of electronic and thermal Free Energies=       -10675.717220

                     E (Thermal)             CV                S
                      KCal/Mol        Cal/Mol-Kelvin    Cal/Mol-Kelvin
 Total                   35.069             39.792            119.332
 Electronic               0.000              0.000              0.000
 Translational            0.889              2.981             43.993
 Rotational               0.889              2.981             34.705
 Vibrational             33.291             33.831             40.634
 Vibration     1          0.594              1.983              5.725
 Vibration     2          0.594              1.982              5.421
 Vibration     3          0.597              1.972              4.357
 Vibration     4          0.611              1.927              3.000
 Vibration     5          0.614              1.917              2.853
 Vibration     6          0.614              1.916              2.834
 Vibration     7          0.623              1.887              2.507
 Vibration     8          0.631              1.861              2.283
 Vibration     9          0.643              1.824              2.038
 Vibration    10          0.677              1.721              1.569
 Vibration    11          0.694              1.670              1.405
 Vibration    12          0.725              1.582              1.181
 Vibration    13          0.728              1.573              1.161
 Vibration    14          0.761              1.482              0.984
 Vibration    15          0.832              1.305              0.723
 Vibration    16          0.872              1.212              0.617
 Vibration    17          0.979              0.992              0.418

 Optimization completed.
    -- Stationary point found.
 Normal termination of Gaussian 16 at Sat Feb 10 10:15:11 2024.
