 Gaussian 16, Revision A.03,
 Gaussian 16:  ES64L-G16RevA.03 25-Dec-2016

 ----------------------------------------------------------------
 #P UB3LYP/6-311++G(d,p) SCRF=(PCM,Solvent=n,n-DiMethylFormamide)
 ----------------------------------------------------------------

 -------
 Reduced
 -------
 Symbolic Z-matrix:
 Charge = -2 Multiplicity = 1

                         Standard orientation:
 ---------------------------------------------------------------------
 Center     Atomic      Atomic             Coordinates (Angstroms)
 Number     Number       Type             X           Y           Z
 ---------------------------------------------------------------------
      1          6           0       -2.333905    0.106861    1.262139
      2          6           0       -1.638149   -0.469523    0.004771
      3          6           0       -1.835302   -1.998218    0.013111
      4          6           0       -2.342506    0.083546   -1.261057
      5          6           0       -0.153581   -0.042486   -0.006789
      6          6           0        0.875202   -0.992917   -0.004397
      7          6           0        2.281386   -0.696983   -0.004396
      8          8           0        3.196841   -1.614837   -0.002565
      9          6           0        2.567517    0.706190    0.005148
     10          6           0        1.564305    1.669632    0.009799
     11          6           0        0.163281    1.375873   -0.006276
     12          8           0       -0.730719    2.321990   -0.013652
     13          1           0       -3.407781   -0.126253    1.261886
     14          1           0       -1.890919   -0.326210    2.167616
     15          1           0       -2.193126    1.190267    1.281771
     16          1           0       -2.906147   -2.238725    0.017143
     17          1           0       -1.383967   -2.460313    0.896882
     18          1           0       -1.390304   -2.467218   -0.871191
     19          1           0       -1.889730   -0.350561   -2.159939
     20          1           0       -3.413151   -0.177205   -1.261561
     21          1           0       -2.223848    1.167955   -1.294075
     22          1           0        0.639306   -2.053186   -0.007259
     23          1           0        3.617250    1.003347    0.011430
     24          1           0        1.823952    2.729032    0.014713
 ---------------------------------------------------------------------

 SCF Done:  E(UB3LYP) =  -539.114008409     A.U. after   17 cycles

 The electronic state is 1-A.
 Alpha  occ. eigenvalues --  -19.00606 -19.00024 -10.15911 -10.15737 -10.15622
 Alpha  occ. eigenvalues --  -10.13810 -10.13002 -10.12957 -10.12263 -10.11198
 Alpha  occ. eigenvalues --  -10.11135 -10.10973  -0.91804  -0.91311  -0.79584
 Alpha  occ. eigenvalues --   -0.75611  -0.68343  -0.66340  -0.65825  -0.62991
 Alpha  occ. eigenvalues --   -0.56435  -0.52681  -0.49116  -0.43514  -0.42610
 Alpha  occ. eigenvalues --   -0.41398  -0.41203  -0.39468  -0.38533  -0.37454
 Alpha  occ. eigenvalues --   -0.35654  -0.34513  -0.34301  -0.33488  -0.33113
 Alpha  occ. eigenvalues --   -0.31096  -0.30711  -0.29794  -0.29360  -0.29103
 Alpha  occ. eigenvalues --   -0.21360  -0.20297  -0.18585  -0.17815  -0.10643
 Alpha virt. eigenvalues --    0.00087   0.01316   0.01811   0.02363   0.02908
 Alpha virt. eigenvalues --    0.03195   0.03437   0.04492   0.04794   0.05686
 Alpha virt. eigenvalues --    0.05783   0.06340   0.07261   0.07437   0.08560

  Beta  occ. eigenvalues --  -19.00606 -19.00024 -10.15911 -10.15737 -10.15622
  Beta  occ. eigenvalues --  -10.13810 -10.13002 -10.12957 -10.12263 -10.11198
  Beta  occ. eigenvalues --  -10.11135 -10.10973  -0.91804  -0.91311  -0.79584
  Beta  occ. eigenvalues --   -0.75611  -0.68343  -0.66340  -0.65825  -0.62991
  Beta  occ. eigenvalues --   -0.56435  -0.52681  -0.49116  -0.43514  -0.42610
  Beta  occ. eigenvalues --   -0.41398  -0.41203  -0.39468  -0.38533  -0.37454
  Beta  occ. eigenvalues --   -0.35654  -0.34513  -0.34301  -0.33488  -0.33113
  Beta  occ. eigenvalues --   -0.31096  -0.30711  -0.29794  -0.29360  -0.29103
  Beta  occ. eigenvalues --   -0.21360  -0.20297  -0.18585  -0.17815  -0.10643
  Beta virt. eigenvalues --    0.00087   0.01316   0.01811   0.02363   0.02908
  Beta virt. eigenvalues --    0.03195   0.03437   0.04492   0.04794   0.05686
  Beta virt. eigenvalues --    0.05783   0.06340   0.07261   0.07437   0.08560

 Mulliken charges and spin densities:
               1          2
     1  C   -0.679839  -0.000000
     2  C    0.657832   0.000000
     3  C   -0.509068   0.000000
     4  C   -0.679887  -0.000000
     5  C    1.024191   0.000000
     6  C   -0.479502  -0.000000
     7  C   -0.624027   0.000000
     8  O   -0.749451  -0.000000
     9  C    0.060209   0.000000
    10  C   -0.129740  -0.000000
    11  C   -0.826842   0.000000
    12  O   -0.679764  -0.000000
    13  H    0.125522   0.000000
    14  H    0.115028  -0.000000
    15  H    0.179286  -0.000000
    16  H    0.155301  -0.000000
    17  H    0.123172   0.000000
    18  H    0.121879   0.000000
    19  H    0.116535  -0.000000
    20  H    0.126464   0.000000
    21  H    0.179079  -0.000000
    22  H    0.137094  -0.000000
    23  H    0.117785   0.000000
    24  H    0.118744   0.000000
 Sum of Mulliken charges =  -2.00000   0.00000

 Dipole moment (field-independent basis, Debye):
    X=            -11.7692    Y=             -2.7219    Z=              0.0512  Tot=             12.0800
 Quadrupole moment (field-independent basis, Debye-Ang):
   XX=           -133.6012   YY=           -117.2507   ZZ=            -85.3711
   XY=             25.9197   XZ=             -0.0116   YZ=              0.1030

 Normal termination of Gaussian 16 at Sun Jan 21 07:38:35 2024.
