 Gaussian 16, Revision A.03,
 Gaussian 16:  ES64L-G16RevA.03 25-Dec-2016

 --------------------------------------
 #P UB3LYP/6-311++G(d,p) nosym opt freq
 --------------------------------------

 -------
 Reduced
 -------
 Symbolic Z-matrix:
 Charge = -2 Multiplicity = 1

 SCF Done:  E(UB3LYP) =  -610.367274522     A.U. after   65 cycles
 SCF Done:  E(UB3LYP) =  -610.395371912     A.U. after   37 cycles
 SCF Done:  E(UB3LYP) =  -610.408906739     A.U. after   31 cycles
 SCF Done:  E(UB3LYP) =  -610.411564422     A.U. after   30 cycles
 SCF Done:  E(UB3LYP) =  -610.412504315     A.U. after   28 cycles
 SCF Done:  E(UB3LYP) =  -610.412861820     A.U. after   28 cycles
 SCF Done:  E(UB3LYP) =  -610.412896405     A.U. after   26 cycles
 SCF Done:  E(UB3LYP) =  -610.412901805     A.U. after   24 cycles
 SCF Done:  E(UB3LYP) =  -610.412903757     A.U. after   24 cycles
 Optimization completed.
    -- Stationary point found.
 Normal termination of Gaussian 16 at Thu Dec 28 20:33:25 2023.

 ----------------------------------------------------------------------
 #P Geom=AllCheck Guess=TCheck SCRF=Check GenChk UB3LYP/6-311++G(d,p) F
 req
 ----------------------------------------------------------------------

 Structure from the checkpoint file:  "316-an.chk"
 -------
 Reduced
 -------
 Charge = -2 Multiplicity = 1

                          Input orientation:
 ---------------------------------------------------------------------
 Center     Atomic      Atomic             Coordinates (Angstroms)
 Number     Number       Type             X           Y           Z
 ---------------------------------------------------------------------
      1          8           0       -1.331007   -2.616942    0.844089
      2          6           0       -1.153377   -1.417240    0.430617
      3          6           0       -2.370643   -0.620492    0.083523
      4          8           0       -2.527177   -0.135550   -1.281031
      5          6           0       -2.274487    0.836506   -0.223256
      6          6           0       -0.957503    1.543175   -0.197005
      7          8           0       -0.965091    2.816922   -0.338171
      8          6           0        0.178995    0.715027    0.002319
      9          6           0        1.485924    1.285841   -0.076151
     10          6           0        2.630381    0.568827    0.172388
     11          6           0        2.534085   -0.818833    0.535979
     12          6           0        1.300508   -1.419102    0.602156
     13          6           0        0.083524   -0.727930    0.320012
     14          1           0       -3.297784   -1.027741    0.493059
     15          1           0       -3.132580    1.487546   -0.042609
     16          1           0        1.539678    2.338570   -0.339670
     17          1           0        3.608335    1.043778    0.106775
     18          1           0        3.439125   -1.385742    0.747807
     19          1           0        1.209096   -2.466620    0.875159
 ---------------------------------------------------------------------

 SCF Done:  E(UB3LYP) =  -610.412903757     A.U. after    2 cycles

 Alpha  occ. eigenvalues --  -18.88417 -18.79735 -18.79687  -9.96841  -9.96808
 Alpha  occ. eigenvalues --   -9.94546  -9.94509  -9.90914  -9.90904  -9.90833
 Alpha  occ. eigenvalues --   -9.90798  -9.89237  -9.89207  -0.81242  -0.70793
 Alpha  occ. eigenvalues --   -0.70737  -0.57886  -0.50111  -0.48392  -0.43553
 Alpha  occ. eigenvalues --   -0.42300  -0.36171  -0.35025  -0.29135  -0.25749
 Alpha  occ. eigenvalues --   -0.25025  -0.24260  -0.18862  -0.17304  -0.16290
 Alpha  occ. eigenvalues --   -0.16045  -0.14734  -0.13403  -0.12687  -0.12356
 Alpha  occ. eigenvalues --   -0.09212  -0.08122  -0.06971  -0.06863  -0.04407
 Alpha  occ. eigenvalues --   -0.03129   0.01060   0.02329   0.03447   0.03622
 Alpha  occ. eigenvalues --    0.14582
 Alpha virt. eigenvalues --    0.16427   0.18138   0.18294   0.20382   0.20954
 Alpha virt. eigenvalues --    0.21505   0.22304   0.25136   0.26185   0.27198
 Alpha virt. eigenvalues --    0.27564   0.28493   0.28687   0.29000   0.29397

  Beta  occ. eigenvalues --  -18.88417 -18.79735 -18.79687  -9.96841  -9.96808
  Beta  occ. eigenvalues --   -9.94546  -9.94509  -9.90914  -9.90904  -9.90833
  Beta  occ. eigenvalues --   -9.90798  -9.89237  -9.89207  -0.81242  -0.70793
  Beta  occ. eigenvalues --   -0.70737  -0.57886  -0.50111  -0.48392  -0.43553
  Beta  occ. eigenvalues --   -0.42300  -0.36171  -0.35025  -0.29135  -0.25749
  Beta  occ. eigenvalues --   -0.25025  -0.24260  -0.18862  -0.17304  -0.16290
  Beta  occ. eigenvalues --   -0.16045  -0.14734  -0.13403  -0.12687  -0.12356
  Beta  occ. eigenvalues --   -0.09212  -0.08122  -0.06971  -0.06863  -0.04407
  Beta  occ. eigenvalues --   -0.03129   0.01060   0.02329   0.03447   0.03622
  Beta  occ. eigenvalues --    0.14582
  Beta virt. eigenvalues --    0.16427   0.18138   0.18294   0.20382   0.20954
  Beta virt. eigenvalues --    0.21505   0.22304   0.25136   0.26185   0.27198
  Beta virt. eigenvalues --    0.27564   0.28493   0.28687   0.29000   0.29397

 Mulliken charges and spin densities:
               1          2
     1  O   -0.489278  -0.000000
     2  C   -0.276685  -0.000000
     3  C   -0.082824   0.000000
     4  O   -0.187624  -0.000000
     5  C   -0.039986  -0.000000
     6  C   -0.406367  -0.000000
     7  O   -0.489860  -0.000000
     8  C    0.217642   0.000000
     9  C   -0.201179  -0.000000
    10  C    0.924478   0.000000
    11  C    1.023999  -0.000000
    12  C   -0.357873  -0.000000
    13  C   -0.202846   0.000000
    14  H    0.080027   0.000000
    15  H    0.101373  -0.000000
    16  H    0.175984  -0.000000
    17  H   -1.016862   0.000000
    18  H   -0.970411   0.000000
    19  H    0.198291  -0.000000
 Sum of Mulliken charges =  -2.00000   0.00000

 Dipole moment (field-independent basis, Debye):
    X=             -3.9135    Y=              0.2877    Z=             -0.7956  Tot=              4.0039
 Quadrupole moment (field-independent basis, Debye-Ang):
   XX=           -153.5999   YY=           -135.4362   ZZ=            -99.3454
   XY=             -1.6111   XZ=             -8.7256   YZ=             11.5565

  Exact polarizability:1336.501  13.2791071.232  44.753-374.896 284.957
 Approx polarizability:3920.209-121.015 746.920 231.833-202.826 268.138

                      1                      2                      3
                      A                      A                      A
 Frequencies --     88.6706               123.2298               172.5253
 Red. masses --      8.7857                 3.9874                 7.1382
 Frc consts  --      0.0407                 0.0357                 0.1252
 IR Inten    --      8.5030                 0.1188                21.4894

                      4                      5                      6
                      A                      A                      A
 Frequencies --    232.3794               261.4331               307.8843
 Red. masses --      7.1699                 6.5099                 8.5698
 Frc consts  --      0.2281                 0.2621                 0.4786
 IR Inten    --      0.7715                 3.8627                 7.0454

                      7                      8                      9
                      A                      A                      A
 Frequencies --    348.3676               414.8578               442.4932
 Red. masses --     11.0919                 5.7257                 4.0012
 Frc consts  --      0.7931                 0.5806                 0.4616
 IR Inten    --      4.8188                15.8029               188.6763

                     10                     11                     12
                      A                      A                      A
 Frequencies --    446.3276               471.3456               507.3966
 Red. masses --      6.5343                 7.2942                 5.8077
 Frc consts  --      0.7669                 0.9548                 0.8809
 IR Inten    --     38.4859               638.9786                 1.7378

                     13                     14                     15
                      A                      A                      A
 Frequencies --    549.9448               629.9786               666.2348
 Red. masses --      5.5041                 4.6936                 5.7088
 Frc consts  --      0.9808                 1.0975                 1.4930
 IR Inten    --     95.8603                 8.5712                71.6315

                     16                     17                     18
                      A                      A                      A
 Frequencies --    682.0970               701.8746               743.1364
 Red. masses --      6.3916                 5.2277                 4.6766
 Frc consts  --      1.7521                 1.5173                 1.5216
 IR Inten    --     10.6830               151.8667                 1.6138

                     19                     20                     21
                      A                      A                      A
 Frequencies --    786.7276               801.1328               811.4936
 Red. masses --      5.7845                 1.4793                 1.7662
 Frc consts  --      2.1094                 0.5594                 0.6853
 IR Inten    --     93.2991                72.0081               103.1033

                     22                     23                     24
                      A                      A                      A
 Frequencies --    829.2016               840.0154               963.5048
 Red. masses --      5.9294                 3.0426                 1.2569
 Frc consts  --      2.4021                 1.2649                 0.6875
 IR Inten    --     43.2753                61.4023                18.3495

                     25                     26                     27
                      A                      A                      A
 Frequencies --    969.0653               989.2174               997.7787
 Red. masses --      2.5184                 1.8618                 1.3750
 Frc consts  --      1.3934                 1.0734                 0.8065
 IR Inten    --      6.8750               550.9003               412.8517

                     28                     29                     30
                      A                      A                      A
 Frequencies --   1050.6549              1079.4171              1102.7173
 Red. masses --      3.1342                 2.2799                 2.0419
 Frc consts  --      2.0384                 1.5651                 1.4629
 IR Inten    --     56.1534               613.7753                 5.8464

                     31                     32                     33
                      A                      A                      A
 Frequencies --   1143.2076              1144.1043              1189.9333
 Red. masses --      1.1925                 1.5173                 1.6950
 Frc consts  --      0.9183                 1.1702                 1.4140
 IR Inten    --    233.9402                58.3237               422.3858

                     34                     35                     36
                      A                      A                      A
 Frequencies --   1242.1280              1276.3300              1297.3981
 Red. masses --      1.4976                 4.9663                 1.4614
 Frc consts  --      1.3613                 4.7666                 1.4494
 IR Inten    --     80.6172               276.9054                 5.7537

                     37                     38                     39
                      A                      A                      A
 Frequencies --   1324.1758              1341.0449              1345.2553
 Red. masses --      5.5889                 3.0012                 1.7876
 Frc consts  --      5.7738                 3.1800                 1.9060
 IR Inten    --    605.8068               339.2451                52.5012

                     40                     41                     42
                      A                      A                      A
 Frequencies --   1451.5245              1468.5360              1470.6584
 Red. masses --      6.8088                 2.5189                 3.8199
 Frc consts  --      8.4522                 3.2006                 4.8677
 IR Inten    --    475.1730              1898.0985               393.6891

                     43                     44                     45
                      A                      A                      A
 Frequencies --   1486.7865              1511.9267              1585.3941
 Red. masses --      6.5099                 6.3435                 5.0853
 Frc consts  --      8.4786                 8.5436                 7.5308
 IR Inten    --   6145.3070               548.9536                91.5802

                     46                     47                     48
                      A                      A                      A
 Frequencies --   3038.8137              3058.4135              3095.1505
 Red. masses --      1.0861                 1.0899                 1.0838
 Frc consts  --      5.9094                 6.0065                 6.1176
 IR Inten    --    132.6568              1108.3193               597.8268

                     49                     50                     51
                      A                      A                      A
 Frequencies --   3116.3347              3145.6073              3148.7964
 Red. masses --      1.0893                 1.0909                 1.0917
 Frc consts  --      6.2330                 6.3596                 6.3772
 IR Inten    --     57.9655                22.6256                34.2797

 - Thermochemistry -
 -------------------
 Temperature   298.150 Kelvin.  Pressure   1.00000 Atm.
 Atom     1 has atomic number  8 and mass  15.99491

 Molecular mass:   174.03169 amu.
 Principal axes and moments of inertia in atomic units:
                           1         2         3
     Eigenvalues --  1539.699432053.004553429.05938
           X            0.98771   0.06670  -0.14133
           Y           -0.03352   0.97371   0.22529
           Z            0.15264  -0.21779   0.96399
 This molecule is an asymmetric top.
 Rotational symmetry number  1.
 Warning -- assumption of classical behavior for rotation
           may cause significant error
 Rotational temperatures (Kelvin)      0.05625     0.04219     0.02526
 Rotational constants (GHZ):           1.17214     0.87907     0.52631
 Zero-point vibrational energy     346274.8 (Joules/Mol)
                                   82.76166 (Kcal/Mol)
 Warning -- explicit consideration of  13 degrees of freedom as
           vibrations may cause significant error
 Vibrational temperatures:    127.58   177.30   248.23   334.34   376.14
          (Kelvin)            442.98   501.22   596.89   636.65   642.17
                              678.16   730.03   791.25   906.40   958.56
                              981.39  1009.84  1069.21  1131.93  1152.65
                             1167.56  1193.04  1208.59  1386.27  1394.27
                             1423.26  1435.58  1511.66  1553.04  1586.56
                             1644.82  1646.11  1712.05  1787.15  1836.35
                             1866.67  1905.19  1929.46  1935.52  2088.42
                             2112.90  2115.95  2139.15  2175.33  2281.03
                             4372.18  4400.37  4453.23  4483.71  4525.83
                             4530.42

 Zero-point correction=                           0.131889 (Hartree/Particle)
 Thermal correction to Energy=                    0.141388
 Thermal correction to Enthalpy=                  0.142333
 Thermal correction to Gibbs Free Energy=         0.097000
 Sum of electronic and zero-point Energies=           -610.281015
 Sum of electronic and thermal Energies=              -610.271515
 Sum of electronic and thermal Enthalpies=            -610.270571
 Sum of electronic and thermal Free Energies=         -610.315904

                     E (Thermal)             CV                S
                      KCal/Mol        Cal/Mol-Kelvin    Cal/Mol-Kelvin
 Total                   88.723             38.360             95.411
 Electronic               0.000              0.000              0.000
 Translational            0.889              2.981             41.370
 Rotational               0.889              2.981             30.762
 Vibrational             86.945             32.399             23.280
 Vibration     1          0.601              1.957              3.689
 Vibration     2          0.610              1.930              3.049
 Vibration     3          0.626              1.876              2.408
 Vibration     4          0.653              1.791              1.860
 Vibration     5          0.669              1.743              1.652
 Vibration     6          0.698              1.659              1.374
 Vibration     7          0.726              1.579              1.174
 Vibration     8          0.778              1.438              0.910
 Vibration     9          0.802              1.377              0.819
 Vibration    10          0.806              1.369              0.807
 Vibration    11          0.828              1.314              0.734
 Vibration    12          0.863              1.234              0.640
 Vibration    13          0.905              1.140              0.544

 Optimization completed.
    -- Stationary point found.
 Normal termination of Gaussian 16 at Thu Dec 28 20:56:28 2023.
