 Q-Chem 5.4, Q-Chem, Inc., Pleasanton, CA (2021)
 Q-Chem 5.4.0 for Intel X86 EM64T Linux

User input:
--------------------------------------------------------------
$molecule
-1 2
C                 -3.9106470000     -4.0097940000     -1.3046340000
C                 -2.6600900000     -4.7190590000     -1.2824500000
C                 -1.4780750000     -4.0464000000     -1.5458070000
C                 -1.4624600000     -2.6181240000     -1.8616070000
C                 -2.7270730000     -1.9005260000     -1.8840640000
C                 -3.8767880000     -2.5887270000     -1.6148700000
O                 -5.0576340000     -4.5275880000     -1.0737420000
O                 -0.3753380000     -2.0189880000     -2.1096650000
C                 -0.1368200000     -4.7410770000     -1.5445270000
C                  0.3297230000     -5.1718210000     -2.9493080000
C                  1.7146100000     -5.8283630000     -2.9524080000
C                  2.1939250000     -6.2507190000     -4.3460790000
C                  3.5834450000     -6.8987140000     -4.3544650000
C                  4.0612770000     -7.3195940000     -5.7490560000
C                  5.4520470000     -7.9644630000     -5.7582750000
C                  5.9286760000     -8.3843720000     -7.1535280000
C                  7.3195120000     -9.0284740000     -7.1633990000
C                  7.7964450000     -9.4480850000     -8.5585620000
C                 -2.7161490000     -0.4310750000     -2.2040750000
C                 -2.7139180000     -6.1943100000     -0.9563080000
O                 -5.1134990000     -2.0045040000     -1.6132160000
H                 -0.1599340000     -5.6192040000     -0.8894690000
H                  0.6071690000     -4.0452980000     -1.1437050000
H                  0.3429630000     -4.2834280000     -3.5885840000
H                 -0.4044620000     -5.8636120000     -3.3820030000
H                  1.7049450000     -6.7077130000     -2.2928930000
H                  2.4415050000     -5.1296720000     -2.5176170000
H                  2.2009980000     -5.3720640000     -5.0039500000
H                  1.4673700000     -6.9493580000     -4.7821990000
H                  3.5773050000     -7.7768800000     -3.6948430000
H                  4.3098290000     -6.1992350000     -3.9199780000
H                  4.0658950000     -6.4418660000     -6.4085500000
H                  3.3356030000     -8.0199210000     -6.1833910000
H                  5.4478540000     -8.8423640000     -5.0987150000
H                  6.1776900000     -7.2639010000     -5.3244900000
H                  5.9325890000     -7.5065480000     -7.8129200000
H                  5.2031610000     -9.0850520000     -7.5873530000
H                  7.3166590000     -9.9070050000     -6.5045530000
H                  8.0459600000     -8.3282470000     -6.7300980000
C                  9.1870720000    -10.0903030000     -8.5579880000
H                  7.8002190000     -8.5706790000     -9.2169330000
H                 -2.1061850000      0.1219570000     -1.4809340000
H                 -3.7284170000     -0.0233310000     -2.1997160000
H                 -2.2612190000     -0.2491120000     -3.1840170000
H                 -3.7566030000     -6.5066210000     -0.8829550000
H                 -2.2255130000     -6.4195460000      0.0004750000
H                 -2.2192240000     -6.8048460000     -1.7199580000
H                  7.0715520000    -10.1483390000     -8.9916390000
H                  9.9403520000     -9.4011640000     -8.1625660000
H                  9.4973110000    -10.3777830000     -9.5669970000
H                  9.2062060000    -10.9907140000     -7.9353710000
H                 -5.6906990000     -2.7681340000     -1.3885990000
$end
$rem
MAX_SCF_CYCLES=200
BASIS  =  6-311++G(d,p)
GUI  =  2
JOB_TYPE  =  SP
THRESH = 14
SCF_CONVERGENCE = 8
METHOD  =  B3LYP
SOLVENT_METHOD = COSMO
$end
$solvent
dielectric 37.219
opticaldielectric 1.43
$end

--------------------------------------------------------------

             Standard Nuclear Orientation (Angstroms)
    I     Atom           X                Y                Z
 ----------------------------------------------------------------
    1      C      -5.4037897865     1.0907183969     0.4515415906
    2      C      -4.1219630528     1.2953223298    -0.1669236352
    3      C      -3.3847042160     0.2084930839    -0.6076481499
    4      C      -3.8710388459    -1.1622754535    -0.4513854068
    5      C      -5.1674237173    -1.3695079483     0.1740250220
    6      C      -5.8751261047    -0.2783486688     0.5940956886
    7      O      -6.1685679747     2.0178508495     0.8903361421
    8      O      -3.1816915675    -2.1461307945    -0.8503339732
    9      C      -2.0294814361     0.3625281262    -1.2566374953
   10      C      -0.8564859582     0.1783115094    -0.2733988320
   11      C       0.5176693452     0.2819054197    -0.9441704134
   12      C       1.6920017379     0.0889833457     0.0223547134
   13      C       3.0682782470     0.1818148831    -0.6469575840
   14      C       4.2411998389    -0.0121746561     0.3210147554
   15      C       5.6174222753     0.0771933240    -0.3484681642
   16      C       6.7892633808    -0.1174358773     0.6206229583
   17      C       8.1654814678    -0.0289635739    -0.0483957488
   18      C       9.3373871373    -0.2239381667     0.9204387491
   19      C      -5.6739366832    -2.7765921530     0.3333086419
   20      C      -3.6490102064     2.7242590331    -0.3086525104
   21      O      -7.1008396579    -0.3693324389     1.1941970018
   22      H      -1.9434554574     1.3433133108    -1.7376803427
   23      H      -1.9358232428    -0.4006256611    -2.0358106240
   24      H      -0.9617234362    -0.8036352570     0.1986147752
   25      H      -0.9302788855     0.9252824106     0.5274859547
   26      H       0.6127702840     1.2603983276    -1.4359196490
   27      H       0.5817787721    -0.4680811960    -1.7435443722
   28      H       1.5944676312    -0.8875135880     0.5141064044
   29      H       1.6287179729     0.8384210298     0.8226781465
   30      H       3.1655526037     1.1580579934    -1.1407201739
   31      H       3.1317711802    -0.5687850191    -1.4458643210
   32      H       4.1428778778    -0.9874612856     0.8154931535
   33      H       4.1785721043     0.7389789480     1.1194842810
   34      H       5.7161238284     1.0525057054    -0.8432114336
   35      H       5.6801625721    -0.6743182190    -1.1464708970
   36      H       6.6903040568    -1.0925337038     1.1153747920
   37      H       6.7266931080     0.6341248797     1.4186016533
   38      H       8.2658225855     0.9462386858    -0.5431837055
   39      H       8.2292115202    -0.7805959754    -0.8463816624
   40      C      10.7080139055    -0.1340524214     0.2425076631
   41      H       9.2380574574    -1.1983195195     1.4144250845
   42      H      -5.7626734306    -3.2726217244    -0.6397863351
   43      H      -6.6470911305    -2.7873527168     0.8270852172
   44      H      -4.9699580080    -3.3804082159     0.9165567440
   45      H      -4.3549368557     3.3862985206     0.1948175636
   46      H      -3.5879356325     3.0322447721    -1.3603744745
   47      H      -2.6554571465     2.8760871421     0.1277397741
   48      H       9.2747832691     0.5272428801     1.7174262048
   49      H      10.8142511328    -0.8960733057    -0.5364273157
   50      H      11.5213761212    -0.2772741014     0.9600880461
   51      H      10.8511743411     0.8425481276    -0.2313219106
   52      H      -7.3088855634     0.5773126296     1.3594950027
 ----------------------------------------------------------------

   19    -968.1301258204      6.01e-09  Convergence criterion met
 Total energy in the final basis set =     -968.1301258204
   12    -968.2124830407      8.71e-09  Convergence criterion met
 Total energy in the final basis set =     -968.2124830407

                    Orbital Energies (a.u.)
 --------------------------------------------------------------

 Alpha MOs
 -- Occupied --
-19.1399 -19.0851 -19.0726 -10.2172 -10.2156 -10.2155 -10.1655 -10.1620
-10.1587 -10.1577 -10.1554 -10.1552 -10.1551 -10.1549 -10.1547 -10.1543
-10.1539 -10.1536 -10.1533 -10.1526 -10.1519 -10.1512  -1.0596  -0.9951
 -0.9935  -0.8281  -0.8081  -0.7959  -0.7819  -0.7670  -0.7438  -0.7158
 -0.7051  -0.6848  -0.6551  -0.6373  -0.6226  -0.5911  -0.5734  -0.5701
 -0.5670  -0.5642  -0.5486  -0.5191  -0.4862  -0.4803  -0.4673  -0.4482
 -0.4428  -0.4379  -0.4277  -0.4264  -0.4204  -0.4188  -0.4103  -0.4074
 -0.4041  -0.4000  -0.3907  -0.3899  -0.3887  -0.3793  -0.3762  -0.3702
 -0.3640  -0.3624  -0.3566  -0.3501  -0.3473  -0.3424  -0.3359  -0.3326
 -0.3252  -0.3231  -0.3213  -0.3173  -0.3164  -0.3149  -0.3136  -0.2941
 -0.2642  -0.2588  -0.2359  -0.2173  -0.1574

 Beta MOs
 -- Occupied --
-19.1395 -19.0788 -19.0667 -10.2148 -10.2143 -10.2140 -10.1653 -10.1597
-10.1583 -10.1577 -10.1554 -10.1552 -10.1551 -10.1549 -10.1546 -10.1543
-10.1538 -10.1536 -10.1533 -10.1526 -10.1519 -10.1512  -1.0575  -0.9846
 -0.9828  -0.8231  -0.8079  -0.7954  -0.7810  -0.7663  -0.7429  -0.7142
 -0.7030  -0.6817  -0.6531  -0.6325  -0.6212  -0.5903  -0.5733  -0.5693
 -0.5669  -0.5623  -0.5456  -0.5161  -0.4843  -0.4801  -0.4672  -0.4480
 -0.4391  -0.4296  -0.4273  -0.4255  -0.4191  -0.4156  -0.4083  -0.4060
 -0.4026  -0.3963  -0.3895  -0.3873  -0.3850  -0.3778  -0.3741  -0.3697
 -0.3631  -0.3555  -0.3511  -0.3464  -0.3395  -0.3345  -0.3310  -0.3300
 -0.3246  -0.3222  -0.3210  -0.3172  -0.3162  -0.3149  -0.3132  -0.2932
 -0.2533  -0.2384  -0.2301  -0.2110

          Ground-State Mulliken Net Atomic Charges

     Atom                 Charge (a.u.)    Spin (a.u.)
  --------------------------------------------------------
      1 C                    -0.779459       0.146719
      2 C                     1.016606       0.032978
      3 C                     0.803138       0.172378
      4 C                    -0.703834       0.092820
      5 C                     0.977716       0.015030
      6 C                    -0.935533       0.060495
      7 O                    -0.567857       0.224856
      8 O                    -0.496966       0.220270
      9 C                    -0.381979       0.006479
     10 C                    -0.946217      -0.005390
     11 C                    -0.372626       0.006707
     12 C                    -0.028883      -0.003095
     13 C                     0.029264      -0.000722
     14 C                     0.046853      -0.000122
     15 C                    -0.059968       0.000286
     16 C                    -0.301007       0.000033
     17 C                    -0.491573       0.000023
     18 C                    -0.296381      -0.000003
     19 C                    -0.458434       0.004741
     20 C                    -0.641226       0.003517
     21 O                    -0.332665       0.014999
     22 H                     0.167679       0.000747
     23 H                     0.208534       0.005163
     24 H                     0.195544      -0.002118
     25 H                     0.137136      -0.000135
     26 H                     0.117605      -0.000096
     27 H                     0.127916      -0.000361
     28 H                     0.128422      -0.000007
     29 H                     0.133893      -0.000092
     30 H                     0.137808      -0.000019
     31 H                     0.136198      -0.000009
     32 H                     0.134715       0.000007
     33 H                     0.134197       0.000003
     34 H                     0.133668      -0.000002
     35 H                     0.133631       0.000006
     36 H                     0.131988       0.000000
     37 H                     0.131904      -0.000000
     38 H                     0.128786       0.000000
     39 H                     0.128925      -0.000001
     40 C                    -0.710668       0.000001
     41 H                     0.136396      -0.000000
     42 H                     0.170001       0.002337
     43 H                     0.180748      -0.000164
     44 H                     0.169275       0.001878
     45 H                     0.183569      -0.001305
     46 H                     0.183383       0.002391
     47 H                     0.169027       0.001864
     48 H                     0.136177       0.000000
     49 H                     0.145470       0.000000
     50 H                     0.154713       0.000001
     51 H                     0.145492      -0.000000
     52 H                     0.308899      -0.003092
  --------------------------------------------------------
  Sum of atomic charges =    -1.000000

                    Cartesian Multipole Moments
 -----------------------------------------------------------------
    Charge (ESU x 10^10)
                -4.8032
    Dipole Moment (Debye)
         X      23.6539      Y       2.0714      Z      -0.4856
       Tot      23.7494
    Quadrupole Moments (Debye-Ang)
        XX    -275.5679     XY       4.1702     YY    -162.9134
        XZ      10.6182     YZ      -7.8314     ZZ    -148.4380

 Total job time:  682.19s(wall), 4897.33s(cpu)
        *  Thank you very much for using Q-Chem.  Have a nice day.  *
