 Q-Chem 5.4, Q-Chem, Inc., Pleasanton, CA (2021)
 Q-Chem 5.4.0 for Intel X86 EM64T Linux

User input:
--------------------------------------------------------------
$molecule
0 1
C                  0.5972800000      1.2533850000     -0.8500760000
C                 -0.7811660000      0.8076960000     -0.5117760000
C                 -1.0811800000     -0.4882630000     -0.2853360000
C                  0.0661250000     -1.4742520000     -0.2363310000
C                  1.4987170000     -1.0196000000     -0.4141040000
C                  1.7137770000      0.2940540000     -0.6349180000
O                  0.8021550000      2.3590060000     -1.3133890000
O                 -0.1646580000     -2.6467620000     -0.0238670000
S                  3.4170160000      0.9468200000     -0.9103840000
C                  3.5089500000      2.5483390000     -0.0910990000
C                  3.4641830000      3.7082080000     -0.8588330000
C                  3.7249270000      2.5811980000      1.2852090000
C                  3.8798810000      3.8166910000      1.9093220000
C                  3.6375780000      4.9348460000     -0.2241070000
C                  3.8390750000      4.9889550000      1.1551180000
O                  3.5793280000      1.1366100000     -2.3519330000
O                  4.3177590000      0.0559910000     -0.1698440000
H                  3.3006530000      3.6396470000     -1.9258530000
H                  3.7968980000      1.6599010000      1.8495340000
H                  3.6165980000      5.8477200000     -0.8077060000
H                  4.0507170000      3.8610430000      2.9785530000
H                  3.9725380000      5.9478000000      1.6432140000
S                 -2.1071900000      2.0836580000     -0.6403430000
C                 -1.4847930000      3.5765200000      0.1524900000
C                 -1.0577510000      4.6388990000     -0.6385430000
C                 -1.5429360000      3.6666350000      1.5419090000
C                 -1.1412270000      4.8518270000      2.1534100000
C                 -0.6754800000      5.8230330000     -0.0146200000
C                 -0.7119500000      5.9269810000      1.3759390000
O                 -2.3146550000      2.3487320000     -2.0641040000
O                 -3.2130550000      1.6061080000      0.1976820000
H                 -1.0330940000      4.5310000000     -1.7145150000
H                 -1.9194240000      2.8378620000      2.1282700000
H                 -1.1818730000      4.9403660000      3.2327260000
H                 -0.3506550000      6.6644510000     -0.6153490000
H                 -0.4120850000      6.8519760000      1.8554210000
C                 -2.4422090000     -1.0856400000     -0.0749960000
C                  2.5272840000     -2.1092380000     -0.3237930000
H                 -2.8365030000     -0.7963070000      0.9021530000
H                 -2.3738170000     -2.1698330000     -0.1235280000
H                 -3.1561870000     -0.7201650000     -0.8118510000
H                  2.0331160000     -3.0775170000     -0.3520970000
H                  3.0895250000     -2.0234730000      0.6093190000
H                  3.2581500000     -2.0356560000     -1.1278540000
$end
$rem
MAX_SCF_CYCLES=200
BASIS  =  6-311++G(d,p)
GUI  =  2
JOB_TYPE  =  SP
METHOD  =  B3LYP
SOLVENT_METHOD = PCM
$end
$pcm
theory = CPCM
$end
$solvent
dielectric 37.219
opticaldielectric 1.43
$end

--------------------------------------------------------------

             Standard Nuclear Orientation (Angstroms)
    I     Atom           X                Y                Z
 ----------------------------------------------------------------
    1      C       0.5972800000     1.2533850000    -0.8500760000
    2      C      -0.7811660000     0.8076960000    -0.5117760000
    3      C      -1.0811800000    -0.4882630000    -0.2853360000
    4      C       0.0661250000    -1.4742520000    -0.2363310000
    5      C       1.4987170000    -1.0196000000    -0.4141040000
    6      C       1.7137770000     0.2940540000    -0.6349180000
    7      O       0.8021550000     2.3590060000    -1.3133890000
    8      O      -0.1646580000    -2.6467620000    -0.0238670000
    9      S       3.4170160000     0.9468200000    -0.9103840000
   10      C       3.5089500000     2.5483390000    -0.0910990000
   11      C       3.4641830000     3.7082080000    -0.8588330000
   12      C       3.7249270000     2.5811980000     1.2852090000
   13      C       3.8798810000     3.8166910000     1.9093220000
   14      C       3.6375780000     4.9348460000    -0.2241070000
   15      C       3.8390750000     4.9889550000     1.1551180000
   16      O       3.5793280000     1.1366100000    -2.3519330000
   17      O       4.3177590000     0.0559910000    -0.1698440000
   18      H       3.3006530000     3.6396470000    -1.9258530000
   19      H       3.7968980000     1.6599010000     1.8495340000
   20      H       3.6165980000     5.8477200000    -0.8077060000
   21      H       4.0507170000     3.8610430000     2.9785530000
   22      H       3.9725380000     5.9478000000     1.6432140000
   23      S      -2.1071900000     2.0836580000    -0.6403430000
   24      C      -1.4847930000     3.5765200000     0.1524900000
   25      C      -1.0577510000     4.6388990000    -0.6385430000
   26      C      -1.5429360000     3.6666350000     1.5419090000
   27      C      -1.1412270000     4.8518270000     2.1534100000
   28      C      -0.6754800000     5.8230330000    -0.0146200000
   29      C      -0.7119500000     5.9269810000     1.3759390000
   30      O      -2.3146550000     2.3487320000    -2.0641040000
   31      O      -3.2130550000     1.6061080000     0.1976820000
   32      H      -1.0330940000     4.5310000000    -1.7145150000
   33      H      -1.9194240000     2.8378620000     2.1282700000
   34      H      -1.1818730000     4.9403660000     3.2327260000
   35      H      -0.3506550000     6.6644510000    -0.6153490000
   36      H      -0.4120850000     6.8519760000     1.8554210000
   37      C      -2.4422090000    -1.0856400000    -0.0749960000
   38      C       2.5272840000    -2.1092380000    -0.3237930000
   39      H      -2.8365030000    -0.7963070000     0.9021530000
   40      H      -2.3738170000    -2.1698330000    -0.1235280000
   41      H      -3.1561870000    -0.7201650000    -0.8118510000
   42      H       2.0331160000    -3.0775170000    -0.3520970000
   43      H       3.0895250000    -2.0234730000     0.6093190000
   44      H       3.2581500000    -2.0356560000    -1.1278540000
 ----------------------------------------------------------------

    9   -2019.7175045964      5.74e-06  Convergence criterion met
 Total energy in the final basis set =    -2019.7175045964

                    Orbital Energies (a.u.)
 --------------------------------------------------------------

 Alpha MOs
 -- Occupied --
-89.0756 -89.0756 -19.1655 -19.1569 -19.1418 -19.1418 -19.1372 -19.1372
-10.3157 -10.3109 -10.2534 -10.2534 -10.2506 -10.2506 -10.2248 -10.2248
-10.2033 -10.2033 -10.2015 -10.2015 -10.1952 -10.1952 -10.1933 -10.1933
-10.1928 -10.1928 -10.1804 -10.1803  -8.1392  -8.1392  -6.1018  -6.1018
 -6.1011  -6.1011  -6.1001  -6.1001  -1.1363  -1.1355  -1.0996  -1.0955
 -1.0323  -1.0322  -0.8942  -0.8867  -0.8864  -0.8485  -0.7939  -0.7937
 -0.7723  -0.7720  -0.7640  -0.7488  -0.7173  -0.6836  -0.6813  -0.6349
 -0.6316  -0.6311  -0.6310  -0.5973  -0.5933  -0.5686  -0.5581  -0.5496
 -0.5311  -0.5120  -0.4988  -0.4971  -0.4955  -0.4898  -0.4878  -0.4820
 -0.4799  -0.4683  -0.4677  -0.4621  -0.4617  -0.4501  -0.4459  -0.4454
 -0.4434  -0.4353  -0.4330  -0.4137  -0.4077  -0.4010  -0.3950  -0.3939
 -0.3872  -0.3866  -0.3688  -0.3687  -0.3670  -0.3639  -0.3544  -0.3540
 -0.3373  -0.3363  -0.3266  -0.3233  -0.3207  -0.3174  -0.3075  -0.2897
 -0.2858  -0.2796  -0.2782  -0.2737

          Ground-State Mulliken Net Atomic Charges

     Atom                 Charge (a.u.)
  ----------------------------------------
      1 C                    -0.288252
      2 C                    -0.255261
      3 C                     0.810879
      4 C                    -1.783340
      5 C                     0.812394
      6 C                    -0.259687
      7 O                    -0.127518
      8 O                    -0.180445
      9 S                     0.899275
     10 C                    -0.032622
     11 C                    -0.248828
     12 C                     0.118066
     13 C                    -0.505878
     14 C                    -0.332832
     15 C                    -0.371658
     16 O                    -0.102212
     17 O                    -0.139353
     18 H                     0.273747
     19 H                     0.276702
     20 H                     0.245104
     21 H                     0.242776
     22 H                     0.219842
     23 S                     0.892304
     24 C                    -0.029438
     25 C                    -0.242799
     26 C                     0.111956
     27 C                    -0.502482
     28 C                    -0.334242
     29 C                    -0.372488
     30 O                    -0.102595
     31 O                    -0.138618
     32 H                     0.274285
     33 H                     0.276457
     34 H                     0.243266
     35 H                     0.245071
     36 H                     0.219682
     37 C                    -0.583186
     38 C                    -0.581869
     39 H                     0.242800
     40 H                     0.191571
     41 H                     0.242389
     42 H                     0.191366
     43 H                     0.243480
     44 H                     0.242190
  ----------------------------------------
  Sum of atomic charges =     0.000001

                    Cartesian Multipole Moments
 -----------------------------------------------------------------
    Charge (ESU x 10^10)
                -0.0000
    Dipole Moment (Debye)
         X       1.2330      Y       4.1944      Z       7.7239
       Tot       8.8753
    Quadrupole Moments (Debye-Ang)
        XX    -210.6708     XY      19.4067     YY    -134.0392
        XZ       9.2708     YZ      21.8569     ZZ    -177.7286

 Total job time:  180.14s(wall), 1272.48s(cpu)
        *  Thank you very much for using Q-Chem.  Have a nice day.  *
