 Gaussian 16, Revision A.03,
 Gaussian 16:  ES64L-G16RevA.03 25-Dec-2016

 --------------------------------------
 #P UB3LYP/6-311++G(d,p) nosym opt freq
 --------------------------------------

 --------
 Oxidized
 --------
 Symbolic Z-matrix:
 Charge =  0 Multiplicity = 1

 SCF Done:  E(UB3LYP) =  -2019.68644553     A.U. after   20 cycles
 SCF Done:  E(UB3LYP) =  -2019.68644553     A.U. after   11 cycles
 SCF Done:  E(UB3LYP) =  -2019.68644555     A.U. after   11 cycles
 Optimization completed.
    -- Stationary point found.
 Normal termination of Gaussian 16 at Wed Jan 10 06:26:18 2024.

 ----------------------------------------------------------------------
 #P Geom=AllCheck Guess=TCheck SCRF=Check GenChk UB3LYP/6-311++G(d,p) F
 req
 ----------------------------------------------------------------------

 Structure from the checkpoint file:  "074.chk"
 --------
 Oxidized
 --------
 Charge =  0 Multiplicity = 1

                          Input orientation:
 ---------------------------------------------------------------------
 Center     Atomic      Atomic             Coordinates (Angstroms)
 Number     Number       Type             X           Y           Z
 ---------------------------------------------------------------------
      1          6           0        0.597280    1.253385   -0.850076
      2          6           0       -0.781166    0.807696   -0.511776
      3          6           0       -1.081180   -0.488263   -0.285336
      4          6           0        0.066125   -1.474252   -0.236331
      5          6           0        1.498717   -1.019600   -0.414104
      6          6           0        1.713777    0.294054   -0.634918
      7          8           0        0.802155    2.359006   -1.313389
      8          8           0       -0.164658   -2.646762   -0.023867
      9         16           0        3.417016    0.946820   -0.910384
     10          6           0        3.508950    2.548339   -0.091099
     11          6           0        3.464183    3.708208   -0.858833
     12          6           0        3.724927    2.581198    1.285209
     13          6           0        3.879881    3.816691    1.909322
     14          6           0        3.637578    4.934846   -0.224107
     15          6           0        3.839075    4.988955    1.155118
     16          8           0        3.579328    1.136610   -2.351933
     17          8           0        4.317759    0.055991   -0.169844
     18          1           0        3.300653    3.639647   -1.925853
     19          1           0        3.796898    1.659901    1.849534
     20          1           0        3.616598    5.847720   -0.807706
     21          1           0        4.050717    3.861043    2.978553
     22          1           0        3.972538    5.947800    1.643214
     23         16           0       -2.107190    2.083658   -0.640343
     24          6           0       -1.484793    3.576520    0.152490
     25          6           0       -1.057751    4.638899   -0.638543
     26          6           0       -1.542936    3.666635    1.541909
     27          6           0       -1.141227    4.851827    2.153410
     28          6           0       -0.675480    5.823033   -0.014620
     29          6           0       -0.711950    5.926981    1.375939
     30          8           0       -2.314655    2.348732   -2.064104
     31          8           0       -3.213055    1.606108    0.197682
     32          1           0       -1.033094    4.531000   -1.714515
     33          1           0       -1.919424    2.837862    2.128270
     34          1           0       -1.181873    4.940366    3.232726
     35          1           0       -0.350655    6.664451   -0.615349
     36          1           0       -0.412085    6.851976    1.855421
     37          6           0       -2.442209   -1.085640   -0.074996
     38          6           0        2.527284   -2.109238   -0.323793
     39          1           0       -2.836503   -0.796307    0.902153
     40          1           0       -2.373817   -2.169833   -0.123528
     41          1           0       -3.156187   -0.720165   -0.811851
     42          1           0        2.033116   -3.077517   -0.352097
     43          1           0        3.089525   -2.023473    0.609319
     44          1           0        3.258150   -2.035656   -1.127854
 ---------------------------------------------------------------------

 SCF Done:  E(UB3LYP) =  -2019.68644555     A.U. after    2 cycles

 Alpha  occ. eigenvalues --  -89.07023 -89.07022 -19.16902 -19.15973 -19.13216
 Alpha  occ. eigenvalues --  -19.13216 -19.13019 -19.13018 -10.31719 -10.31412
 Alpha  occ. eigenvalues --  -10.25795 -10.25792 -10.25426 -10.25425 -10.22983
 Alpha  occ. eigenvalues --  -10.22982 -10.21314 -10.21314 -10.20897 -10.20897
 Alpha  occ. eigenvalues --  -10.20792 -10.20791 -10.20586 -10.20586 -10.20427
 Alpha  occ. eigenvalues --  -10.20427 -10.18830 -10.18827  -8.13367  -8.13366
 Alpha  occ. eigenvalues --   -6.09603  -6.09602  -6.09574  -6.09573  -6.09489
 Alpha  occ. eigenvalues --   -6.09488  -1.12850  -1.12740  -1.10338  -1.09680
 Alpha  occ. eigenvalues --   -1.02308  -1.02297  -0.89934  -0.89473  -0.89457
 Alpha  occ. eigenvalues --   -0.85349  -0.80008  -0.80002  -0.78215  -0.78190
 Alpha  occ. eigenvalues --   -0.77031  -0.75418  -0.72098  -0.68777  -0.68530
 Alpha  occ. eigenvalues --   -0.64140  -0.64127  -0.63988  -0.63771  -0.60356
 Alpha  occ. eigenvalues --   -0.59819  -0.57128  -0.56358  -0.55560  -0.53010
 Alpha  occ. eigenvalues --   -0.51458  -0.50205  -0.49860  -0.49643  -0.49286
 Alpha  occ. eigenvalues --   -0.48948  -0.48612  -0.48204  -0.47372  -0.47328
 Alpha  occ. eigenvalues --   -0.46329  -0.46255  -0.45715  -0.45664  -0.45353
 Alpha  occ. eigenvalues --   -0.44779  -0.44366  -0.43890  -0.42083  -0.41362
 Alpha  occ. eigenvalues --   -0.40711  -0.40255  -0.40074  -0.39742  -0.39674
 Alpha  occ. eigenvalues --   -0.38050  -0.38035  -0.35910  -0.35443  -0.34750
 Alpha  occ. eigenvalues --   -0.34701  -0.33132  -0.32887  -0.32516  -0.32133
 Alpha  occ. eigenvalues --   -0.31838  -0.31830  -0.30977  -0.29267  -0.28938
 Alpha  occ. eigenvalues --   -0.28807  -0.28595  -0.28018
 Alpha virt. eigenvalues --   -0.15845  -0.07532  -0.06709  -0.05337  -0.04462
 Alpha virt. eigenvalues --   -0.03743  -0.03311  -0.02430  -0.01319  -0.00628
 Alpha virt. eigenvalues --   -0.00239   0.00498   0.00800   0.01402   0.01715

  Beta  occ. eigenvalues --  -89.07023 -89.07022 -19.16902 -19.15973 -19.13216
  Beta  occ. eigenvalues --  -19.13216 -19.13019 -19.13018 -10.31719 -10.31412
  Beta  occ. eigenvalues --  -10.25795 -10.25792 -10.25426 -10.25425 -10.22983
  Beta  occ. eigenvalues --  -10.22982 -10.21314 -10.21314 -10.20897 -10.20897
  Beta  occ. eigenvalues --  -10.20792 -10.20791 -10.20586 -10.20586 -10.20427
  Beta  occ. eigenvalues --  -10.20427 -10.18830 -10.18827  -8.13367  -8.13366
  Beta  occ. eigenvalues --   -6.09603  -6.09602  -6.09574  -6.09573  -6.09489
  Beta  occ. eigenvalues --   -6.09488  -1.12850  -1.12740  -1.10338  -1.09680
  Beta  occ. eigenvalues --   -1.02308  -1.02297  -0.89934  -0.89473  -0.89457
  Beta  occ. eigenvalues --   -0.85349  -0.80008  -0.80002  -0.78215  -0.78190
  Beta  occ. eigenvalues --   -0.77031  -0.75418  -0.72098  -0.68777  -0.68530
  Beta  occ. eigenvalues --   -0.64140  -0.64127  -0.63988  -0.63771  -0.60356
  Beta  occ. eigenvalues --   -0.59819  -0.57128  -0.56358  -0.55560  -0.53010
  Beta  occ. eigenvalues --   -0.51458  -0.50205  -0.49860  -0.49643  -0.49286
  Beta  occ. eigenvalues --   -0.48948  -0.48612  -0.48204  -0.47372  -0.47328
  Beta  occ. eigenvalues --   -0.46329  -0.46255  -0.45715  -0.45664  -0.45353
  Beta  occ. eigenvalues --   -0.44779  -0.44366  -0.43890  -0.42083  -0.41362
  Beta  occ. eigenvalues --   -0.40711  -0.40255  -0.40074  -0.39742  -0.39674
  Beta  occ. eigenvalues --   -0.38050  -0.38035  -0.35910  -0.35443  -0.34750
  Beta  occ. eigenvalues --   -0.34701  -0.33132  -0.32887  -0.32516  -0.32133
  Beta  occ. eigenvalues --   -0.31838  -0.31830  -0.30977  -0.29267  -0.28938
  Beta  occ. eigenvalues --   -0.28807  -0.28595  -0.28018
  Beta virt. eigenvalues --   -0.15845  -0.07532  -0.06709  -0.05337  -0.04462
  Beta virt. eigenvalues --   -0.03743  -0.03311  -0.02430  -0.01319  -0.00628
  Beta virt. eigenvalues --   -0.00239   0.00498   0.00800   0.01402   0.01715

 Mulliken charges and spin densities:
               1          2
     1  C   -0.217156  -0.000000
     2  C   -0.419604   0.000000
     3  C    0.760470   0.000000
     4  C   -1.728260  -0.000000
     5  C    0.760725  -0.000000
     6  C   -0.416495   0.000000
     7  O   -0.071765  -0.000000
     8  O   -0.142630  -0.000000
     9  S    0.829247  -0.000000
    10  C   -0.048205  -0.000000
    11  C   -0.277660   0.000000
    12  C    0.154080   0.000000
    13  C   -0.472095   0.000000
    14  C   -0.277624  -0.000000
    15  C   -0.309462   0.000000
    16  O    0.003154  -0.000000
    17  O   -0.036566  -0.000000
    18  H    0.265560  -0.000000
    19  H    0.244891   0.000000
    20  H    0.199909  -0.000000
    21  H    0.196211  -0.000000
    22  H    0.172934   0.000000
    23  S    0.828457  -0.000000
    24  C   -0.047747   0.000000
    25  C   -0.278402  -0.000000
    26  C    0.155280   0.000000
    27  C   -0.471591   0.000000
    28  C   -0.276876  -0.000000
    29  C   -0.310422  -0.000000
    30  O    0.002974   0.000000
    31  O   -0.036355   0.000000
    32  H    0.265617   0.000000
    33  H    0.244923   0.000000
    34  H    0.196254  -0.000000
    35  H    0.199921   0.000000
    36  H    0.172963   0.000000
    37  C   -0.556444   0.000000
    38  C   -0.554635   0.000000
    39  H    0.222808   0.000000
    40  H    0.189775  -0.000000
    41  H    0.235510   0.000000
    42  H    0.189504  -0.000000
    43  H    0.223206   0.000000
    44  H    0.235621  -0.000000
 Sum of Mulliken charges =   0.00000   0.00000

 Dipole moment (field-independent basis, Debye):
    X=              0.9794    Y=              3.5305    Z=              5.2632  Tot=              6.4129
 Quadrupole moment (field-independent basis, Debye-Ang):
   XX=           -203.7055   YY=           -143.7827   ZZ=           -177.5980
   XY=             15.1511   XZ=              6.4671   YZ=             14.7010

  Exact polarizability: 251.143  26.509 372.096   1.569  11.105 232.795
 Approx polarizability: 354.125  55.549 622.668  -3.263 -40.272 449.130

                      1                      2                      3
                      A                      A                      A
 Frequencies --      8.2943                13.7422                30.9418
 Red. masses --      5.7812                 7.4722                 6.4349
 Frc consts  --      0.0002                 0.0008                 0.0036
 IR Inten    --      0.0729                 1.1794                 0.8286

                      4                      5                      6
                      A                      A                      A
 Frequencies --     32.0020                43.8417                46.3324
 Red. masses --      4.0218                 4.4713                 3.6129
 Frc consts  --      0.0024                 0.0051                 0.0046
 IR Inten    --      0.3647                 2.3027                 0.3515

                      7                      8                      9
                      A                      A                      A
 Frequencies --     54.0564                58.6123                82.6236
 Red. masses --      4.2414                 4.9307                 5.8732
 Frc consts  --      0.0073                 0.0100                 0.0236
 IR Inten    --      4.1648                 0.9956                 0.3228

                     10                     11                     12
                      A                      A                      A
 Frequencies --    113.0618               116.7122               120.7519
 Red. masses --      1.1051                 1.1633                 6.9553
 Frc consts  --      0.0083                 0.0093                 0.0598
 IR Inten    --      0.1091                 1.6660                 1.3463

                     13                     14                     15
                      A                      A                      A
 Frequencies --    162.1409               173.1619               183.3205
 Red. masses --      6.4061                 7.2787                 6.7225
 Frc consts  --      0.0992                 0.1286                 0.1331
 IR Inten    --      0.1533                 6.1885                 2.2647

                     16                     17                     18
                      A                      A                      A
 Frequencies --    190.0702               197.8871               216.6838
 Red. masses --      7.7624                 5.6770                 7.3439
 Frc consts  --      0.1652                 0.1310                 0.2032
 IR Inten    --      0.8420                 0.0002                 1.4240

                     19                     20                     21
                      A                      A                      A
 Frequencies --    223.3074               237.4232               265.2795
 Red. masses --      6.6217                 9.6775                10.5270
 Frc consts  --      0.1945                 0.3214                 0.4365
 IR Inten    --      0.0005                 1.8190                 0.3134

                     22                     23                     24
                      A                      A                      A
 Frequencies --    273.0554               306.5651               309.8982
 Red. masses --      8.1091                 7.3072                 8.6086
 Frc consts  --      0.3562                 0.4046                 0.4871
 IR Inten    --      0.3144                 3.6389                 0.0083

                     25                     26                     27
                      A                      A                      A
 Frequencies --    342.9093               350.7069               380.3765
 Red. masses --      6.4338                 3.3422                 5.0248
 Frc consts  --      0.4457                 0.2422                 0.4283
 IR Inten    --      0.9808                 0.1012                10.8756

                     28                     29                     30
                      A                      A                      A
 Frequencies --    387.4838               409.6308               411.1221
 Red. masses --      5.5425                 2.8778                 2.9019
 Frc consts  --      0.4903                 0.2845                 0.2890
 IR Inten    --      6.7692                 0.0451                 0.3072

                     31                     32                     33
                      A                      A                      A
 Frequencies --    424.9093               436.8975               441.1524
 Red. masses --      5.1761                 6.3143                 8.9685
 Frc consts  --      0.5506                 0.7101                 1.0284
 IR Inten    --      3.7245                 4.4051                 4.9950

                     34                     35                     36
                      A                      A                      A
 Frequencies --    457.6284               458.4310               483.9524
 Red. masses --      5.6308                 5.3562                 7.2280
 Frc consts  --      0.6948                 0.6632                 0.9974
 IR Inten    --     23.8767                 3.0100                 2.1909

                     37                     38                     39
                      A                      A                      A
 Frequencies --    509.0548               538.1071               550.0317
 Red. masses --      7.8804                10.2892                 7.4231
 Frc consts  --      1.2032                 1.7554                 1.3232
 IR Inten    --     26.9457                51.8501               117.5514

                     40                     41                     42
                      A                      A                      A
 Frequencies --    570.8225               599.4853               601.4512
 Red. masses --      6.0036                 6.6587                 8.9281
 Frc consts  --      1.1526                 1.4099                 1.9029
 IR Inten    --      0.9337                 0.7957               219.2891

                     43                     44                     45
                      A                      A                      A
 Frequencies --    626.5169               626.8198               667.8768
 Red. masses --      6.4470                 6.4403                 8.6821
 Frc consts  --      1.4910                 1.4909                 2.2817
 IR Inten    --      0.0016                 0.0288                33.0486

                     46                     47                     48
                      A                      A                      A
 Frequencies --    701.1037               701.5966               706.5732
 Red. masses --      1.9033                 2.0188                 5.5670
 Frc consts  --      0.5512                 0.5855                 1.6375
 IR Inten    --     90.9198                13.9421                 5.9110

                     49                     50                     51
                      A                      A                      A
 Frequencies --    712.4128               730.7422               731.5200
 Red. masses --      6.7643                 6.4074                 5.8777
 Frc consts  --      2.0227                 2.0159                 1.8532
 IR Inten    --     22.1556                73.0554                16.9717

                     52                     53                     54
                      A                      A                      A
 Frequencies --    763.8540               764.7951               810.7333
 Red. masses --      1.7601                 1.6469                 7.3027
 Frc consts  --      0.6051                 0.5675                 2.8281
 IR Inten    --     40.9381                 0.7132                16.0357

                     55                     56                     57
                      A                      A                      A
 Frequencies --    839.9969               849.9328               853.3205
 Red. masses --      4.0394                 1.2463                 1.2446
 Frc consts  --      1.6793                 0.5304                 0.5340
 IR Inten    --     45.6575                 0.2070                 0.9578

                     58                     59                     60
                      A                      A                      A
 Frequencies --    940.5052               942.0671               961.4696
 Red. masses --      1.3533                 1.3506                 6.2631
 Frc consts  --      0.7053                 0.7062                 3.4112
 IR Inten    --      0.1632                 0.7505                34.6157

                     61                     62                     63
                      A                      A                      A
 Frequencies --    984.7001               989.4360               991.1767
 Red. masses --      4.0899                 1.3862                 1.3841
 Frc consts  --      2.3365                 0.7995                 0.8012
 IR Inten    --      2.6391                 0.4865                 0.0297

                     64                     65                     66
                      A                      A                      A
 Frequencies --   1007.9606              1010.2774              1014.5302
 Red. masses --      1.3197                 1.3185                 6.0673
 Frc consts  --      0.7900                 0.7929                 3.6794
 IR Inten    --      0.0574                 0.0082                 4.2989

                     67                     68                     69
                      A                      A                      A
 Frequencies --   1014.9182              1031.3127              1039.5941
 Red. masses --      6.0035                 1.5064                 3.6342
 Frc consts  --      3.6435                 0.9440                 2.3141
 IR Inten    --      5.0467                 0.4487                20.8937

                     70                     71                     72
                      A                      A                      A
 Frequencies --   1040.1172              1047.6908              1065.9338
 Red. masses --      3.4701                 1.6676                 3.0153
 Frc consts  --      2.2119                 1.0785                 2.0186
 IR Inten    --      5.5146                 5.2056               139.0361

                     73                     74                     75
                      A                      A                      A
 Frequencies --   1067.9734              1068.6919              1087.7531
 Red. masses --      1.6887                 3.3830                 2.6455
 Frc consts  --      1.1348                 2.2765                 1.8442
 IR Inten    --      1.3198                17.5925                 0.1364

                     76                     77                     78
                      A                      A                      A
 Frequencies --   1101.0134              1101.5446              1113.1472
 Red. masses --      1.5652                 1.5678                 5.0981
 Frc consts  --      1.1179                 1.1209                 3.7219
 IR Inten    --      2.8087                 9.8562               129.6355

                     79                     80                     81
                      A                      A                      A
 Frequencies --   1113.8367              1184.4437              1185.2185
 Red. masses --      5.2717                 1.1197                 1.1214
 Frc consts  --      3.8534                 0.9255                 0.9281
 IR Inten    --    112.3576                 0.0136                 0.3647

                     82                     83                     84
                      A                      A                      A
 Frequencies --   1199.1270              1200.2110              1204.3384
 Red. masses --      1.1565                 1.1863                 3.9541
 Frc consts  --      0.9798                 1.0068                 3.3790
 IR Inten    --      3.4285                20.1637               105.3805

                     85                     86                     87
                      A                      A                      A
 Frequencies --   1236.2039              1272.2237              1279.6075
 Red. masses --     10.9496                11.7973                16.6973
 Frc consts  --      9.8589                11.2501                16.1083
 IR Inten    --    224.2412                 0.9596               266.9269

                     88                     89                     90
                      A                      A                      A
 Frequencies --   1290.0743              1332.9721              1333.4484
 Red. masses --      7.6865                 2.4616                 2.3845
 Frc consts  --      7.5372                 2.5770                 2.4981
 IR Inten    --     34.3743                 0.0102                 0.0740

                     91                     92                     93
                      A                      A                      A
 Frequencies --   1346.1393              1346.5111              1407.6197
 Red. masses --      2.0351                 2.0847                 1.1658
 Frc consts  --      2.1727                 2.2270                 1.3610
 IR Inten    --      0.0482                 4.6142                30.4163

                     94                     95                     96
                      A                      A                      A
 Frequencies --   1408.0520              1470.0389              1471.3981
 Red. masses --      1.1684                 1.0832                 1.1020
 Frc consts  --      1.3648                 1.3792                 1.4056
 IR Inten    --      6.0777                60.6288                 0.0708

                     97                     98                     99
                      A                      A                      A
 Frequencies --   1476.8562              1477.1949              1485.8257
 Red. masses --      2.1355                 2.1447                 1.0576
 Frc consts  --      2.7443                 2.7573                 1.3757
 IR Inten    --      0.5286                28.1880                 1.3981

                    100                    101                    102
                      A                      A                      A
 Frequencies --   1486.3937              1506.7680              1507.0088
 Red. masses --      1.0542                 2.0266                 2.0275
 Frc consts  --      1.3723                 2.7109                 2.7129
 IR Inten    --     22.6509                 0.0597                 6.6088

                    103                    104                    105
                      A                      A                      A
 Frequencies --   1621.2724              1622.0442              1622.1161
 Red. masses --      7.5943                 6.2411                 5.3419
 Frc consts  --     11.7612                 9.6746                 8.2815
 IR Inten    --     26.7316                17.7260                 2.9426

                    106                    107                    108
                      A                      A                      A
 Frequencies --   1626.4495              1626.6267              1656.2687
 Red. masses --      5.8307                 5.8219                 9.7799
 Frc consts  --      9.0877                 9.0759                15.8069
 IR Inten    --      0.0691                 0.3448                36.6876

                    109                    110                    111
                      A                      A                      A
 Frequencies --   1716.4142              1728.9048              3057.3509
 Red. masses --     13.2040                12.5890                 1.0408
 Frc consts  --     22.9192                22.1709                 5.7320
 IR Inten    --     79.5741               328.3939                 0.0100

                    112                    113                    114
                      A                      A                      A
 Frequencies --   3057.8265              3116.9953              3117.2479
 Red. masses --      1.0404                 1.0931                 1.0928
 Frc consts  --      5.7318                 6.2573                 6.2564
 IR Inten    --      0.0146                 2.0702                 3.1810

                    115                    116                    117
                      A                      A                      A
 Frequencies --   3158.2249              3158.7140              3168.8802
 Red. masses --      1.1034                 1.1034                 1.0863
 Frc consts  --      6.4844                 6.4862                 6.4272
 IR Inten    --      5.3850                 7.6371                 0.0764

                    118                    119                    120
                      A                      A                      A
 Frequencies --   3169.1058              3181.1101              3181.4636
 Red. masses --      1.0863                 1.0898                 1.0898
 Frc consts  --      6.4282                 6.4977                 6.4990
 IR Inten    --      0.8594                 0.7407                15.9564

                    121                    122                    123
                      A                      A                      A
 Frequencies --   3189.9646              3190.3033              3201.2122
 Red. masses --      1.0945                 1.0944                 1.0948
 Frc consts  --      6.5618                 6.5628                 6.6104
 IR Inten    --      0.0135                18.3835                 0.4450

                    124                    125                    126
                      A                      A                      A
 Frequencies --   3201.3345              3216.1238              3216.3508
 Red. masses --      1.0948                 1.0936                 1.0936
 Frc consts  --      6.6110                 6.6648                 6.6657
 IR Inten    --      7.1720                 0.0234                 6.5589

 - Thermochemistry -
 -------------------
 Temperature   298.150 Kelvin.  Pressure   1.00000 Atm.
 Atom     1 has atomic number  6 and mass  12.00000

 Molecular mass:   416.03883 amu.
 Principal axes and moments of inertia in atomic units:
                           1         2         3
     Eigenvalues --  9689.99459********************
           X            0.97727   0.21180   0.00885
           Y           -0.20626   0.95971  -0.19083
           Z           -0.04891   0.18467   0.98158
 This molecule is an asymmetric top.
 Rotational symmetry number  1.
 Warning -- assumption of classical behavior for rotation
           may cause significant error
 Rotational temperatures (Kelvin)      0.00894     0.00839     0.00506
 Rotational constants (GHZ):           0.18625     0.17488     0.10553
 Zero-point vibrational energy     840659.8 (Joules/Mol)
                                  200.92251 (Kcal/Mol)
 Warning -- explicit consideration of  42 degrees of freedom as
           vibrations may cause significant error
 Vibrational temperatures:     11.93    19.77    44.52    46.04    63.08
          (Kelvin)             66.66    77.78    84.33   118.88   162.67
                              167.92   173.74   233.28   249.14   263.76
                              273.47   284.72   311.76   321.29   341.60
                              381.68   392.87   441.08   445.87   493.37
                              504.59   547.28   557.50   589.37   591.51
                              611.35   628.60   634.72   658.43   659.58
                              696.30   732.42   774.22   791.37   821.29
                              862.53   865.35   901.42   901.85   960.93
                             1008.73  1009.44  1016.60  1025.00  1051.38
                             1052.49  1099.02  1100.37  1166.46  1208.57
                             1222.86  1227.74  1353.18  1355.42  1383.34
                             1416.76  1423.58  1426.08  1450.23  1453.56
                             1459.68  1460.24  1483.83  1495.74  1496.50
                             1507.39  1533.64  1536.58  1537.61  1565.03
                             1584.11  1584.88  1601.57  1602.56  1704.15
                             1705.27  1725.28  1726.84  1732.77  1778.62
                             1830.45  1841.07  1856.13  1917.85  1918.53
                             1936.79  1937.33  2025.25  2025.87  2115.06
                             2117.01  2124.87  2125.35  2137.77  2138.59
                             2167.90  2168.25  2332.65  2333.76  2333.86
                             2340.10  2340.35  2383.00  2469.54  2487.51
                             4398.85  4399.53  4484.66  4485.02  4543.98
                             4544.68  4559.31  4559.64  4576.91  4577.42
                             4589.65  4590.13  4605.83  4606.01  4627.28
                             4627.61

 Zero-point correction=                           0.320190 (Hartree/Particle)
 Thermal correction to Energy=                    0.346233
 Thermal correction to Enthalpy=                  0.347177
 Thermal correction to Gibbs Free Energy=         0.259989
 Sum of electronic and zero-point Energies=          -2019.366255
 Sum of electronic and thermal Energies=             -2019.340212
 Sum of electronic and thermal Enthalpies=           -2019.339268
 Sum of electronic and thermal Free Energies=        -2019.426456

                     E (Thermal)             CV                S
                      KCal/Mol        Cal/Mol-Kelvin    Cal/Mol-Kelvin
 Total                  217.265             97.446            183.503
 Electronic               0.000              0.000              0.000
 Translational            0.889              2.981             43.967
 Rotational               0.889              2.981             35.790
 Vibrational            215.487             91.484            103.746
 Vibration     1          0.593              1.987              8.383
 Vibration     2          0.593              1.986              7.380
 Vibration     3          0.594              1.984              5.768
 Vibration     4          0.594              1.983              5.701
 Vibration     5          0.595              1.980              5.077
 Vibration     6          0.595              1.979              4.968
 Vibration     7          0.596              1.976              4.663
 Vibration     8          0.596              1.974              4.503
 Vibration     9          0.600              1.961              3.828
 Vibration    10          0.607              1.939              3.216
 Vibration    11          0.608              1.935              3.154
 Vibration    12          0.609              1.932              3.088
 Vibration    13          0.622              1.889              2.525
 Vibration    14          0.627              1.875              2.401
 Vibration    15          0.631              1.863              2.294
 Vibration    16          0.633              1.854              2.227
 Vibration    17          0.637              1.843              2.153
 Vibration    18          0.646              1.816              1.987
 Vibration    19          0.649              1.806              1.932
 Vibration    20          0.656              1.783              1.822
 Vibration    21          0.671              1.737              1.627
 Vibration    22          0.676              1.723              1.577
 Vibration    23          0.697              1.661              1.381
 Vibration    24          0.699              1.655              1.363
 Vibration    25          0.722              1.590              1.199
 Vibration    26          0.728              1.574              1.163
 Vibration    27          0.750              1.512              1.038
 Vibration    28          0.756              1.497              1.010
 Vibration    29          0.774              1.449              0.928
 Vibration    30          0.775              1.446              0.923
 Vibration    31          0.787              1.416              0.875
 Vibration    32          0.797              1.390              0.836
 Vibration    33          0.801              1.380              0.823
 Vibration    34          0.816              1.344              0.773
 Vibration    35          0.816              1.342              0.771
 Vibration    36          0.840              1.286              0.699
 Vibration    37          0.864              1.230              0.636
 Vibration    38          0.893              1.166              0.569
 Vibration    39          0.905              1.140              0.544
 Vibration    40          0.927              1.094              0.503
 Vibration    41          0.958              1.033              0.451
 Vibration    42          0.960              1.029              0.447

                           ! Non-Optimized Parameters !
 Normal termination of Gaussian 16 at Thu Jan 11 05:44:12 2024.
