 Q-Chem 5.4, Q-Chem, Inc., Pleasanton, CA (2021)
 Q-Chem 5.4.0 for Intel X86 EM64T Linux

User input:
--------------------------------------------------------------
$molecule
-2 1
O                  0.1263790000      0.3167840000      2.7029640000
C                  0.0673960000      0.1207190000      1.4519070000
C                 -1.1932830000      0.0534820000      0.7293370000
C                 -2.4460020000      0.2397810000      1.3735440000
C                 -3.6426520000      0.1528670000      0.6682000000
C                 -3.6443440000     -0.0737380000     -0.7108400000
C                 -2.4144260000     -0.2023950000     -1.3847870000
C                 -1.2264640000     -0.1521350000     -0.6698570000
O                 -0.0665150000     -0.3403690000     -1.3920440000
C                  1.1574360000     -0.1725590000     -0.7788930000
C                  2.2742540000     -0.2423500000     -1.5991500000
C                  3.5624990000     -0.1352450000     -1.0402790000
C                  3.6905080000      0.0899830000      0.3330340000
C                  2.5648160000      0.1965360000      1.1445210000
C                  1.2556250000      0.0323240000      0.6173370000
H                 -2.4266630000      0.4334200000      2.4397970000
H                 -4.5899780000      0.2645300000      1.1927080000
H                 -4.5782950000     -0.1493940000     -1.2615630000
H                 -2.3728450000     -0.3710770000     -2.4564600000
H                  2.1322610000     -0.4093480000     -2.6624590000
H                  4.4408590000     -0.2262500000     -1.6739150000
H                  4.6834760000      0.1849870000      0.7689050000
H                  2.6459580000      0.3894480000      2.2079920000
$end

$rem
BASIS  =  6-311++G(d,p)
GUI  =  2
JOB_TYPE  =  SP
THRESH = 14
METHOD  =  B3LYP
SCF_CONVERGENCE  = 5
SOLVENT_METHOD = sm12
$end

$smx
solvent dimethylformamide
charges CM5
$end

--------------------------------------------------------------

             Standard Nuclear Orientation (Angstroms)
    I     Atom           X                Y                Z
 ----------------------------------------------------------------
    1      O       0.1263790000     0.3167840000     2.7029640000
    2      C       0.0673960000     0.1207190000     1.4519070000
    3      C      -1.1932830000     0.0534820000     0.7293370000
    4      C      -2.4460020000     0.2397810000     1.3735440000
    5      C      -3.6426520000     0.1528670000     0.6682000000
    6      C      -3.6443440000    -0.0737380000    -0.7108400000
    7      C      -2.4144260000    -0.2023950000    -1.3847870000
    8      C      -1.2264640000    -0.1521350000    -0.6698570000
    9      O      -0.0665150000    -0.3403690000    -1.3920440000
   10      C       1.1574360000    -0.1725590000    -0.7788930000
   11      C       2.2742540000    -0.2423500000    -1.5991500000
   12      C       3.5624990000    -0.1352450000    -1.0402790000
   13      C       3.6905080000     0.0899830000     0.3330340000
   14      C       2.5648160000     0.1965360000     1.1445210000
   15      C       1.2556250000     0.0323240000     0.6173370000
   16      H      -2.4266630000     0.4334200000     2.4397970000
   17      H      -4.5899780000     0.2645300000     1.1927080000
   18      H      -4.5782950000    -0.1493940000    -1.2615630000
   19      H      -2.3728450000    -0.3710770000    -2.4564600000
   20      H       2.1322610000    -0.4093480000    -2.6624590000
   21      H       4.4408590000    -0.2262500000    -1.6739150000
   22      H       4.6834760000     0.1849870000     0.7689050000
   23      H       2.6459580000     0.3894480000     2.2079920000
 ----------------------------------------------------------------

   47    -650.7222240510      6.40e-06  Convergence criterion met
 Total energy in the final basis set =     -651.0276420663

                    Orbital Energies (a.u.)
 --------------------------------------------------------------

 Alpha MOs
 -- Occupied --
-19.2297 -19.1047 -10.2937 -10.2937 -10.2632 -10.2295 -10.2294 -10.2287
-10.2287 -10.2281 -10.2280 -10.2253 -10.2253 -10.2221 -10.2220  -1.1475
 -1.0232  -0.9145  -0.9009  -0.8259  -0.8216  -0.7980  -0.7836  -0.7071
 -0.6944  -0.6506  -0.6436  -0.6055  -0.6022  -0.5496  -0.5395  -0.5236
 -0.5141  -0.5073  -0.4873  -0.4856  -0.4708  -0.4443  -0.4435  -0.4357
 -0.4254  -0.4225  -0.4110  -0.4069  -0.3845  -0.3806  -0.3189  -0.3065
 -0.3003  -0.2776  -0.2742  -0.1471

          Ground-State Mulliken Net Atomic Charges

     Atom                 Charge (a.u.)
  ----------------------------------------
      1 O                    -0.452945
      2 C                    -0.342821
      3 C                    -0.653364
      4 C                    -1.679751
      5 C                     1.047470
      6 C                     2.369483
      7 C                     0.874673
      8 C                    -0.368186
      9 O                     0.189886
     10 C                    -0.377037
     11 C                     0.867410
     12 C                     2.387385
     13 C                     1.035494
     14 C                    -1.703023
     15 C                    -0.637058
     16 H                    -2.122680
     17 H                    -1.270567
     18 H                     0.701639
     19 H                     0.435110
     20 H                     0.436393
     21 H                     0.707199
     22 H                    -1.331447
     23 H                    -2.113262
  ----------------------------------------
  Sum of atomic charges =    -2.000000

                    Cartesian Multipole Moments
 -----------------------------------------------------------------
    Charge (ESU x 10^10)
                -9.6064
    Dipole Moment (Debye)
         X      -1.2316      Y      -4.2233      Z     -20.8829
       Tot      21.3412
    Quadrupole Moments (Debye-Ang)
        XX    -224.0118     XY       0.1651     YY    -123.7047
        XZ       1.7354     YZ     -13.7290     ZZ    -173.8051

 Total job time:  1348.92s(wall), 10050.71s(cpu)
        *  Thank you very much for using Q-Chem.  Have a nice day.  *
