 Q-Chem 5.4, Q-Chem, Inc., Pleasanton, CA (2021)
 Q-Chem 5.4.0 for Intel X86 EM64T Linux

User input:
--------------------------------------------------------------
$molecule
0 1
C                 -2.5499930000     -2.7176760000      0.3287160000
O                 -2.4324740000     -1.3435130000     -0.0899470000
C                 -1.2480470000     -0.7086870000     -0.0704490000
C                 -1.2468870000      0.6312000000      0.2244750000
O                 -2.4134140000      1.1930790000      0.5844980000
C                 -2.7278130000      2.5540960000      0.2291950000
C                  0.0208390000      1.4011120000      0.3010020000
O                  0.0324010000      2.5510430000      0.7159270000
C                  1.2818890000      0.7154950000     -0.1057320000
C                  2.4837610000      1.4237880000     -0.0928670000
C                  3.6693480000      0.7866270000     -0.4508390000
C                  3.6576570000     -0.5593080000     -0.8195270000
C                  2.4602150000     -1.2704530000     -0.8317460000
C                  1.2707360000     -0.6364010000     -0.4719750000
C                 -0.0098390000     -1.4009370000     -0.5100200000
O                 -0.0465840000     -2.5517500000     -0.9210270000
H                 -2.2792930000     -3.3970310000     -0.4764010000
H                 -1.9225560000     -2.9124320000      1.2012600000
H                 -3.5983820000     -2.8365600000      0.5998200000
H                 -2.2823420000      3.2551590000      0.9313700000
H                 -3.8152870000      2.6066180000      0.2666560000
H                 -2.3857410000      2.7796570000     -0.7832440000
H                  2.4703370000      2.4663730000      0.1997250000
H                  4.6024660000      1.3382760000     -0.4412820000
H                  4.5813880000     -1.0533000000     -1.0984630000
H                  2.4276160000     -2.3144760000     -1.1176240000
$end
$rem
MAX_SCF_CYCLES=200
BASIS  =  6-311++G(d,p)
GUI  =  2
JOB_TYPE  =  SP
METHOD  =  B3LYP
SOLVENT_METHOD = COSMO
$end
$solvent
dielectric 37.219
opticaldielectric 1.43
$end

--------------------------------------------------------------

             Standard Nuclear Orientation (Angstroms)
    I     Atom           X                Y                Z
 ----------------------------------------------------------------
    1      C      -2.6792644405    -2.5885697345     0.5070419889
    2      O      -2.4607983432    -1.3073618557    -0.1160088191
    3      C      -1.2725034757    -0.6853296577    -0.0306695365
    4      C      -1.2725517578     0.6852668528     0.0305177765
    5      O      -2.4608643655     1.3072042910     0.1154694223
    6      C      -2.6791360461     2.5887839009    -0.5069174382
    7      C      -0.0058949758     1.4496956668     0.1608222875
    8      O      -0.0186958996     2.6536998299     0.3725954015
    9      C       1.2788221530     0.6973052418     0.0651098668
   10      C       2.4875789095     1.3904752572     0.1341259499
   11      C       3.6921413128     0.6946186979     0.0666893663
   12      C       3.6921682350    -0.6945388398    -0.0669140759
   13      C       2.4876133830    -1.3904326645    -0.1341691987
   14      C       1.2788476297    -0.6973080432    -0.0650243091
   15      C      -0.0058743649    -1.4497620582    -0.1606140570
   16      O      -0.0185731054    -2.6538199358    -0.3721108166
   17      H      -2.3168445738    -3.3975707265    -0.1231836253
   18      H      -2.1897549688    -2.6342011639     1.4823564870
   19      H      -3.7588490076    -2.6532118740     0.6376897440
   20      H      -2.3176994887     3.3974435312     0.1242851361
   21      H      -3.7586081419     2.6531140863    -0.6386869696
   22      H      -2.1886117231     2.6352577511    -1.4816737238
   23      H       2.4643170844     2.4678700955     0.2411447074
   24      H       4.6307197756     1.2344265337     0.1195583278
   25      H       4.6307625319    -1.2343036110    -0.1198960179
   26      H       2.4643428484    -2.4678309751    -0.2411472935
 ----------------------------------------------------------------

    9    -764.3637717035      2.57e-06  Convergence criterion met
 Total energy in the final basis set =     -764.3637717035
    5    -764.3791154200      2.68e-06  Convergence criterion met
 Total energy in the final basis set =     -764.3791154200

                    Orbital Energies (a.u.)
 --------------------------------------------------------------

 Alpha MOs
 -- Occupied --
-19.1707 -19.1707 -19.1361 -19.1361 -10.2891 -10.2891 -10.2633 -10.2626
-10.2208 -10.2208 -10.2084 -10.2079 -10.1968 -10.1968 -10.1958 -10.1953
 -1.1027  -1.0846  -1.0655  -1.0595  -0.8909  -0.8353  -0.7804  -0.7784
 -0.7332  -0.7095  -0.6854  -0.6350  -0.6299  -0.5944  -0.5665  -0.5478
 -0.5310  -0.5011  -0.4967  -0.4948  -0.4702  -0.4681  -0.4668  -0.4537
 -0.4518  -0.4449  -0.4383  -0.4223  -0.4165  -0.3856  -0.3844  -0.3731
 -0.3716  -0.3683  -0.3406  -0.3346  -0.2867  -0.2835  -0.2807  -0.2779
 -0.2411

          Ground-State Mulliken Net Atomic Charges

     Atom                 Charge (a.u.)
  ----------------------------------------
      1 C                    -0.330342
      2 O                    -0.196201
      3 C                    -0.060062
      4 C                    -0.060985
      5 O                    -0.195690
      6 C                    -0.330275
      7 C                    -0.532525
      8 O                    -0.293291
      9 C                     0.597780
     10 C                     0.188220
     11 C                    -0.365603
     12 C                    -0.365760
     13 C                     0.188521
     14 C                     0.598060
     15 C                    -0.532431
     16 O                    -0.293291
     17 H                     0.195467
     18 H                     0.191016
     19 H                     0.175656
     20 H                     0.195514
     21 H                     0.175638
     22 H                     0.191017
     23 H                     0.199799
     24 H                     0.229989
     25 H                     0.230012
     26 H                     0.199768
  ----------------------------------------
  Sum of atomic charges =     0.000000

                    Cartesian Multipole Moments
 -----------------------------------------------------------------
    Charge (ESU x 10^10)
                 0.0000
    Dipole Moment (Debye)
         X       2.2500      Y       0.0030      Z       0.0002
       Tot       2.2500
    Quadrupole Moments (Debye-Ang)
        XX     -73.7562     XY      -0.0026     YY     -95.5210
        XZ      -0.0051     YZ      -7.5813     ZZ     -93.0847

 Total job time:  62.70s(wall), 391.41s(cpu)
        *  Thank you very much for using Q-Chem.  Have a nice day.  *
