 Gaussian 16, Revision A.03,
 Gaussian 16:  ES64L-G16RevA.03 25-Dec-2016

 --------------------------------------
 #P UB3LYP/6-311++G(d,p) nosym opt freq
 --------------------------------------

 --------
 Oxidized
 --------
 Symbolic Z-matrix:
 Charge =  0 Multiplicity = 1

 SCF Done:  E(UB3LYP) =  -764.363680322     A.U. after   16 cycles
 Optimization completed.
    -- Stationary point found.
 Normal termination of Gaussian 16 at Sun Jan  7 20:16:09 2024.

 ----------------------------------------------------------------------
 #P Geom=AllCheck Guess=TCheck SCRF=Check GenChk UB3LYP/6-311++G(d,p) F
 req
 ----------------------------------------------------------------------

 Structure from the checkpoint file:  "260.chk"
 --------
 Oxidized
 --------
 Charge =  0 Multiplicity = 1

                          Input orientation:
 ---------------------------------------------------------------------
 Center     Atomic      Atomic             Coordinates (Angstroms)
 Number     Number       Type             X           Y           Z
 ---------------------------------------------------------------------
      1          6           0       -2.549993   -2.717676    0.328716
      2          8           0       -2.432474   -1.343513   -0.089947
      3          6           0       -1.248047   -0.708687   -0.070449
      4          6           0       -1.246887    0.631200    0.224475
      5          8           0       -2.413414    1.193079    0.584498
      6          6           0       -2.727813    2.554096    0.229195
      7          6           0        0.020839    1.401112    0.301002
      8          8           0        0.032401    2.551043    0.715927
      9          6           0        1.281889    0.715495   -0.105732
     10          6           0        2.483761    1.423788   -0.092867
     11          6           0        3.669348    0.786627   -0.450839
     12          6           0        3.657657   -0.559308   -0.819527
     13          6           0        2.460215   -1.270453   -0.831746
     14          6           0        1.270736   -0.636401   -0.471975
     15          6           0       -0.009839   -1.400937   -0.510020
     16          8           0       -0.046584   -2.551750   -0.921027
     17          1           0       -2.279293   -3.397031   -0.476401
     18          1           0       -1.922556   -2.912432    1.201260
     19          1           0       -3.598382   -2.836560    0.599820
     20          1           0       -2.282342    3.255159    0.931370
     21          1           0       -3.815287    2.606618    0.266656
     22          1           0       -2.385741    2.779657   -0.783244
     23          1           0        2.470337    2.466373    0.199725
     24          1           0        4.602466    1.338276   -0.441282
     25          1           0        4.581388   -1.053300   -1.098463
     26          1           0        2.427616   -2.314476   -1.117624
 ---------------------------------------------------------------------

 SCF Done:  E(UB3LYP) =  -764.363680322     A.U. after    2 cycles

 Alpha  occ. eigenvalues --  -19.16532 -19.16529 -19.13044 -19.13043 -10.28349
 Alpha  occ. eigenvalues --  -10.28348 -10.25965 -10.25901 -10.22514 -10.22512
 Alpha  occ. eigenvalues --  -10.21003 -10.20951 -10.20271 -10.20218 -10.20041
 Alpha  occ. eigenvalues --  -10.20041  -1.09749  -1.07915  -1.05925  -1.05352
 Alpha  occ. eigenvalues --   -0.89317  -0.83475  -0.78246  -0.78114  -0.73308
 Alpha  occ. eigenvalues --   -0.71050  -0.68546  -0.63811  -0.63067  -0.59484
 Alpha  occ. eigenvalues --   -0.56541  -0.54837  -0.52910  -0.50088  -0.49740
 Alpha  occ. eigenvalues --   -0.49264  -0.47302  -0.46739  -0.46112  -0.45412
 Alpha  occ. eigenvalues --   -0.45399  -0.44365  -0.43816  -0.42026  -0.41269
 Alpha  occ. eigenvalues --   -0.39097  -0.38777  -0.37425  -0.37130  -0.36744
 Alpha  occ. eigenvalues --   -0.33541  -0.33012  -0.28786  -0.28141  -0.27651
 Alpha  occ. eigenvalues --   -0.27549  -0.23773
 Alpha virt. eigenvalues --   -0.12130  -0.05592  -0.02861  -0.01042  -0.00210
 Alpha virt. eigenvalues --    0.00421   0.01400   0.01634   0.02531   0.02609
 Alpha virt. eigenvalues --    0.02990   0.03581   0.04152   0.04642   0.05470

  Beta  occ. eigenvalues --  -19.16532 -19.16529 -19.13044 -19.13043 -10.28349
  Beta  occ. eigenvalues --  -10.28348 -10.25965 -10.25901 -10.22514 -10.22512
  Beta  occ. eigenvalues --  -10.21003 -10.20951 -10.20271 -10.20218 -10.20041
  Beta  occ. eigenvalues --  -10.20041  -1.09749  -1.07915  -1.05925  -1.05352
  Beta  occ. eigenvalues --   -0.89317  -0.83475  -0.78246  -0.78114  -0.73308
  Beta  occ. eigenvalues --   -0.71050  -0.68546  -0.63811  -0.63067  -0.59484
  Beta  occ. eigenvalues --   -0.56541  -0.54837  -0.52910  -0.50088  -0.49740
  Beta  occ. eigenvalues --   -0.49264  -0.47302  -0.46739  -0.46112  -0.45412
  Beta  occ. eigenvalues --   -0.45399  -0.44365  -0.43816  -0.42026  -0.41269
  Beta  occ. eigenvalues --   -0.39097  -0.38777  -0.37425  -0.37130  -0.36744
  Beta  occ. eigenvalues --   -0.33541  -0.33012  -0.28786  -0.28141  -0.27651
  Beta  occ. eigenvalues --   -0.27549  -0.23773
  Beta virt. eigenvalues --   -0.12130  -0.05592  -0.02861  -0.01042  -0.00210
  Beta virt. eigenvalues --    0.00421   0.01400   0.01634   0.02531   0.02609
  Beta virt. eigenvalues --    0.02990   0.03581   0.04152   0.04642   0.05470

 Mulliken charges and spin densities:
               1          2
     1  C   -0.302642   0.000000
     2  O   -0.143513  -0.000000
     3  C   -0.045413   0.000000
     4  C   -0.044576  -0.000000
     5  O   -0.143513   0.000000
     6  C   -0.302633   0.000000
     7  C   -0.642593   0.000000
     8  O   -0.226551  -0.000000
     9  C    0.619885   0.000000
    10  C    0.167840  -0.000000
    11  C   -0.298090  -0.000000
    12  C   -0.298055  -0.000000
    13  C    0.168232  -0.000000
    14  C    0.620246   0.000000
    15  C   -0.642732   0.000000
    16  O   -0.226554  -0.000000
    17  H    0.193446  -0.000000
    18  H    0.159429  -0.000000
    19  H    0.154938   0.000000
    20  H    0.193439   0.000000
    21  H    0.154943   0.000000
    22  H    0.159474  -0.000000
    23  H    0.182752   0.000000
    24  H    0.179744   0.000000
    25  H    0.179749  -0.000000
    26  H    0.182750   0.000000
 Sum of Mulliken charges =   0.00000  -0.00000

 Dipole moment (field-independent basis, Debye):
    X=              1.3096    Y=              0.0423    Z=             -0.1896  Tot=              1.3239
 Quadrupole moment (field-independent basis, Debye-Ang):
   XX=            -78.6982   YY=            -92.5727   ZZ=            -95.0981
   XY=             -0.4091   XZ=             -2.3875   YZ=             -5.8441

  Exact polarizability: 202.460   3.580 197.152 -16.891  23.032  93.491
 Approx polarizability: 286.450   6.543 377.763 -21.580  64.030 154.713

                      1                      2                      3
                      A                      A                      A
 Frequencies --     50.5249                55.0425                56.5948
 Red. masses --      7.2335                 2.3434                 3.3296
 Frc consts  --      0.0109                 0.0042                 0.0063
 IR Inten    --      4.7727                18.2749                 1.0772

                      4                      5                      6
                      A                      A                      A
 Frequencies --     78.5460               118.8630               137.3803
 Red. masses --      2.7024                 4.8375                 1.4958
 Frc consts  --      0.0098                 0.0403                 0.0166
 IR Inten    --      0.0016                 0.0188                 0.0687

                      7                      8                      9
                      A                      A                      A
 Frequencies --    160.7111               180.6850               208.4955
 Red. masses --      1.3324                 4.2750                 3.1640
 Frc consts  --      0.0203                 0.0822                 0.0810
 IR Inten    --      0.6737                 4.5028                 1.0512

                     10                     11                     12
                      A                      A                      A
 Frequencies --    216.6160               289.0804               314.8886
 Red. masses --      4.0414                 4.8974                 8.4492
 Frc consts  --      0.1117                 0.2411                 0.4936
 IR Inten    --      5.4791                 7.7218                 2.3127

                     13                     14                     15
                      A                      A                      A
 Frequencies --    336.1308               391.0220               397.5631
 Red. masses --      5.5805                 7.5991                 9.3162
 Frc consts  --      0.3715                 0.6846                 0.8676
 IR Inten    --      0.1291                 0.6971                27.6869

                     16                     17                     18
                      A                      A                      A
 Frequencies --    418.1812               421.4878               447.6527
 Red. masses --      4.1707                 7.0913                 5.4543
 Frc consts  --      0.4297                 0.7422                 0.6440
 IR Inten    --      2.7534                 1.6617                 0.2453

                     19                     20                     21
                      A                      A                      A
 Frequencies --    452.3461               495.9739               603.4364
 Red. masses --      4.5574                 9.1961                 6.7069
 Frc consts  --      0.5494                 1.3328                 1.4389
 IR Inten    --     11.2310                 0.9138                 0.0134

                     22                     23                     24
                      A                      A                      A
 Frequencies --    607.8515               673.4021               705.4985
 Red. masses --      7.1785                 6.5504                 5.6659
 Frc consts  --      1.5627                 1.7501                 1.6615
 IR Inten    --      5.0079                 9.9150                 0.8568

                     25                     26                     27
                      A                      A                      A
 Frequencies --    727.4886               738.7052               784.5327
 Red. masses --      3.0437                 4.8818                 6.9854
 Frc consts  --      0.9491                 1.5695                 2.5332
 IR Inten    --     48.2035                17.7461                 0.0473

                     28                     29                     30
                      A                      A                      A
 Frequencies --    804.9067               899.4458               914.5067
 Red. masses --      1.8156                 8.2247                 1.3556
 Frc consts  --      0.6931                 3.9203                 0.6680
 IR Inten    --     24.7824                36.5423                 0.1922

                     31                     32                     33
                      A                      A                      A
 Frequencies --    931.6744               937.1416               997.9241
 Red. masses --      6.7040                 7.2876                 1.3805
 Frc consts  --      3.4286                 3.7709                 0.8100
 IR Inten    --     73.9161                52.0604                 1.8427

                     34                     35                     36
                      A                      A                      A
 Frequencies --   1014.1045              1026.0861              1063.0676
 Red. masses --      1.3168                 7.5596                 2.0023
 Frc consts  --      0.7979                 4.6894                 1.3332
 IR Inten    --      0.0314               126.8044                30.9049

                     37                     38                     39
                      A                      A                      A
 Frequencies --   1111.3115              1143.2343              1160.9583
 Red. masses --      2.3354                 5.4223                 1.2463
 Frc consts  --      1.6994                 4.1755                 0.9897
 IR Inten    --      1.3221                56.7771                 0.2803

                     40                     41                     42
                      A                      A                      A
 Frequencies --   1161.4044              1179.5518              1187.8548
 Red. masses --      1.2790                 1.2325                 1.3682
 Frc consts  --      1.0165                 1.0103                 1.1374
 IR Inten    --     17.9297                29.5690                 1.9134

                     43                     44                     45
                      A                      A                      A
 Frequencies --   1188.3814              1231.0196              1244.2406
 Red. masses --      1.5115                 2.0864                 3.3184
 Frc consts  --      1.2577                 1.8629                 3.0268
 IR Inten    --     58.5846                68.8388               426.6080

                     46                     47                     48
                      A                      A                      A
 Frequencies --   1296.4378              1326.4734              1348.4781
 Red. masses --      2.0281                 4.4844                 7.0769
 Frc consts  --      2.0083                 4.6489                 7.5819
 IR Inten    --    217.9090               424.6663                 0.0006

                     49                     50                     51
                      A                      A                      A
 Frequencies --   1375.3382              1471.6693              1480.9412
 Red. masses --      7.2417                 1.2312                 1.5972
 Frc consts  --      8.0707                 1.5711                 2.0639
 IR Inten    --      9.9660                19.7428                26.7865

                     52                     53                     54
                      A                      A                      A
 Frequencies --   1483.0332              1487.1442              1489.5165
 Red. masses --      1.5054                 1.0560                 1.1034
 Frc consts  --      1.9507                 1.3760                 1.4424
 IR Inten    --     35.5775                 2.2982                21.1230

                     55                     56                     57
                      A                      A                      A
 Frequencies --   1497.2190              1498.2157              1507.8360
 Red. masses --      1.0493                 1.0498                 2.5947
 Frc consts  --      1.3859                 1.3883                 3.4757
 IR Inten    --     19.6572                47.8358                 5.5563

                     58                     59                     60
                      A                      A                      A
 Frequencies --   1604.4805              1626.9415              1634.2006
 Red. masses --      7.0213                 5.9440                 8.3355
 Frc consts  --     10.6497                 9.2699                13.1157
 IR Inten    --    139.9733                88.2810               126.5796

                     61                     62                     63
                      A                      A                      A
 Frequencies --   1704.8341              1705.5358              3042.9899
 Red. masses --     11.8481                12.3658                 1.0326
 Frc consts  --     20.2891                21.1931                 5.6333
 IR Inten    --    484.8809                16.2115                98.8808

                     64                     65                     66
                      A                      A                      A
 Frequencies --   3043.7862              3123.4146              3123.5436
 Red. masses --      1.0329                 1.1024                 1.1023
 Frc consts  --      5.6379                 6.3366                 6.3366
 IR Inten    --     23.5827                21.8990                39.8218

                     67                     68                     69
                      A                      A                      A
 Frequencies --   3149.9844              3150.0878              3170.7081
 Red. masses --      1.1072                 1.1072                 1.0869
 Frc consts  --      6.4727                 6.4731                 6.4381
 IR Inten    --     11.2908                 8.5004                 3.5449

                     70                     71                     72
                      A                      A                      A
 Frequencies --   3185.0696              3199.9586              3202.5892
 Red. masses --      1.0918                 1.0925                 1.0950
 Frc consts  --      6.5255                 6.5908                 6.6171
 IR Inten    --      9.5033                 0.4753                 9.4223

 - Thermochemistry -
 -------------------
 Temperature   298.150 Kelvin.  Pressure   1.00000 Atm.
 Atom     1 has atomic number  6 and mass  12.00000

 Molecular mass:   218.05791 amu.
 Principal axes and moments of inertia in atomic units:
                           1         2         3
     Eigenvalues --  2345.058443720.407485939.64868
           X            0.98918  -0.00359   0.14664
           Y            0.03068   0.98265  -0.18291
           Z           -0.14344   0.18543   0.97213
 This molecule is an asymmetric top.
 Rotational symmetry number  1.
 Warning -- assumption of classical behavior for rotation
           may cause significant error
 Rotational temperatures (Kelvin)      0.03693     0.02328     0.01458
 Rotational constants (GHZ):           0.76959     0.48509     0.30385
 Zero-point vibrational energy     515566.2 (Joules/Mol)
                                  123.22329 (Kcal/Mol)
 Warning -- explicit consideration of  22 degrees of freedom as
           vibrations may cause significant error
 Vibrational temperatures:     72.69    79.19    81.43   113.01   171.02
          (Kelvin)            197.66   231.23   259.97   299.98   311.66
                              415.92   453.05   483.62   562.59   572.00
                              601.67   606.43   644.07   650.83   713.60
                              868.21   874.56   968.88  1015.05  1046.69
                             1062.83  1128.77  1158.08  1294.10  1315.77
                             1340.47  1348.34  1435.79  1459.07  1476.31
                             1529.52  1598.93  1644.86  1670.36  1671.00
                             1697.11  1709.06  1709.82  1771.16  1790.18
                             1865.28  1908.50  1940.16  1978.80  2117.40
                             2130.74  2133.75  2139.67  2143.08  2154.16
                             2155.60  2169.44  2308.49  2340.81  2351.25
                             2452.88  2453.89  4378.18  4379.33  4493.90
                             4494.08  4532.12  4532.27  4561.94  4582.60
                             4604.03  4607.81

 Zero-point correction=                           0.196369 (Hartree/Particle)
 Thermal correction to Energy=                    0.210801
 Thermal correction to Enthalpy=                  0.211745
 Thermal correction to Gibbs Free Energy=         0.154170
 Sum of electronic and zero-point Energies=           -764.167312
 Sum of electronic and thermal Energies=              -764.152879
 Sum of electronic and thermal Enthalpies=            -764.151935
 Sum of electronic and thermal Free Energies=         -764.209510

                     E (Thermal)             CV                S
                      KCal/Mol        Cal/Mol-Kelvin    Cal/Mol-Kelvin
 Total                  132.280             53.087            121.177
 Electronic               0.000              0.000              0.000
 Translational            0.889              2.981             42.042
 Rotational               0.889              2.981             32.316
 Vibrational            130.502             47.125             46.819
 Vibration     1          0.595              1.977              4.797
 Vibration     2          0.596              1.976              4.627
 Vibration     3          0.596              1.975              4.573
 Vibration     4          0.600              1.964              3.927
 Vibration     5          0.609              1.934              3.119
 Vibration     6          0.614              1.916              2.840
 Vibration     7          0.622              1.891              2.541
 Vibration     8          0.630              1.866              2.321
 Vibration     9          0.642              1.828              2.057
 Vibration    10          0.645              1.816              1.987
 Vibration    11          0.686              1.694              1.479
 Vibration    12          0.702              1.645              1.337
 Vibration    13          0.717              1.603              1.230
 Vibration    14          0.759              1.489              0.996
 Vibration    15          0.764              1.475              0.972
 Vibration    16          0.781              1.431              0.898
 Vibration    17          0.784              1.424              0.887
 Vibration    18          0.807              1.366              0.803
 Vibration    19          0.811              1.356              0.789
 Vibration    20          0.852              1.259              0.668
 Vibration    21          0.962              1.025              0.444
 Vibration    22          0.967              1.015              0.436

                           ! Non-Optimized Parameters !
 Normal termination of Gaussian 16 at Sun Jan  7 20:52:42 2024.
