 Gaussian 16, Revision A.03,
 Gaussian 16:  ES64L-G16RevA.03 25-Dec-2016

 ----------------------------------------------------------------------
 #P UB3LYP/6-311++G(d,p) nosym opt freq SCRF=(PCM,Solvent=n,n-DiMethylF
 ormamide)
 ----------------------------------------------------------------------

 -------
 Radical
 -------
 Symbolic Z-matrix:
 Charge = -1 Multiplicity = 2

 SCF Done:  E(UB3LYP) =  -1300.97483345     A.U. after   21 cycles
 SCF Done:  E(UB3LYP) =  -1300.97496661     A.U. after   15 cycles
 SCF Done:  E(UB3LYP) =  -1300.97499110     A.U. after   15 cycles
 Optimization completed.
    -- Stationary point found.
 Normal termination of Gaussian 16 at Sat Feb 10 10:08:39 2024.

 ----------------------------------------------------------------------
 #P Geom=AllCheck Guess=TCheck SCRF=Check GenChk UB3LYP/6-311++G(d,p) F
 req
 ----------------------------------------------------------------------

 Structure from the checkpoint file:  "011-rad.chk"
 -------
 Radical
 -------
 Charge = -1 Multiplicity = 2

                          Input orientation:
 ---------------------------------------------------------------------
 Center     Atomic      Atomic             Coordinates (Angstroms)
 Number     Number       Type             X           Y           Z
 ---------------------------------------------------------------------
      1         17           0        2.999389   -0.854620   -0.187751
      2          6           0        1.315437   -0.334407   -0.081320
      3          6           0        1.031829    0.998498   -0.025949
      4          6           0       -0.332547    1.470552    0.062047
      5          8           0       -0.611396    2.703251    0.113544
      6          6           0       -1.359965    0.452845    0.087248
      7          6           0       -1.042401   -0.872356    0.030769
      8         17           0       -2.337537   -2.071788    0.067080
      9          6           0        0.314820   -1.392161   -0.059608
     10          8           0        0.591030   -2.614051   -0.112662
     11          1           0        1.823055    1.737998   -0.046339
     12          1           0       -2.391715    0.776239    0.152940
 ---------------------------------------------------------------------

 SCF Done:  E(UB3LYP) =  -1300.97499110     A.U. after    1 cycles

 Alpha  occ. eigenvalues -- -101.55423-101.55421 -19.09463 -19.09029 -10.24721
 Alpha  occ. eigenvalues --  -10.23739 -10.23610 -10.23607 -10.18085 -10.18083
 Alpha  occ. eigenvalues --   -9.46873  -9.46871  -7.23310  -7.23307  -7.22390
 Alpha  occ. eigenvalues --   -7.22388  -7.22320  -7.22318  -1.02253  -1.01039
 Alpha  occ. eigenvalues --   -0.88373  -0.87107  -0.80829  -0.73697  -0.69849
 Alpha  occ. eigenvalues --   -0.60337  -0.58287  -0.50557  -0.48708  -0.45827
 Alpha  occ. eigenvalues --   -0.43764  -0.43652  -0.42268  -0.40164  -0.39203
 Alpha  occ. eigenvalues --   -0.38726  -0.36572  -0.34164  -0.32208  -0.31513
 Alpha  occ. eigenvalues --   -0.28612  -0.26303  -0.25763  -0.25403  -0.17839
 Alpha virt. eigenvalues --   -0.02638  -0.00567   0.00574   0.01478   0.01785
 Alpha virt. eigenvalues --    0.02485   0.02995   0.04960   0.04972   0.05793
 Alpha virt. eigenvalues --    0.06952   0.07843   0.08453   0.08920   0.09083

  Beta  occ. eigenvalues -- -101.55421-101.55419 -19.08764 -19.08295 -10.24576
  Beta  occ. eigenvalues --  -10.23639 -10.23511 -10.23509 -10.17958 -10.17956
  Beta  occ. eigenvalues --   -9.46872  -9.46869  -7.23314  -7.23312  -7.22377
  Beta  occ. eigenvalues --   -7.22375  -7.22320  -7.22318  -1.01062  -0.99756
  Beta  occ. eigenvalues --   -0.88011  -0.87014  -0.80442  -0.73445  -0.68789
  Beta  occ. eigenvalues --   -0.59927  -0.57866  -0.50336  -0.48276  -0.45545
  Beta  occ. eigenvalues --   -0.43576  -0.42152  -0.41574  -0.39672  -0.38524
  Beta  occ. eigenvalues --   -0.36429  -0.36300  -0.32798  -0.32162  -0.31470
  Beta  occ. eigenvalues --   -0.25757  -0.25645  -0.25079  -0.24729
  Beta virt. eigenvalues --   -0.10575  -0.01189  -0.00460   0.00628   0.01799
  Beta virt. eigenvalues --    0.02522   0.03066   0.03758   0.05028   0.05255
  Beta virt. eigenvalues --    0.05855   0.06995   0.07931   0.08617   0.08926

 Mulliken charges and spin densities:
               1          2
     1  Cl   0.213222   0.002976
     2  C    1.090814   0.078328
     3  C   -0.426524   0.088162
     4  C   -0.696280   0.112291
     5  O   -0.479267   0.256877
     6  C   -0.426672   0.088124
     7  C    1.092262   0.078295
     8  Cl   0.213102   0.002978
     9  C   -1.612550   0.052833
    10  O   -0.376622   0.254132
    11  H    0.204234  -0.007500
    12  H    0.204280  -0.007497
 Sum of Mulliken charges =  -1.00000   1.00000

 Dipole moment (field-independent basis, Debye):
    X=             -0.4330    Y=              1.9104    Z=              0.0861  Tot=              1.9607
 Quadrupole moment (field-independent basis, Debye-Ang):
   XX=            -81.7680   YY=           -112.3938   ZZ=            -73.9701
   XY=              7.2879   XZ=              0.6518   YZ=             -1.5588

  Exact polarizability: 182.786 -14.056 242.729  -6.146   5.723  78.016
 Approx polarizability: 188.660 -22.493 283.864  -6.185   7.109  88.045

                      1                      2                      3
                      A                      A                      A
 Frequencies --     85.6569               159.6785               196.7283
 Red. masses --     17.9838                11.9431                22.6432
 Frc consts  --      0.0777                 0.1794                 0.5163
 IR Inten    --      8.4851                11.6438                 1.2604

                      4                      5                      6
                      A                      A                      A
 Frequencies --    197.2735               256.4579               329.6880
 Red. masses --      5.0692                16.6006                19.2561
 Frc consts  --      0.1162                 0.6433                 1.2332
 IR Inten    --      0.0035                 0.0543                 1.6668

                      7                      8                      9
                      A                      A                      A
 Frequencies --    342.5397               364.6449               451.4837
 Red. masses --      6.5008                19.7536                 8.0297
 Frc consts  --      0.4494                 1.5475                 0.9643
 IR Inten    --      0.3007                 0.7203                32.4209

                     10                     11                     12
                      A                      A                      A
 Frequencies --    485.2692               492.9805               629.6275
 Red. masses --      5.2579                13.8195                 5.9001
 Frc consts  --      0.7295                 1.9788                 1.3781
 IR Inten    --      0.0003                 0.0164                 8.3311

                     13                     14                     15
                      A                      A                      A
 Frequencies --    642.1153               755.5586               760.5238
 Red. masses --      3.0376                11.7116                 8.4133
 Frc consts  --      0.7379                 3.9392                 2.8671
 IR Inten    --      1.1955               195.6309                 6.8783

                     16                     17                     18
                      A                      A                      A
 Frequencies --    816.1930               854.2725               872.6031
 Red. masses --      6.7219                 1.3350                 1.6887
 Frc consts  --      2.6383                 0.5740                 0.7576
 IR Inten    --     92.7643                 0.0022                74.4061

                     19                     20                     21
                      A                      A                      A
 Frequencies --    919.1895              1023.3174              1131.2486
 Red. masses --      5.9205                 3.0735                 3.8523
 Frc consts  --      2.9473                 1.8963                 2.9046
 IR Inten    --     55.5988               238.1475                65.4521

                     22                     23                     24
                      A                      A                      A
 Frequencies --   1233.4947              1301.2842              1387.4713
 Red. masses --      1.8099                 1.7853                 6.3773
 Frc consts  --      1.6225                 1.7812                 7.2333
 IR Inten    --     13.2485                 0.2188               147.2893

                     25                     26                     27
                      A                      A                      A
 Frequencies --   1488.2752              1497.1727              1527.0055
 Red. masses --      6.2185                10.5240                10.3207
 Frc consts  --      8.1152                13.8988                14.1788
 IR Inten    --      0.4724               524.4845               892.5398

                     28                     29                     30
                      A                      A                      A
 Frequencies --   1623.8128              3189.5487              3190.7123
 Red. masses --      8.2450                 1.0918                 1.0917
 Frc consts  --     12.8090                 6.5442                 6.5486
 IR Inten    --     25.8543                 2.9678                 6.4706

 - Thermochemistry -
 -------------------
 Temperature   298.150 Kelvin.  Pressure   1.00000 Atm.
 Atom     1 has atomic number 17 and mass  34.96885

 Molecular mass:   175.94318 amu.
 Principal axes and moments of inertia in atomic units:
                           1         2         3
     Eigenvalues --  1499.996052163.483893663.47826
           X            0.97395  -0.22015   0.05440
           Y            0.22196   0.97460  -0.02974
           Z           -0.04647   0.04104   0.99808
 This molecule is an asymmetric top.
 Rotational symmetry number  1.
 Warning -- assumption of classical behavior for rotation
           may cause significant error
 Rotational temperatures (Kelvin)      0.05774     0.04003     0.02364
 Rotational constants (GHZ):           1.20316     0.83418     0.49263
 Zero-point vibrational energy     168708.3 (Joules/Mol)
                                   40.32226 (Kcal/Mol)
 Warning -- explicit consideration of  11 degrees of freedom as
           vibrations may cause significant error
 Vibrational temperatures:    123.24   229.74   283.05   283.83   368.99
          (Kelvin)            474.35   492.84   524.64   649.58   698.19
                              709.29   905.89   923.86  1087.08  1094.22
                             1174.32  1229.11  1255.48  1322.51  1472.33
                             1627.61  1774.72  1872.26  1996.26  2141.30
                             2154.10  2197.02  2336.30  4589.05  4590.72

 Zero-point correction=                           0.064258 (Hartree/Particle)
 Thermal correction to Energy=                    0.072734
 Thermal correction to Enthalpy=                  0.073678
 Thermal correction to Gibbs Free Energy=         0.029082
 Sum of electronic and zero-point Energies=          -1300.910733
 Sum of electronic and thermal Energies=             -1300.902257
 Sum of electronic and thermal Enthalpies=           -1300.901313
 Sum of electronic and thermal Free Energies=        -1300.945909

                     E (Thermal)             CV                S
                      KCal/Mol        Cal/Mol-Kelvin    Cal/Mol-Kelvin
 Total                   45.641             30.790             93.862
 Electronic               0.000              0.000              1.377
 Translational            0.889              2.981             41.402
 Rotational               0.889              2.981             30.853
 Vibrational             43.864             24.828             20.229
 Vibration     1          0.601              1.959              3.757
 Vibration     2          0.622              1.892              2.554
 Vibration     3          0.636              1.844              2.163
 Vibration     4          0.637              1.844              2.158
 Vibration     5          0.666              1.752              1.686
 Vibration     6          0.712              1.616              1.262
 Vibration     7          0.722              1.590              1.200
 Vibration     8          0.738              1.545              1.102
 Vibration     9          0.810              1.358              0.791
 Vibration    10          0.841              1.283              0.696
 Vibration    11          0.849              1.266              0.676

 Optimization completed.
    -- Stationary point found.
 Normal termination of Gaussian 16 at Sat Feb 10 10:17:46 2024.
