 Gaussian 16, Revision A.03,
 Gaussian 16:  ES64L-G16RevA.03 25-Dec-2016

 --------------------------------------
 #P UB3LYP/6-311++G(d,p) nosym opt freq
 --------------------------------------

 -------
 Radical
 -------
 Symbolic Z-matrix:
 Charge = -1 Multiplicity = 2

 SCF Done:  E(UB3LYP) =  -1012.19953654     A.U. after   25 cycles
 Optimization completed.
    -- Stationary point found.
 Normal termination of Gaussian 16 at Mon Jan  8 01:31:59 2024.

 ----------------------------------------------------------------------
 #P Geom=AllCheck Guess=TCheck SCRF=Check GenChk UB3LYP/6-311++G(d,p) F
 req
 ----------------------------------------------------------------------

 Structure from the checkpoint file:  "277-rad.chk"
 -------
 Radical
 -------
 Charge = -1 Multiplicity = 2

                          Input orientation:
 ---------------------------------------------------------------------
 Center     Atomic      Atomic             Coordinates (Angstroms)
 Number     Number       Type             X           Y           Z
 ---------------------------------------------------------------------
      1          6           0       -0.220238    3.925166    0.265516
      2          6           0       -1.432200    3.444319    0.728495
      3          6           0       -1.669764    2.056463    0.762336
      4          6           0        0.788469    3.045175   -0.173744
      5          6           0        0.549021    1.650625   -0.142069
      6          6           0       -0.691399    1.178480    0.331074
      7          6           0        2.060506    3.595462   -0.675057
      8          6           0        3.059627    2.619568   -1.069596
      9          6           0        2.836489    1.241693   -1.040823
     10          6           0        1.569773    0.693477   -0.593295
     11          8           0        2.239270    4.838059   -0.742464
     12          8           0        1.344463   -0.547905   -0.572145
     13          1           0       -0.009619    4.987559    0.223936
     14          1           0       -2.199762    4.135199    1.065177
     15          1           0       -2.620970    1.677222    1.124638
     16          1           0       -0.845885    0.105702    0.342601
     17         16           0        4.608908    3.235773   -1.739565
     18          6           0        5.187871    4.397658   -0.445225
     19          6           0        3.877112    0.241608   -1.475799
     20          1           0        6.135471    4.804817   -0.805871
     21          1           0        5.357201    3.868305    0.494408
     22          1           0        4.451927    5.187486   -0.312752
     23          1           0        3.957624    0.193443   -2.569518
     24          1           0        3.588881   -0.748745   -1.122617
     25          1           0        4.867385    0.510594   -1.100412
 ---------------------------------------------------------------------

 SCF Done:  E(UB3LYP) =  -1012.19953654     A.U. after    2 cycles

 Alpha  occ. eigenvalues --  -88.71715 -18.94425 -18.94397 -10.09668 -10.09098
 Alpha  occ. eigenvalues --  -10.07114 -10.06484 -10.05864 -10.05812 -10.05115
 Alpha  occ. eigenvalues --  -10.05097 -10.05054 -10.04967 -10.04894 -10.03412
 Alpha  occ. eigenvalues --   -7.80297  -5.76701  -5.76319  -5.75677  -0.87173
 Alpha  occ. eigenvalues --   -0.86749  -0.73726  -0.70027  -0.65309  -0.63034
 Alpha  occ. eigenvalues --   -0.62935  -0.57966  -0.53968  -0.52136  -0.47864
 Alpha  occ. eigenvalues --   -0.46281  -0.42973  -0.39032  -0.37044  -0.34306
 Alpha  occ. eigenvalues --   -0.33113  -0.31432  -0.30762  -0.30422  -0.30183
 Alpha  occ. eigenvalues --   -0.29056  -0.28096  -0.27372  -0.26562  -0.26162
 Alpha  occ. eigenvalues --   -0.24621  -0.24284  -0.23354  -0.22565  -0.21616
 Alpha  occ. eigenvalues --   -0.19628  -0.14553  -0.13510  -0.13297  -0.11513
 Alpha  occ. eigenvalues --   -0.10555  -0.09579  -0.02331
 Alpha virt. eigenvalues --    0.08205   0.08326   0.08981   0.09888   0.10224
 Alpha virt. eigenvalues --    0.10523   0.11568   0.12054   0.13130   0.13357
 Alpha virt. eigenvalues --    0.13725   0.15051   0.15381   0.15609   0.16278

  Beta  occ. eigenvalues --  -88.71714 -18.93833 -18.93708 -10.09540 -10.08973
  Beta  occ. eigenvalues --  -10.07105 -10.06358 -10.05831 -10.05777 -10.05104
  Beta  occ. eigenvalues --  -10.05056 -10.04917 -10.04906 -10.04835 -10.03427
  Beta  occ. eigenvalues --   -7.80295  -5.76704  -5.76321  -5.75666  -0.86142
  Beta  occ. eigenvalues --   -0.85563  -0.73537  -0.69633  -0.65109  -0.62842
  Beta  occ. eigenvalues --   -0.62779  -0.57663  -0.53525  -0.51814  -0.47757
  Beta  occ. eigenvalues --   -0.45950  -0.42734  -0.38810  -0.36821  -0.34099
  Beta  occ. eigenvalues --   -0.32985  -0.31313  -0.30694  -0.30181  -0.29645
  Beta  occ. eigenvalues --   -0.28781  -0.27621  -0.26765  -0.26290  -0.25866
  Beta  occ. eigenvalues --   -0.24457  -0.23332  -0.22117  -0.21432  -0.21251
  Beta  occ. eigenvalues --   -0.19338  -0.13133  -0.12726  -0.11993  -0.10878
  Beta  occ. eigenvalues --   -0.09976  -0.08913
  Beta virt. eigenvalues --    0.04222   0.08234   0.08498   0.09460   0.10008
  Beta virt. eigenvalues --    0.10287   0.11366   0.11581   0.12069   0.13153
  Beta virt. eigenvalues --    0.13365   0.13736   0.15083   0.15409   0.15718

 Mulliken charges and spin densities:
               1          2
     1  C   -0.009484   0.021512
     2  C   -0.309655   0.031147
     3  C   -0.379849   0.022812
     4  C    1.061742   0.054384
     5  C    0.644531   0.031133
     6  C    0.033572   0.023066
     7  C   -1.811380   0.070121
     8  C    1.211342   0.063531
     9  C    0.753001   0.137408
    10  C   -1.605820   0.059907
    11  O   -0.361250   0.219923
    12  O   -0.364580   0.256139
    13  H    0.160880  -0.001958
    14  H    0.125375  -0.002375
    15  H    0.124144  -0.002152
    16  H    0.156866  -0.002402
    17  S   -0.612302   0.008845
    18  C   -0.586157   0.003792
    19  C   -0.157101  -0.008814
    20  H    0.120235   0.002528
    21  H    0.141286   0.000803
    22  H    0.204545  -0.001715
    23  H    0.143156   0.009708
    24  H    0.189580  -0.001416
    25  H    0.127321   0.004072
 Sum of Mulliken charges =  -1.00000   1.00000

 Dipole moment (field-independent basis, Debye):
    X=             -8.9980    Y=            -10.4998    Z=              4.0667  Tot=             14.4135
 Quadrupole moment (field-independent basis, Debye-Ang):
   XX=           -127.7006   YY=           -152.3060   ZZ=           -107.6617
   XY=            -23.6092   XZ=             13.4935   YZ=             11.8526

  Exact polarizability: 254.275  13.807 218.692 -50.417   6.633 126.608
 Approx polarizability: 354.497  23.815 398.317 -68.430   7.323 198.271

                      1                      2                      3
                      A                      A                      A
 Frequencies --     55.8693                68.2100                82.0921
 Red. masses --      5.5174                 3.4714                 1.4349
 Frc consts  --      0.0101                 0.0095                 0.0057
 IR Inten    --      3.4851                 1.8680                 1.8620

                      4                      5                      6
                      A                      A                      A
 Frequencies --    100.3697               134.9151               149.8582
 Red. masses --      1.9453                 3.9979                 1.1661
 Frc consts  --      0.0115                 0.0429                 0.0154
 IR Inten    --      2.2918                 0.4044                 0.1265

                      7                      8                      9
                      A                      A                      A
 Frequencies --    184.1939               189.4310               242.4203
 Red. masses --      5.7630                 4.3527                 4.8649
 Frc consts  --      0.1152                 0.0920                 0.1684
 IR Inten    --      2.2882                 1.7714                 1.7033

                     10                     11                     12
                      A                      A                      A
 Frequencies --    276.6997               297.8222               329.5478
 Red. masses --      4.5294                 5.8078                 5.1518
 Frc consts  --      0.2043                 0.3035                 0.3296
 IR Inten    --      2.6297                 1.1931                 0.5049

                     13                     14                     15
                      A                      A                      A
 Frequencies --    364.8560               389.6637               416.0617
 Red. masses --      4.9442                 8.7238                 6.6769
 Frc consts  --      0.3878                 0.7804                 0.6810
 IR Inten    --      0.2627                10.9383                 2.5331

                     16                     17                     18
                      A                      A                      A
 Frequencies --    426.7596               448.2541               501.9808
 Red. masses --      6.4720                 3.4112                10.6858
 Frc consts  --      0.6945                 0.4038                 1.5865
 IR Inten    --      1.1138                 0.9393                 0.5212

                     19                     20                     21
                      A                      A                      A
 Frequencies --    528.9741               572.7848               662.0565
 Red. masses --      4.7050                 6.5745                 6.2695
 Frc consts  --      0.7757                 1.2709                 1.6191
 IR Inten    --      0.1862                 9.4115                 7.3245

                     22                     23                     24
                      A                      A                      A
 Frequencies --    681.4502               687.2012               697.8361
 Red. masses --      5.2376                 5.9965                 4.9985
 Frc consts  --      1.4330                 1.6684                 1.4342
 IR Inten    --      0.6595                 0.8415                 9.1031

                     25                     26                     27
                      A                      A                      A
 Frequencies --    700.4542               778.9020               790.7916
 Red. masses --      2.9037                 1.7314                 4.8922
 Frc consts  --      0.8394                 0.6189                 1.8025
 IR Inten    --     45.4491                27.0506                 0.1073

                     28                     29                     30
                      A                      A                      A
 Frequencies --    812.7433               848.9870               873.6088
 Red. masses --      6.0705                 4.6859                 1.4510
 Frc consts  --      2.3626                 1.9900                 0.6524
 IR Inten    --     29.2574                 3.4788                 0.0290

                     31                     32                     33
                      A                      A                      A
 Frequencies --    967.8908               972.9590               980.3925
 Red. masses --      1.1896                 5.1227                 1.3642
 Frc consts  --      0.6566                 2.8572                 0.7725
 IR Inten    --     15.1555                 9.1906                 2.9640

                     34                     35                     36
                      A                      A                      A
 Frequencies --    982.8956               990.6147              1036.5957
 Red. masses --      1.2558                 1.3325                 1.8954
 Frc consts  --      0.7148                 0.7704                 1.2000
 IR Inten    --      0.0503                 7.9397                13.3215

                     37                     38                     39
                      A                      A                      A
 Frequencies --   1039.6099              1047.1503              1108.9270
 Red. masses --      2.0253                 1.5485                 2.0431
 Frc consts  --      1.2897                 1.0004                 1.4803
 IR Inten    --     22.0852                12.4968                14.6283

                     40                     41                     42
                      A                      A                      A
 Frequencies --   1134.8297              1151.8880              1205.2527
 Red. masses --      2.9872                 1.5542                 2.2716
 Frc consts  --      2.2666                 1.2150                 1.9441
 IR Inten    --      2.3541                 8.3847                 1.9497

                     43                     44                     45
                      A                      A                      A
 Frequencies --   1222.8062              1262.8113              1322.7795
 Red. masses --      3.0687                 2.0499                 1.1699
 Frc consts  --      2.7034                 1.9260                 1.2060
 IR Inten    --     21.2137                39.1286                 3.7643

                     46                     47                     48
                      A                      A                      A
 Frequencies --   1357.4136              1364.7311              1389.5055
 Red. masses --      7.5034                 2.8427                 1.4546
 Frc consts  --      8.1457                 3.1195                 1.6547
 IR Inten    --      3.5991                 9.2778                60.9809

                     49                     50                     51
                      A                      A                      A
 Frequencies --   1448.3917              1450.9366              1462.5312
 Red. masses --      2.7664                 1.2163                 1.7126
 Frc consts  --      3.4193                 1.5087                 2.1584
 IR Inten    --     48.0301                71.9381                51.1867

                     52                     53                     54
                      A                      A                      A
 Frequencies --   1475.8801              1486.8495              1499.8713
 Red. masses --      1.4766                 2.3541                 1.0627
 Frc consts  --      1.8950                 3.0663                 1.4085
 IR Inten    --      3.5457                10.9228                16.4580

                     55                     56                     57
                      A                      A                      A
 Frequencies --   1505.0439              1524.1476              1541.3484
 Red. masses --      1.3842                 5.0725                 6.6297
 Frc consts  --      1.8473                 6.9426                 9.2800
 IR Inten    --     19.1089               357.8679                38.4183

                     58                     59                     60
                      A                      A                      A
 Frequencies --   1608.0138              1627.7879              2997.7058
 Red. masses --      7.9953                 6.0278                 1.0523
 Frc consts  --     12.1805                 9.4102                 5.5716
 IR Inten    --     21.0867                 6.7711                72.6455

                     61                     62                     63
                      A                      A                      A
 Frequencies --   3026.5940              3059.6124              3100.9404
 Red. masses --      1.0303                 1.0812                 1.1047
 Frc consts  --      5.5603                 5.9632                 6.2587
 IR Inten    --     94.5819                31.1274                25.9102

                     64                     65                     66
                      A                      A                      A
 Frequencies --   3115.8537              3132.5378              3144.7601
 Red. masses --      1.1001                 1.0847                 1.1046
 Frc consts  --      6.2924                 6.2713                 6.4362
 IR Inten    --      7.9891                15.7787                 2.2432

                     67                     68                     69
                      A                      A                      A
 Frequencies --   3151.9776              3182.7949              3185.1968
 Red. masses --      1.0915                 1.0912                 1.0926
 Frc consts  --      6.3891                 6.5128                 6.5313
 IR Inten    --     54.3034                10.2273                26.9442

 - Thermochemistry -
 -------------------
 Temperature   298.150 Kelvin.  Pressure   1.00000 Atm.
 Atom     1 has atomic number  6 and mass  12.00000

 Molecular mass:   218.04015 amu.
 Principal axes and moments of inertia in atomic units:
                           1         2         3
     Eigenvalues --  1999.338304130.435565956.74774
           X            0.93589  -0.14178   0.32251
           Y            0.18259   0.97810  -0.09987
           Z           -0.30128   0.15236   0.94128
 This molecule is an asymmetric top.
 Rotational symmetry number  1.
 Warning -- assumption of classical behavior for rotation
           may cause significant error
 Rotational temperatures (Kelvin)      0.04332     0.02097     0.01454
 Rotational constants (GHZ):           0.90267     0.43694     0.30297
 Zero-point vibrational energy     487852.8 (Joules/Mol)
                                  116.59962 (Kcal/Mol)
 Warning -- explicit consideration of  20 degrees of freedom as
           vibrations may cause significant error
 Vibrational temperatures:     80.38    98.14   118.11   144.41   194.11
          (Kelvin)            215.61   265.01   272.55   348.79   398.11
                              428.50   474.15   524.95   560.64   598.62
                              614.01   644.94   722.24   761.08   824.11
                              952.55   980.45   988.73  1004.03  1007.80
                             1120.67  1137.77  1169.36  1221.50  1256.93
                             1392.58  1399.87  1410.57  1414.17  1425.27
                             1491.43  1495.77  1506.62  1595.50  1632.77
                             1657.31  1734.09  1759.35  1816.90  1903.18
                             1953.02  1963.54  1999.19  2083.91  2087.57
                             2104.26  2123.46  2139.24  2157.98  2165.42
                             2192.91  2217.66  2313.57  2342.02  4313.03
                             4354.59  4402.10  4461.56  4483.02  4507.02
                             4524.61  4534.99  4579.33  4582.79

 Zero-point correction=                           0.185813 (Hartree/Particle)
 Thermal correction to Energy=                    0.199563
 Thermal correction to Enthalpy=                  0.200507
 Thermal correction to Gibbs Free Energy=         0.144390
 Sum of electronic and zero-point Energies=          -1012.013723
 Sum of electronic and thermal Energies=             -1011.999974
 Sum of electronic and thermal Enthalpies=           -1011.999030
 Sum of electronic and thermal Free Energies=        -1012.055146

                     E (Thermal)             CV                S
                      KCal/Mol        Cal/Mol-Kelvin    Cal/Mol-Kelvin
 Total                  125.228             51.911            118.108
 Electronic               0.000              0.000              1.377
 Translational            0.889              2.981             42.042
 Rotational               0.889              2.981             32.264
 Vibrational            123.450             45.949             42.424
 Vibration     1          0.596              1.975              4.598
 Vibration     2          0.598              1.969              4.204
 Vibration     3          0.600              1.961              3.840
 Vibration     4          0.604              1.949              3.447
 Vibration     5          0.613              1.918              2.875
 Vibration     6          0.618              1.903              2.674
 Vibration     7          0.631              1.861              2.285
 Vibration     8          0.633              1.854              2.233
 Vibration     9          0.659              1.775              1.785
 Vibration    10          0.678              1.717              1.554
 Vibration    11          0.691              1.678              1.429
 Vibration    12          0.712              1.616              1.262
 Vibration    13          0.738              1.545              1.101
 Vibration    14          0.758              1.492              1.001
 Vibration    15          0.779              1.435              0.905
 Vibration    16          0.788              1.412              0.869
 Vibration    17          0.807              1.365              0.801
 Vibration    18          0.857              1.246              0.653
 Vibration    19          0.884              1.186              0.589
 Vibration    20          0.929              1.090              0.499

 Optimization completed.
    -- Stationary point found.
 Normal termination of Gaussian 16 at Mon Jan  8 02:32:01 2024.
