 Q-Chem 5.4, Q-Chem, Inc., Pleasanton, CA (2021)
 Q-Chem 5.4.0 for Intel X86 EM64T Linux

User input:
--------------------------------------------------------------
$molecule
-1 2
C                 -0.2202380000      3.9251660000      0.2655160000
C                 -1.4322000000      3.4443190000      0.7284950000
C                 -1.6697640000      2.0564630000      0.7623360000
C                  0.7884690000      3.0451750000     -0.1737440000
C                  0.5490210000      1.6506250000     -0.1420690000
C                 -0.6913990000      1.1784800000      0.3310740000
C                  2.0605060000      3.5954620000     -0.6750570000
C                  3.0596270000      2.6195680000     -1.0695960000
C                  2.8364890000      1.2416930000     -1.0408230000
C                  1.5697730000      0.6934770000     -0.5932950000
O                  2.2392700000      4.8380590000     -0.7424640000
O                  1.3444630000     -0.5479050000     -0.5721450000
H                 -0.0096190000      4.9875590000      0.2239360000
H                 -2.1997620000      4.1351990000      1.0651770000
H                 -2.6209700000      1.6772220000      1.1246380000
H                 -0.8458850000      0.1057020000      0.3426010000
S                  4.6089080000      3.2357730000     -1.7395650000
C                  5.1878710000      4.3976580000     -0.4452250000
C                  3.8771120000      0.2416080000     -1.4757990000
H                  6.1354710000      4.8048170000     -0.8058710000
H                  5.3572010000      3.8683050000      0.4944080000
H                  4.4519270000      5.1874860000     -0.3127520000
H                  3.9576240000      0.1934430000     -2.5695180000
H                  3.5888810000     -0.7487450000     -1.1226170000
H                  4.8673850000      0.5105940000     -1.1004120000
$end

$rem
BASIS  =  6-311++G(d,p)
GUI  =  2
JOB_TYPE  =  SP
METHOD  =  B3LYP
SCF_CONVERGENCE  = 8
SOLVENT_METHOD = sm12
$end

$smx
solvent dimethylformamide
charges CM5
$end

--------------------------------------------------------------

             Standard Nuclear Orientation (Angstroms)
    I     Atom           X                Y                Z
 ----------------------------------------------------------------
    1      C      -0.2202380000     3.9251660000     0.2655160000
    2      C      -1.4322000000     3.4443190000     0.7284950000
    3      C      -1.6697640000     2.0564630000     0.7623360000
    4      C       0.7884690000     3.0451750000    -0.1737440000
    5      C       0.5490210000     1.6506250000    -0.1420690000
    6      C      -0.6913990000     1.1784800000     0.3310740000
    7      C       2.0605060000     3.5954620000    -0.6750570000
    8      C       3.0596270000     2.6195680000    -1.0695960000
    9      C       2.8364890000     1.2416930000    -1.0408230000
   10      C       1.5697730000     0.6934770000    -0.5932950000
   11      O       2.2392700000     4.8380590000    -0.7424640000
   12      O       1.3444630000    -0.5479050000    -0.5721450000
   13      H      -0.0096190000     4.9875590000     0.2239360000
   14      H      -2.1997620000     4.1351990000     1.0651770000
   15      H      -2.6209700000     1.6772220000     1.1246380000
   16      H      -0.8458850000     0.1057020000     0.3426010000
   17      S       4.6089080000     3.2357730000    -1.7395650000
   18      C       5.1878710000     4.3976580000    -0.4452250000
   19      C       3.8771120000     0.2416080000    -1.4757990000
   20      H       6.1354710000     4.8048170000    -0.8058710000
   21      H       5.3572010000     3.8683050000     0.4944080000
   22      H       4.4519270000     5.1874860000    -0.3127520000
   23      H       3.9576240000     0.1934430000    -2.5695180000
   24      H       3.5888810000    -0.7487450000    -1.1226170000
   25      H       4.8673850000     0.5105940000    -1.1004120000
 ----------------------------------------------------------------

   18   -1012.1966625506      5.12e-09  Convergence criterion met
 Total energy in the final basis set =    -1012.2781895478

                    Orbital Energies (a.u.)
 --------------------------------------------------------------

 Alpha MOs
 -- Occupied --
-88.8400 -19.0770 -19.0768 -10.2282 -10.2235 -10.1940 -10.1865 -10.1836
-10.1831 -10.1811 -10.1807 -10.1802 -10.1793 -10.1791 -10.1609  -7.9255
 -5.8896  -5.8857  -5.8792  -1.0041  -1.0007  -0.8658  -0.8288  -0.7772
 -0.7581  -0.7564  -0.7058  -0.6675  -0.6460  -0.6061  -0.5892  -0.5591
 -0.5189  -0.4965  -0.4718  -0.4561  -0.4368  -0.4348  -0.4287  -0.4245
 -0.4163  -0.4095  -0.4021  -0.3902  -0.3886  -0.3752  -0.3717  -0.3597
 -0.3536  -0.3449  -0.3205  -0.2755  -0.2644  -0.2611  -0.2474  -0.2372
 -0.2198  -0.1552

 Beta MOs
 -- Occupied --
-88.8400 -19.0708 -19.0703 -10.2269 -10.2221 -10.1926 -10.1864 -10.1833
-10.1828 -10.1802 -10.1797 -10.1793 -10.1793 -10.1791 -10.1611  -7.9254
 -5.8896  -5.8857  -5.8791  -0.9936  -0.9890  -0.8639  -0.8247  -0.7753
 -0.7565  -0.7544  -0.7027  -0.6623  -0.6436  -0.6049  -0.5862  -0.5566
 -0.5166  -0.4942  -0.4695  -0.4549  -0.4347  -0.4308  -0.4244  -0.4226
 -0.4139  -0.4043  -0.3964  -0.3873  -0.3864  -0.3718  -0.3594  -0.3513
 -0.3441  -0.3417  -0.3173  -0.2592  -0.2556  -0.2508  -0.2412  -0.2315
 -0.2141

          Ground-State Mulliken Net Atomic Charges

     Atom                 Charge (a.u.)    Spin (a.u.)
  --------------------------------------------------------
      1 C                     0.181031       0.028645
      2 C                     0.984579       0.029521
      3 C                     1.018967       0.020842
      4 C                    -0.368266       0.050451
      5 C                    -1.033994       0.024057
      6 C                    -0.001707       0.030684
      7 C                    -2.530146       0.071698
      8 C                     1.334769       0.068090
      9 C                     0.029576       0.124236
     10 C                    -2.470058       0.063638
     11 O                    -0.257736       0.224413
     12 O                    -0.311393       0.252049
     13 H                     0.161598      -0.002273
     14 H                     0.361994      -0.002109
     15 H                     0.359801      -0.001863
     16 H                     0.152268      -0.002654
     17 S                     0.044764       0.011505
     18 C                    -0.356454       0.004196
     19 C                     0.629134      -0.006610
     20 H                     0.266292       0.000934
     21 H                     0.130868       0.000495
     22 H                     0.123351      -0.001038
     23 H                     0.189591       0.008778
     24 H                     0.179466      -0.001353
     25 H                     0.181709       0.003666
  --------------------------------------------------------
  Sum of atomic charges =    -1.000000

                    Cartesian Multipole Moments
 -----------------------------------------------------------------
    Charge (ESU x 10^10)
                -4.8032
    Dipole Moment (Debye)
         X      -9.0947      Y      -9.9539      Z       4.3011
       Tot      14.1525
    Quadrupole Moments (Debye-Ang)
        XX    -121.5453     XY     -22.3806     YY    -149.6549
        XZ      12.0568     YZ      12.3190     ZZ    -107.3435

 Total job time:  596.72s(wall), 3984.75s(cpu)
        *  Thank you very much for using Q-Chem.  Have a nice day.  *
