 Gaussian 16, Revision A.03,
 Gaussian 16:  ES64L-G16RevA.03 25-Dec-2016

 ----------------------------------------------------------------
 #P UB3LYP/6-311++G(d,p) SCRF=(PCM,Solvent=n,n-DiMethylFormamide)
 ----------------------------------------------------------------

 ------------------
 Radical PCM in DMF
 ------------------
 Symbolic Z-matrix:
 Charge = -1 Multiplicity = 2

                         Standard orientation:
 ---------------------------------------------------------------------
 Center     Atomic      Atomic             Coordinates (Angstroms)
 Number     Number       Type             X           Y           Z
 ---------------------------------------------------------------------
      1          6           0        3.625183    2.504505    0.349923
      2          6           0        2.854948    1.226271    0.162379
      3          6           0        1.481562    1.197720    0.153167
      4          6           0        0.723077   -0.000208   -0.000505
      5          6           0        1.481893   -1.197977   -0.153790
      6          6           0        2.855300   -1.226208   -0.162293
      7          6           0        3.625955   -2.504230   -0.349455
      8          6           0        3.623688    0.000125    0.000249
      9          8           0        4.882572    0.000249    0.000583
     10          6           0       -0.723069   -0.000273   -0.000730
     11          6           0       -1.481788   -1.198057    0.152851
     12          6           0       -2.855182   -1.226304    0.162234
     13          6           0       -3.625743   -2.504312    0.349770
     14          6           0       -3.623723    0.000057    0.000317
     15          8           0       -4.882568    0.000222    0.000982
     16          6           0       -2.855046    1.226203   -0.162468
     17          6           0       -1.481659    1.197605   -0.154163
     18          6           0       -3.625395    2.504392   -0.349568
     19          1           0        4.278331    2.443675    1.227040
     20          1           0        2.952137    3.358302    0.469070
     21          1           0        4.286469    2.691862   -0.502880
     22          1           0        0.955525    2.134681    0.302509
     23          1           0        0.956171   -2.135068   -0.303432
     24          1           0        2.953217   -3.358197   -0.469097
     25          1           0        4.279655   -2.443142   -1.226143
     26          1           0        4.286728   -2.691513    0.503765
     27          1           0       -0.955967   -2.135152    0.302095
     28          1           0       -4.278409   -2.443576    1.227264
     29          1           0       -4.287569   -2.691155   -0.502727
     30          1           0       -2.952962   -3.358408    0.468269
     31          1           0       -0.955707    2.134529   -0.304003
     32          1           0       -2.952429    3.358194   -0.469119
     33          1           0       -4.279084    2.443577   -1.226290
     34          1           0       -4.286155    2.691777    0.503639
 ---------------------------------------------------------------------

 SCF Done:  E(UB3LYP) =  -770.143807128     A.U. after   18 cycles

 The electronic state is 2-A.
 Alpha  occ. eigenvalues --  -19.07420 -19.07419 -10.21792 -10.21791 -10.18108
 Alpha  occ. eigenvalues --  -10.18071 -10.16905 -10.16905 -10.16904 -10.16904
 Alpha  occ. eigenvalues --  -10.16612 -10.16611 -10.16611 -10.16610 -10.15726
 Alpha  occ. eigenvalues --  -10.15725 -10.15725 -10.15725  -0.99843  -0.99840
 Alpha  occ. eigenvalues --   -0.85949  -0.83226  -0.78044  -0.77716  -0.76710
 Alpha  occ. eigenvalues --   -0.71879  -0.68546  -0.67798  -0.66853  -0.65472
 Alpha  occ. eigenvalues --   -0.59694  -0.57840  -0.55673  -0.54888  -0.49655
 Alpha  occ. eigenvalues --   -0.49296  -0.45789  -0.44859  -0.44285  -0.42984
 Alpha  occ. eigenvalues --   -0.42699  -0.40983  -0.40937  -0.40586  -0.40508
 Alpha  occ. eigenvalues --   -0.40499  -0.39646  -0.39606  -0.39296  -0.37553
 Alpha  occ. eigenvalues --   -0.36933  -0.36371  -0.36297  -0.36052  -0.35080
 Alpha  occ. eigenvalues --   -0.34920  -0.34218  -0.32877  -0.30490  -0.24784
 Alpha  occ. eigenvalues --   -0.24202  -0.23807  -0.23459  -0.21773  -0.16278
 Alpha virt. eigenvalues --   -0.02027  -0.01256  -0.00683   0.00159   0.00551
 Alpha virt. eigenvalues --    0.00969   0.01556   0.02037   0.02648   0.03228
 Alpha virt. eigenvalues --    0.03286   0.03569   0.04335   0.04531   0.05189

  Beta  occ. eigenvalues --  -19.06965 -19.06964 -10.21723 -10.21722 -10.17924
  Beta  occ. eigenvalues --  -10.17886 -10.16792 -10.16792 -10.16791 -10.16790
  Beta  occ. eigenvalues --  -10.16603 -10.16602 -10.16602 -10.16601 -10.15733
  Beta  occ. eigenvalues --  -10.15733 -10.15733 -10.15733  -0.99047  -0.99044
  Beta  occ. eigenvalues --   -0.85554  -0.82862  -0.77896  -0.77565  -0.76289
  Beta  occ. eigenvalues --   -0.71616  -0.68476  -0.67623  -0.66808  -0.64954
  Beta  occ. eigenvalues --   -0.59448  -0.57609  -0.55421  -0.54646  -0.49487
  Beta  occ. eigenvalues --   -0.49172  -0.45630  -0.44547  -0.44080  -0.42375
  Beta  occ. eigenvalues --   -0.42116  -0.40933  -0.40826  -0.40386  -0.40378
  Beta  occ. eigenvalues --   -0.40342  -0.39515  -0.39440  -0.39250  -0.37508
  Beta  occ. eigenvalues --   -0.36429  -0.36118  -0.36096  -0.34955  -0.34798
  Beta  occ. eigenvalues --   -0.34094  -0.33403  -0.32695  -0.28919  -0.24429
  Beta  occ. eigenvalues --   -0.23802  -0.23377  -0.23040  -0.19293
  Beta virt. eigenvalues --   -0.11093  -0.00790  -0.00663  -0.00476   0.00183
  Beta virt. eigenvalues --    0.00554   0.01561   0.01784   0.02066   0.02793
  Beta virt. eigenvalues --    0.03289   0.03331   0.03623   0.04351   0.05239

 Mulliken charges and spin densities:
               1          2
     1  C   -0.309818  -0.001030
     2  C    0.556954   0.079025
     3  C   -0.546764  -0.011906
     4  C    1.185247   0.172352
     5  C   -0.547329  -0.011935
     6  C    0.557801   0.079075
     7  C   -0.309316  -0.001021
     8  C   -1.698269   0.011115
     9  O   -0.466542   0.171235
    10  C    1.185314   0.172398
    11  C   -0.546895  -0.011944
    12  C    0.557372   0.079091
    13  C   -0.309751  -0.001022
    14  C   -1.698267   0.011098
    15  O   -0.466486   0.171220
    16  C    0.557326   0.079071
    17  C   -0.547301  -0.011954
    18  C   -0.309396  -0.001035
    19  H    0.165170   0.003788
    20  H    0.147927  -0.000261
    21  H    0.167477   0.004330
    22  H    0.058393  -0.001319
    23  H    0.058465  -0.001318
    24  H    0.147928  -0.000261
    25  H    0.165182   0.003788
    26  H    0.167485   0.004332
    27  H    0.058363  -0.001318
    28  H    0.165190   0.003792
    29  H    0.167466   0.004331
    30  H    0.147928  -0.000261
    31  H    0.058560  -0.001316
    32  H    0.147922  -0.000261
    33  H    0.165186   0.003791
    34  H    0.167475   0.004331
 Sum of Mulliken charges =  -1.00000   1.00000

 Dipole moment (field-independent basis, Debye):
    X=             -0.0012    Y=             -0.0010    Z=             -0.0032  Tot=              0.0036
 Quadrupole moment (field-independent basis, Debye-Ang):
   XX=           -224.8302   YY=           -103.3099   ZZ=           -113.9594
   XY=             -0.0008   XZ=              0.0048   YZ=             -0.0002

 Normal termination of Gaussian 16 at Sat Jan 13 19:22:34 2024.
