 Gaussian 16, Revision A.03,
 Gaussian 16:  ES64L-G16RevA.03 25-Dec-2016

 --------------------------------------
 #P UB3LYP/6-311++G(d,p) nosym opt freq
 --------------------------------------

 -------
 Reduced
 -------
 Symbolic Z-matrix:
 Charge = -2 Multiplicity = 1

 SCF Done:  E(UB3LYP) =  -613.886796264     A.U. after   38 cycles
 Optimization completed.
    -- Stationary point found.
 Normal termination of Gaussian 16 at Sun Jan  7 20:29:30 2024.

 ----------------------------------------------------------------------
 #P Geom=AllCheck Guess=TCheck SCRF=Check GenChk UB3LYP/6-311++G(d,p) F
 req
 ----------------------------------------------------------------------

 Structure from the checkpoint file:  "242-an.chk"
 -------
 Reduced
 -------
 Charge = -2 Multiplicity = 1

                          Input orientation:
 ---------------------------------------------------------------------
 Center     Atomic      Atomic             Coordinates (Angstroms)
 Number     Number       Type             X           Y           Z
 ---------------------------------------------------------------------
      1          6           0       -4.029513    0.287988    0.260427
      2          6           0       -2.559301    0.012193    0.041715
      3          6           0       -2.153371   -1.064694   -0.794180
      4          6           0       -0.812107   -1.325407   -1.003174
      5          6           0        0.208184   -0.542616   -0.415226
      6          6           0        1.607635   -0.856207   -0.681824
      7          8           0        1.970128   -1.830402   -1.446959
      8          6           0        2.546930   -0.000577   -0.027885
      9          6           0        2.146399    1.052379    0.810846
     10          6           0        0.796384    1.398140    1.104679
     11          8           0        0.463245    2.376229    1.872756
     12          6           0       -0.189903    0.539737    0.448588
     13          6           0       -1.571998    0.773143    0.645139
     14          6           0        4.010203   -0.273832   -0.266535
     15          1           0       -4.547030    0.539160   -0.672803
     16          1           0       -4.181820    1.122383    0.952532
     17          1           0       -4.563742   -0.584175    0.677988
     18          1           0       -2.911288   -1.682968   -1.274669
     19          1           0       -0.491026   -2.143344   -1.641515
     20          1           0        2.910869    1.674152    1.279561
     21          1           0       -1.831416    1.597475    1.304038
     22          1           0        4.281321   -0.139479   -1.324446
     23          1           0        4.261216   -1.317729   -0.032743
     24          1           0        4.639998    0.388451    0.340411
 ---------------------------------------------------------------------

 SCF Done:  E(UB3LYP) =  -613.886796264     A.U. after    6 cycles

 Alpha  occ. eigenvalues --  -18.77942 -18.77626  -9.94808  -9.93466  -9.93322
 Alpha  occ. eigenvalues --   -9.92965  -9.92535  -9.92088  -9.91554  -9.91173
 Alpha  occ. eigenvalues --   -9.90101  -9.90055  -9.89834  -9.88680  -0.69299
 Alpha  occ. eigenvalues --   -0.68838  -0.59805  -0.54516  -0.51961  -0.49053
 Alpha  occ. eigenvalues --   -0.46017  -0.43324  -0.38678  -0.35427  -0.32506
 Alpha  occ. eigenvalues --   -0.28686  -0.24719  -0.22597  -0.20969  -0.19541
 Alpha  occ. eigenvalues --   -0.18591  -0.17255  -0.17161  -0.16394  -0.14846
 Alpha  occ. eigenvalues --   -0.14112  -0.12506  -0.12385  -0.11212  -0.10562
 Alpha  occ. eigenvalues --   -0.08168  -0.07437  -0.06869  -0.06620   0.00727
 Alpha  occ. eigenvalues --    0.02049   0.02614   0.04518   0.05034   0.13491
 Alpha virt. eigenvalues --    0.14996   0.17005   0.17640   0.18675   0.19699
 Alpha virt. eigenvalues --    0.19774   0.20951   0.21586   0.21946   0.22754
 Alpha virt. eigenvalues --    0.22971   0.24556   0.25681   0.26493   0.27349

  Beta  occ. eigenvalues --  -18.77942 -18.77626  -9.94808  -9.93466  -9.93322
  Beta  occ. eigenvalues --   -9.92965  -9.92535  -9.92088  -9.91554  -9.91173
  Beta  occ. eigenvalues --   -9.90101  -9.90055  -9.89834  -9.88680  -0.69299
  Beta  occ. eigenvalues --   -0.68838  -0.59805  -0.54516  -0.51961  -0.49053
  Beta  occ. eigenvalues --   -0.46017  -0.43324  -0.38678  -0.35427  -0.32506
  Beta  occ. eigenvalues --   -0.28686  -0.24719  -0.22597  -0.20969  -0.19541
  Beta  occ. eigenvalues --   -0.18591  -0.17255  -0.17161  -0.16394  -0.14846
  Beta  occ. eigenvalues --   -0.14112  -0.12506  -0.12385  -0.11212  -0.10562
  Beta  occ. eigenvalues --   -0.08168  -0.07437  -0.06869  -0.06620   0.00727
  Beta  occ. eigenvalues --    0.02049   0.02614   0.04518   0.05034   0.13491
  Beta virt. eigenvalues --    0.14996   0.17005   0.17640   0.18675   0.19699
  Beta virt. eigenvalues --    0.19774   0.20951   0.21586   0.21946   0.22754
  Beta virt. eigenvalues --    0.22971   0.24556   0.25681   0.26493   0.27349

 Mulliken charges and spin densities:
               1          2
     1  C    2.486474   0.000000
     2  C   -1.102835  -0.000000
     3  C   -0.814529  -0.000000
     4  C   -0.416204  -0.000000
     5  C   -0.100621  -0.000000
     6  C   -1.017005   0.000000
     7  O   -0.515872   0.000000
     8  C    1.039548   0.000000
     9  C   -0.346494  -0.000000
    10  C   -1.042979   0.000000
    11  O   -0.520415   0.000000
    12  C    0.790806   0.000000
    13  C    0.303479   0.000000
    14  C   -0.355675   0.000000
    15  H   -0.044570  -0.000000
    16  H   -0.466903  -0.000000
    17  H   -0.490463  -0.000000
    18  H   -0.061295  -0.000000
    19  H    0.136825   0.000000
    20  H    0.038718  -0.000000
    21  H    0.183229   0.000000
    22  H    0.096209   0.000000
    23  H    0.124499   0.000000
    24  H    0.096072   0.000000
 Sum of Mulliken charges =  -2.00000   0.00000

 Dipole moment (field-independent basis, Debye):
    X=              1.0872    Y=             -0.9572    Z=             -2.3695  Tot=              2.7772
 Quadrupole moment (field-independent basis, Debye-Ang):
   XX=           -177.6741   YY=           -130.3313   ZZ=           -117.2394
   XY=              4.0154   XZ=             12.6187   YZ=            -22.3829

  Exact polarizability:1749.597 -95.771 617.054-145.016  96.574 359.384
 Approx polarizability:6391.061 269.323 569.251-542.742  94.929 404.886

                      1                      2                      3
                      A                      A                      A
 Frequencies --     69.6505                77.9621               117.6953
 Red. masses --      1.9958                 1.3786                 4.7812
 Frc consts  --      0.0057                 0.0049                 0.0390
 IR Inten    --      2.9488                 1.3519                 3.3355

                      4                      5                      6
                      A                      A                      A
 Frequencies --    143.7160               171.1542               201.4062
 Red. masses --      1.2963                 3.5028                 3.9403
 Frc consts  --      0.0158                 0.0605                 0.0942
 IR Inten    --     15.2480                11.0100                 5.9152

                      7                      8                      9
                      A                      A                      A
 Frequencies --    207.2687               284.5962               295.6416
 Red. masses --      2.7817                 3.1200                 4.2689
 Frc consts  --      0.0704                 0.1489                 0.2198
 IR Inten    --      4.8394                 5.6839                 1.0421

                     10                     11                     12
                      A                      A                      A
 Frequencies --    330.3642               355.6121               372.3596
 Red. masses --      6.2142                 4.8264                 5.7940
 Frc consts  --      0.3996                 0.3596                 0.4733
 IR Inten    --     47.0435                 7.8597                 8.8126

                     13                     14                     15
                      A                      A                      A
 Frequencies --    407.3390               452.9674               468.7748
 Red. masses --      5.2479                 3.2606                 7.9008
 Frc consts  --      0.5130                 0.3942                 1.0229
 IR Inten    --    267.8930                20.5413               444.6755

                     16                     17                     18
                      A                      A                      A
 Frequencies --    500.3296               530.3428               597.4263
 Red. masses --      3.4940                 7.1357                 4.8928
 Frc consts  --      0.5153                 1.1825                 1.0289
 IR Inten    --     14.9484               103.1569                16.3153

                     19                     20                     21
                      A                      A                      A
 Frequencies --    643.2862               663.3477               701.9518
 Red. masses --      4.6275                 3.1121                 3.3587
 Frc consts  --      1.1283                 0.8068                 0.9751
 IR Inten    --      2.2686                33.3493                20.7864

                     22                     23                     24
                      A                      A                      A
 Frequencies --    718.3304               759.3615               772.3572
 Red. masses --      5.6301                 4.9648                 1.5222
 Frc consts  --      1.7116                 1.6868                 0.5350
 IR Inten    --      5.1868                46.5574                18.6309

                     25                     26                     27
                      A                      A                      A
 Frequencies --    810.2593               831.1071               902.0596
 Red. masses --      2.7454                 2.1018                 3.3539
 Frc consts  --      1.0619                 0.8554                 1.6079
 IR Inten    --     10.9275                42.3181                12.0901

                     28                     29                     30
                      A                      A                      A
 Frequencies --    927.2110               951.2076               959.2731
 Red. masses --      1.3622                 4.3920                 1.3289
 Frc consts  --      0.6900                 2.3413                 0.7205
 IR Inten    --     25.1585                12.0013                23.4966

                     31                     32                     33
                      A                      A                      A
 Frequencies --    995.4102              1009.5312              1034.7481
 Red. masses --      1.4907                 1.6863                 1.4601
 Frc consts  --      0.8703                 1.0126                 0.9211
 IR Inten    --     10.6277               358.4662                 5.7595

                     34                     35                     36
                      A                      A                      A
 Frequencies --   1068.9362              1086.5563              1116.3445
 Red. masses --      1.5033                 2.2894                 1.6266
 Frc consts  --      1.0120                 1.5925                 1.1943
 IR Inten    --     27.2034                12.2478                22.0660

                     37                     38                     39
                      A                      A                      A
 Frequencies --   1172.7020              1202.1627              1209.2026
 Red. masses --      2.4746                 2.6843                 4.6638
 Frc consts  --      2.0051                 2.2856                 4.0178
 IR Inten    --     50.6805               306.2607               268.3085

                     40                     41                     42
                      A                      A                      A
 Frequencies --   1227.7525              1274.7805              1334.2517
 Red. masses --      1.8452                 1.7916                 7.2609
 Frc consts  --      1.6387                 1.7154                 7.6158
 IR Inten    --    187.6215                32.5664              1061.1871

                     43                     44                     45
                      A                      A                      A
 Frequencies --   1367.1023              1372.8959              1388.9006
 Red. masses --      1.6069                 2.5501                 1.3600
 Frc consts  --      1.7694                 2.8319                 1.5458
 IR Inten    --     55.7742                26.9565               554.2561

                     46                     47                     48
                      A                      A                      A
 Frequencies --   1413.4915              1423.5757              1451.2966
 Red. masses --      5.1819                 5.1467                 1.0644
 Frc consts  --      6.1000                 6.1453                 1.3209
 IR Inten    --   1352.9903               421.0651                26.5354

                     49                     50                     51
                      A                      A                      A
 Frequencies --   1456.8524              1470.9760              1480.6050
 Red. masses --      2.1875                 2.9445                 1.0977
 Frc consts  --      2.7354                 3.7539                 1.4178
 IR Inten    --   1071.8600                92.9415               311.3480

                     52                     53                     54
                      A                      A                      A
 Frequencies --   1484.8440              1500.2008              1526.0991
 Red. masses --      1.0738                 1.6659                 4.5604
 Frc consts  --      1.3949                 2.2090                 6.2578
 IR Inten    --    232.4843               208.2070               251.1673

                     55                     56                     57
                      A                      A                      A
 Frequencies --   1565.3475              1608.4035              2913.8076
 Red. masses --      5.7402                 5.6388                 1.0621
 Frc consts  --      8.2871                 8.5947                 5.3129
 IR Inten    --   3224.1001                33.9388               158.6029

                     58                     59                     60
                      A                      A                      A
 Frequencies --   2954.0565              2976.2669              3005.3893
 Red. masses --      1.0467                 1.0845                 1.0739
 Frc consts  --      5.3816                 5.6603                 5.7152
 IR Inten    --   1118.8161               447.4692               450.8813

                     61                     62                     63
                      A                      A                      A
 Frequencies --   3029.9444              3057.3945              3082.5620
 Red. masses --      1.0999                 1.0959                 1.0864
 Frc consts  --      5.9492                 6.0358                 6.0822
 IR Inten    --     40.5675                 5.6126               358.7375

                     64                     65                     66
                      A                      A                      A
 Frequencies --   3094.3503              3144.1522              3153.7236
 Red. masses --      1.0867                 1.0883                 1.0905
 Frc consts  --      6.1306                 6.3386                 6.3901
 IR Inten    --     60.9099                77.0474                39.9393

 - Thermochemistry -
 -------------------
 Temperature   298.150 Kelvin.  Pressure   1.00000 Atm.
 Atom     1 has atomic number  6 and mass  12.00000

 Molecular mass:   186.06808 amu.
 Principal axes and moments of inertia in atomic units:
                           1         2         3
     Eigenvalues --  1477.130973338.977924793.90280
           X            0.99757   0.06900   0.00923
           Y           -0.04861   0.78533  -0.61716
           Z           -0.04983   0.61522   0.78678
 This molecule is an asymmetric top.
 Rotational symmetry number  1.
 Warning -- assumption of classical behavior for rotation
           may cause significant error
 Rotational temperatures (Kelvin)      0.05864     0.02594     0.01807
 Rotational constants (GHZ):           1.22179     0.54051     0.37647
 Zero-point vibrational energy     477782.4 (Joules/Mol)
                                  114.19273 (Kcal/Mol)
 Warning -- explicit consideration of  18 degrees of freedom as
           vibrations may cause significant error
 Vibrational temperatures:    100.21   112.17   169.34   206.78   246.25
          (Kelvin)            289.78   298.21   409.47   425.36   475.32
                              511.65   535.74   586.07   651.72   674.46
                              719.86   763.04   859.56   925.55   954.41
                             1009.95  1033.52  1092.55  1111.25  1165.78
                             1195.78  1297.86  1334.05  1368.58  1380.18
                             1432.17  1452.49  1488.77  1537.96  1563.31
                             1606.17  1687.26  1729.64  1739.77  1766.46
                             1834.12  1919.69  1966.96  1975.29  1998.32
                             2033.70  2048.21  2088.09  2096.09  2116.41
                             2130.26  2136.36  2158.45  2195.72  2252.19
                             2314.13  4192.32  4250.23  4282.18  4324.08
                             4359.41  4398.91  4435.12  4452.08  4523.73
                             4537.50

 Zero-point correction=                           0.181978 (Hartree/Particle)
 Thermal correction to Energy=                    0.194145
 Thermal correction to Enthalpy=                  0.195089
 Thermal correction to Gibbs Free Energy=         0.143853
 Sum of electronic and zero-point Energies=           -613.704819
 Sum of electronic and thermal Energies=              -613.692652
 Sum of electronic and thermal Enthalpies=            -613.691707
 Sum of electronic and thermal Free Energies=         -613.742944

                     E (Thermal)             CV                S
                      KCal/Mol        Cal/Mol-Kelvin    Cal/Mol-Kelvin
 Total                  121.828             47.184            107.836
 Electronic               0.000              0.000              0.000
 Translational            0.889              2.981             41.569
 Rotational               0.889              2.981             31.536
 Vibrational            120.050             41.223             34.731
 Vibration     1          0.598              1.969              4.163
 Vibration     2          0.599              1.964              3.942
 Vibration     3          0.608              1.935              3.138
 Vibration     4          0.616              1.909              2.754
 Vibration     5          0.626              1.878              2.423
 Vibration     6          0.638              1.838              2.120
 Vibration     7          0.641              1.830              2.068
 Vibration     8          0.683              1.702              1.506
 Vibration     9          0.690              1.682              1.441
 Vibration    10          0.713              1.615              1.258
 Vibration    11          0.731              1.564              1.141
 Vibration    12          0.744              1.529              1.070
 Vibration    13          0.772              1.454              0.936
 Vibration    14          0.812              1.354              0.787
 Vibration    15          0.826              1.319              0.741
 Vibration    16          0.856              1.249              0.657
 Vibration    17          0.885              1.183              0.586
 Vibration    18          0.955              1.037              0.454

 Optimization completed.
    -- Stationary point found.
 Normal termination of Gaussian 16 at Sun Jan  7 20:47:07 2024.
