 Q-Chem 5.4, Q-Chem, Inc., Pleasanton, CA (2021)
 Q-Chem 5.4.0 for Intel X86 EM64T Linux

User input:
--------------------------------------------------------------
$molecule
-2 1
C                 -4.0295130000      0.2879880000      0.2604270000
C                 -2.5593010000      0.0121930000      0.0417150000
C                 -2.1533710000     -1.0646940000     -0.7941800000
C                 -0.8121070000     -1.3254070000     -1.0031740000
C                  0.2081840000     -0.5426160000     -0.4152260000
C                  1.6076350000     -0.8562070000     -0.6818240000
O                  1.9701280000     -1.8304020000     -1.4469590000
C                  2.5469300000     -0.0005770000     -0.0278850000
C                  2.1463990000      1.0523790000      0.8108460000
C                  0.7963840000      1.3981400000      1.1046790000
O                  0.4632450000      2.3762290000      1.8727560000
C                 -0.1899030000      0.5397370000      0.4485880000
C                 -1.5719980000      0.7731430000      0.6451390000
C                  4.0102030000     -0.2738320000     -0.2665350000
H                 -4.5470300000      0.5391600000     -0.6728030000
H                 -4.1818200000      1.1223830000      0.9525320000
H                 -4.5637420000     -0.5841750000      0.6779880000
H                 -2.9112880000     -1.6829680000     -1.2746690000
H                 -0.4910260000     -2.1433440000     -1.6415150000
H                  2.9108690000      1.6741520000      1.2795610000
H                 -1.8314160000      1.5974750000      1.3040380000
H                  4.2813210000     -0.1394790000     -1.3244460000
H                  4.2612160000     -1.3177290000     -0.0327430000
H                  4.6399980000      0.3884510000      0.3404110000
$end
$rem
MAX_SCF_CYCLES=200
BASIS  =  6-311++G(d,p)
GUI  =  2
JOB_TYPE  =  SP
METHOD  =  B3LYP
SOLVENT_METHOD = PCM
$end
$pcm
theory = CPCM
$end
$solvent
dielectric 37.219
opticaldielectric 1.43
$end

--------------------------------------------------------------

             Standard Nuclear Orientation (Angstroms)
    I     Atom           X                Y                Z
 ----------------------------------------------------------------
    1      C      -4.0295130000     0.2879880000     0.2604270000
    2      C      -2.5593010000     0.0121930000     0.0417150000
    3      C      -2.1533710000    -1.0646940000    -0.7941800000
    4      C      -0.8121070000    -1.3254070000    -1.0031740000
    5      C       0.2081840000    -0.5426160000    -0.4152260000
    6      C       1.6076350000    -0.8562070000    -0.6818240000
    7      O       1.9701280000    -1.8304020000    -1.4469590000
    8      C       2.5469300000    -0.0005770000    -0.0278850000
    9      C       2.1463990000     1.0523790000     0.8108460000
   10      C       0.7963840000     1.3981400000     1.1046790000
   11      O       0.4632450000     2.3762290000     1.8727560000
   12      C      -0.1899030000     0.5397370000     0.4485880000
   13      C      -1.5719980000     0.7731430000     0.6451390000
   14      C       4.0102030000    -0.2738320000    -0.2665350000
   15      H      -4.5470300000     0.5391600000    -0.6728030000
   16      H      -4.1818200000     1.1223830000     0.9525320000
   17      H      -4.5637420000    -0.5841750000     0.6779880000
   18      H      -2.9112880000    -1.6829680000    -1.2746690000
   19      H      -0.4910260000    -2.1433440000    -1.6415150000
   20      H       2.9108690000     1.6741520000     1.2795610000
   21      H      -1.8314160000     1.5974750000     1.3040380000
   22      H       4.2813210000    -0.1394790000    -1.3244460000
   23      H       4.2612160000    -1.3177290000    -0.0327430000
   24      H       4.6399980000     0.3884510000     0.3404110000
 ----------------------------------------------------------------

    9    -614.1692952922      5.81e-06  Convergence criterion met
 Total energy in the final basis set =     -614.1692952922

                    Orbital Energies (a.u.)
 --------------------------------------------------------------

 Alpha MOs
 -- Occupied --
-19.0168 -19.0160 -10.1677 -10.1633 -10.1549 -10.1514 -10.1449 -10.1436
-10.1401 -10.1376 -10.1336 -10.1330 -10.1240 -10.1150  -0.9340  -0.9304
 -0.8266  -0.7724  -0.7405  -0.7193  -0.6788  -0.6584  -0.6130  -0.5825
 -0.5511  -0.5161  -0.4734  -0.4517  -0.4357  -0.4090  -0.4023  -0.3973
 -0.3916  -0.3912  -0.3698  -0.3628  -0.3566  -0.3534  -0.3452  -0.3345
 -0.3164  -0.3098  -0.3013  -0.2998  -0.2266  -0.2211  -0.2048  -0.1991
 -0.1931  -0.1084

          Ground-State Mulliken Net Atomic Charges

     Atom                 Charge (a.u.)
  ----------------------------------------
      1 C                    -0.457240
      2 C                     0.391541
      3 C                    -0.490602
      4 C                    -0.015839
      5 C                    -0.094065
      6 C                    -0.464581
      7 O                    -0.730306
      8 C                     0.670385
      9 C                    -0.459249
     10 C                    -0.631246
     11 O                    -0.736827
     12 C                     0.223725
     13 C                    -0.313501
     14 C                    -0.316190
     15 H                     0.157112
     16 H                     0.163757
     17 H                     0.152775
     18 H                     0.170472
     19 H                     0.141575
     20 H                     0.101515
     21 H                     0.110110
     22 H                     0.143080
     23 H                     0.141513
     24 H                     0.142089
  ----------------------------------------
  Sum of atomic charges =    -2.000000

                    Cartesian Multipole Moments
 -----------------------------------------------------------------
    Charge (ESU x 10^10)
                -9.6064
    Dipole Moment (Debye)
         X      -9.8903      Y      -2.2909      Z      -1.8382
       Tot      10.3173
    Quadrupole Moments (Debye-Ang)
        XX    -111.9851     XY       8.4734     YY    -127.9507
        XZ       6.7819     YZ     -26.8616     ZZ    -115.1126

 Total job time:  36.79s(wall), 234.83s(cpu)
        *  Thank you very much for using Q-Chem.  Have a nice day.  *
