 Gaussian 16, Revision A.03,
 Gaussian 16:  ES64L-G16RevA.03 25-Dec-2016

 ----------------------------------------------------------------------
 #P UB3LYP/6-311++G(d,p) nosym opt freq SCRF=(PCM,Solvent=n,n-DiMethylF
 ormamide)
 ----------------------------------------------------------------------

 -------
 Reduced
 -------
 Symbolic Z-matrix:
 Charge = -2 Multiplicity = 1

 SCF Done:  E(UB3LYP) =  -617.762716227     A.U. after   18 cycles
 SCF Done:  E(UB3LYP) =  -617.764559825     A.U. after   14 cycles
 SCF Done:  E(UB3LYP) =  -617.765081167     A.U. after   14 cycles
 SCF Done:  E(UB3LYP) =  -617.765134667     A.U. after   13 cycles
 SCF Done:  E(UB3LYP) =  -617.765325514     A.U. after   13 cycles
 SCF Done:  E(UB3LYP) =  -617.765449448     A.U. after   12 cycles
 SCF Done:  E(UB3LYP) =  -617.765497770     A.U. after   12 cycles
 SCF Done:  E(UB3LYP) =  -617.765514815     A.U. after   12 cycles
 SCF Done:  E(UB3LYP) =  -617.765518474     A.U. after   11 cycles
 SCF Done:  E(UB3LYP) =  -617.765519112     A.U. after   11 cycles
 SCF Done:  E(UB3LYP) =  -617.765520259     A.U. after   11 cycles
 Optimization completed.
    -- Stationary point found.
 Normal termination of Gaussian 16 at Sat Feb 10 11:09:00 2024.

 ----------------------------------------------------------------------
 #P Geom=AllCheck Guess=TCheck SCRF=Check GenChk UB3LYP/6-311++G(d,p) F
 req
 ----------------------------------------------------------------------

 Structure from the checkpoint file:  "047-an.chk"
 -------
 Reduced
 -------
 Charge = -2 Multiplicity = 1

                          Input orientation:
 ---------------------------------------------------------------------
 Center     Atomic      Atomic             Coordinates (Angstroms)
 Number     Number       Type             X           Y           Z
 ---------------------------------------------------------------------
      1          6           0        3.029636    1.078959    1.107801
      2          6           0        2.346371    0.616563   -0.194769
      3          6           0        3.367846   -0.068786   -1.119925
      4          6           0        1.106338   -0.227505    0.077475
      5          6           0        1.242728   -1.540111    0.555760
      6          6           0        0.146944   -2.388666    0.859790
      7          8           0        0.290368   -3.623463    1.317323
      8          6           0       -1.120917   -1.791886    0.626262
      9          6           0       -1.305992   -0.483248    0.149399
     10          6           0       -2.740198    0.005202   -0.040646
     11          6           0       -3.109408    1.159707    0.910943
     12          6           0       -3.060242    0.373313   -1.502069
     13          6           0       -0.184139    0.364603   -0.141494
     14          8           0       -0.323969    1.602314   -0.578490
     15          1           0        3.878912    1.741286    0.900139
     16          1           0        3.405057    0.223431    1.680207
     17          1           0        2.327435    1.623392    1.746533
     18          1           0        1.981819    1.512644   -0.704671
     19          1           0        4.203900    0.603466   -1.345713
     20          1           0        2.906289   -0.360415   -2.068372
     21          1           0        3.786404   -0.972268   -0.664323
     22          1           0        2.242757   -1.944972    0.712163
     23          1           0       -2.004889   -2.396315    0.836053
     24          1           0       -3.392085   -0.838516    0.222764
     25          1           0       -2.476259    2.027144    0.716346
     26          1           0       -4.158252    1.454529    0.783703
     27          1           0       -2.970832    0.861804    1.955499
     28          1           0       -4.106526    0.684296   -1.609733
     29          1           0       -2.896861   -0.484067   -2.163496
     30          1           0       -2.412234    1.187568   -1.831313
 ---------------------------------------------------------------------

 SCF Done:  E(UB3LYP) =  -617.765520259     A.U. after    1 cycles

 Alpha  occ. eigenvalues --  -19.00458 -18.99712 -10.15525 -10.15334 -10.14830
 Alpha  occ. eigenvalues --  -10.14342 -10.14018 -10.14000 -10.13397 -10.13285
 Alpha  occ. eigenvalues --  -10.11877 -10.11699 -10.10910 -10.10779  -0.90557
 Alpha  occ. eigenvalues --   -0.90136  -0.78723  -0.77711  -0.73951  -0.67733
 Alpha  occ. eigenvalues --   -0.66505  -0.66023  -0.63487  -0.58168  -0.56770
 Alpha  occ. eigenvalues --   -0.50849  -0.49829  -0.44628  -0.42560  -0.41770
 Alpha  occ. eigenvalues --   -0.40858  -0.40765  -0.39442  -0.38820  -0.38513
 Alpha  occ. eigenvalues --   -0.36904  -0.36513  -0.34721  -0.33738  -0.33553
 Alpha  occ. eigenvalues --   -0.33145  -0.32153  -0.31499  -0.31224  -0.30248
 Alpha  occ. eigenvalues --   -0.29072  -0.28753  -0.28203  -0.20733  -0.19495
 Alpha  occ. eigenvalues --   -0.18466  -0.17552  -0.10859
 Alpha virt. eigenvalues --   -0.00059   0.00752   0.01563   0.01711   0.02756
 Alpha virt. eigenvalues --    0.02788   0.03044   0.03224   0.04077   0.05066
 Alpha virt. eigenvalues --    0.05108   0.05359   0.05681   0.05816   0.07094

  Beta  occ. eigenvalues --  -19.00458 -18.99712 -10.15525 -10.15334 -10.14830
  Beta  occ. eigenvalues --  -10.14342 -10.14018 -10.14000 -10.13397 -10.13285
  Beta  occ. eigenvalues --  -10.11877 -10.11699 -10.10910 -10.10779  -0.90557
  Beta  occ. eigenvalues --   -0.90136  -0.78723  -0.77711  -0.73951  -0.67733
  Beta  occ. eigenvalues --   -0.66505  -0.66023  -0.63487  -0.58168  -0.56770
  Beta  occ. eigenvalues --   -0.50849  -0.49829  -0.44628  -0.42560  -0.41770
  Beta  occ. eigenvalues --   -0.40858  -0.40765  -0.39442  -0.38820  -0.38513
  Beta  occ. eigenvalues --   -0.36904  -0.36513  -0.34721  -0.33738  -0.33553
  Beta  occ. eigenvalues --   -0.33145  -0.32153  -0.31499  -0.31224  -0.30248
  Beta  occ. eigenvalues --   -0.29072  -0.28753  -0.28203  -0.20733  -0.19495
  Beta  occ. eigenvalues --   -0.18466  -0.17552  -0.10859
  Beta virt. eigenvalues --   -0.00059   0.00752   0.01563   0.01711   0.02756
  Beta virt. eigenvalues --    0.02788   0.03044   0.03224   0.04077   0.05066
  Beta virt. eigenvalues --    0.05108   0.05359   0.05681   0.05816   0.07094

 Mulliken charges and spin densities:
               1          2
     1  C   -0.672018  -0.000000
     2  C    0.239552   0.000000
     3  C   -0.648239  -0.000000
     4  C    0.853593  -0.000000
     5  C   -0.194873   0.000000
     6  C   -0.527315   0.000000
     7  O   -0.784055  -0.000000
     8  C   -0.368682  -0.000000
     9  C    1.037928  -0.000000
    10  C    0.288868   0.000000
    11  C   -0.664230  -0.000000
    12  C   -0.667088  -0.000000
    13  C   -1.422732   0.000000
    14  O   -0.682098  -0.000000
    15  H    0.127239   0.000000
    16  H    0.149795  -0.000000
    17  H    0.142763  -0.000000
    18  H    0.189091   0.000000
    19  H    0.136261   0.000000
    20  H    0.130218  -0.000000
    21  H    0.137188  -0.000000
    22  H    0.108786   0.000000
    23  H    0.113370  -0.000000
    24  H    0.140987   0.000000
    25  H    0.175604  -0.000000
    26  H    0.123155   0.000000
    27  H    0.118791   0.000000
    28  H    0.121775   0.000000
    29  H    0.115902   0.000000
    30  H    0.180465  -0.000000
 Sum of Mulliken charges =  -2.00000   0.00000

 Dipole moment (field-independent basis, Debye):
    X=              0.0589    Y=             10.6337    Z=             -3.8732  Tot=             11.3173
 Quadrupole moment (field-independent basis, Debye-Ang):
   XX=           -104.4622   YY=           -166.0433   ZZ=           -108.1879
   XY=              6.9800   XZ=             -2.7113   YZ=             23.9290

  Exact polarizability: 280.529  -3.435 273.883   2.776 -31.033 195.227
 Approx polarizability: 288.587  -3.745 297.705   2.966 -38.204 204.275

                      1                      2                      3
                      A                      A                      A
 Frequencies --     28.0217                80.3015                86.1807
 Red. masses --      2.7657                 2.9677                 3.8878
 Frc consts  --      0.0013                 0.0113                 0.0170
 IR Inten    --      2.6895                 8.6576                 2.1444

                      4                      5                      6
                      A                      A                      A
 Frequencies --    141.0214               150.2447               164.0162
 Red. masses --      3.1956                 2.9916                 6.1847
 Frc consts  --      0.0374                 0.0398                 0.0980
 IR Inten    --      5.1924                 6.4540                18.5848

                      7                      8                      9
                      A                      A                      A
 Frequencies --    195.1608               229.5713               237.2489
 Red. masses --      2.3250                 1.0480                 1.1530
 Frc consts  --      0.0522                 0.0325                 0.0382
 IR Inten    --      6.2341                 0.2760                 1.2137

                     10                     11                     12
                      A                      A                      A
 Frequencies --    238.9719               261.4532               278.1366
 Red. masses --      1.3890                 1.3495                 1.8811
 Frc consts  --      0.0467                 0.0543                 0.0857
 IR Inten    --      3.2222                 1.8216                 6.5541

                     13                     14                     15
                      A                      A                      A
 Frequencies --    287.9999               298.6897               321.0460
 Red. masses --      2.7877                 4.5461                 3.2335
 Frc consts  --      0.1362                 0.2390                 0.1964
 IR Inten    --     13.8089                 1.9133                 0.9050

                     16                     17                     18
                      A                      A                      A
 Frequencies --    392.2461               422.7031               445.5264
 Red. masses --      4.2065                 2.7311                 4.8438
 Frc consts  --      0.3813                 0.2875                 0.5665
 IR Inten    --     14.1972                 1.2897                 5.3278

                     19                     20                     21
                      A                      A                      A
 Frequencies --    453.3759               482.0607               527.5033
 Red. masses --      2.9873                 6.7023                 3.7524
 Frc consts  --      0.3618                 0.9177                 0.6152
 IR Inten    --      1.8185                 0.1751                 1.7682

                     22                     23                     24
                      A                      A                      A
 Frequencies --    566.8052               621.0600               637.9808
 Red. masses --      3.6190                 4.1558                 2.2517
 Frc consts  --      0.6850                 0.9444                 0.5400
 IR Inten    --     16.4797                 0.1767                 9.1293

                     25                     26                     27
                      A                      A                      A
 Frequencies --    678.1270               789.2531               802.6451
 Red. masses --      3.4704                 6.0416                 6.0346
 Frc consts  --      0.9403                 2.2173                 2.2906
 IR Inten    --      0.3930                27.7402               168.7629

                     28                     29                     30
                      A                      A                      A
 Frequencies --    817.3799               836.9053               849.4558
 Red. masses --      3.4824                 1.3728                 2.0566
 Frc consts  --      1.3708                 0.5665                 0.8744
 IR Inten    --     75.9078                 1.2204                60.8058

                     31                     32                     33
                      A                      A                      A
 Frequencies --    865.2968               913.4265               922.7453
 Red. masses --      2.6995                 1.1563                 1.2105
 Frc consts  --      1.1909                 0.5684                 0.6073
 IR Inten    --     10.6473                 2.8246                 0.7238

                     34                     35                     36
                      A                      A                      A
 Frequencies --    940.2910               951.4544               951.6342
 Red. masses --      2.3151                 1.5349                 1.5815
 Frc consts  --      1.2060                 0.8187                 0.8438
 IR Inten    --      7.6638                 1.3484                 0.2506

                     37                     38                     39
                      A                      A                      A
 Frequencies --    979.9529              1064.0196              1090.6144
 Red. masses --      2.9335                 1.7241                 1.5828
 Frc consts  --      1.6598                 1.1500                 1.1092
 IR Inten    --     40.0637               103.3204                40.9203

                     40                     41                     42
                      A                      A                      A
 Frequencies --   1113.7110              1116.3074              1135.5205
 Red. masses --      2.4182                 2.3696                 2.2213
 Frc consts  --      1.7672                 1.7398                 1.6875
 IR Inten    --     17.3507                 3.7428               159.0497

                     43                     44                     45
                      A                      A                      A
 Frequencies --   1168.5333              1184.6410              1207.7815
 Red. masses --      2.1823                 1.9254                 2.4834
 Frc consts  --      1.7556                 1.5920                 2.1344
 IR Inten    --     25.0671                63.8703               204.2578

                     46                     47                     48
                      A                      A                      A
 Frequencies --   1227.5159              1257.7649              1308.0197
 Red. masses --      1.5967                 3.6477                 5.0789
 Frc consts  --      1.4176                 3.4000                 5.1197
 IR Inten    --    121.9439               402.5182               175.7476

                     49                     50                     51
                      A                      A                      A
 Frequencies --   1332.7500              1344.0749              1346.6535
 Red. masses --      2.0900                 1.9225                 1.2933
 Frc consts  --      2.1872                 2.0463                 1.3819
 IR Inten    --    421.0807                 7.2183                 6.2591

                     52                     53                     54
                      A                      A                      A
 Frequencies --   1361.4453              1369.9925              1379.1212
 Red. masses --      1.2433                 1.2538                 1.2421
 Frc consts  --      1.3577                 1.3865                 1.3919
 IR Inten    --     11.4615                 4.4220                 9.5984

                     55                     56                     57
                      A                      A                      A
 Frequencies --   1380.2643              1397.8100              1416.6164
 Red. masses --      1.2489                 1.2331                 3.5626
 Frc consts  --      1.4018                 1.4195                 4.2123
 IR Inten    --      5.5778                 2.2032               157.9100

                     58                     59                     60
                      A                      A                      A
 Frequencies --   1428.1481              1469.3394              1476.1076
 Red. masses --      2.2879                 1.0439                 1.0436
 Frc consts  --      2.7493                 1.3279                 1.3397
 IR Inten    --    888.9721                 0.4633                 0.4813

                     61                     62                     63
                      A                      A                      A
 Frequencies --   1480.8248              1482.2608              1488.5707
 Red. masses --      1.0716                 1.0572                 1.0490
 Frc consts  --      1.3845                 1.3685                 1.3695
 IR Inten    --      5.3078                 4.1417                11.0023

                     64                     65                     66
                      A                      A                      A
 Frequencies --   1493.1707              1494.5650              1502.8164
 Red. masses --      1.0816                 1.0519                 1.0932
 Frc consts  --      1.4208                 1.3843                 1.4547
 IR Inten    --      4.0446                 2.3162                 7.2226

                     67                     68                     69
                      A                      A                      A
 Frequencies --   1512.0764              1601.3016              2977.1054
 Red. masses --      4.5601                 6.1318                 1.0810
 Frc consts  --      6.1428                 9.2637                 5.6452
 IR Inten    --      1.1548                62.8928                63.0307

                     70                     71                     72
                      A                      A                      A
 Frequencies --   2994.9946              2995.2297              3001.9924
 Red. masses --      1.0363                 1.0392                 1.0394
 Frc consts  --      5.4768                 5.4932                 5.5189
 IR Inten    --     95.2318                71.4906               287.7333

                     73                     74                     75
                      A                      A                      A
 Frequencies --   3002.6815              3026.4837              3050.1298
 Red. masses --      1.0381                 1.0862                 1.0991
 Frc consts  --      5.5146                 5.8617                 6.0245
 IR Inten    --     13.7914                 3.1174                73.0290

                     76                     77                     78
                      A                      A                      A
 Frequencies --   3050.5451              3053.0255              3058.9475
 Red. masses --      1.0994                 1.0978                 1.0974
 Frc consts  --      6.0277                 6.0287                 6.0502
 IR Inten    --     17.6249               120.7227               181.2997

                     79                     80                     81
                      A                      A                      A
 Frequencies --   3068.7687              3073.0440              3086.5359
 Red. masses --      1.1011                 1.0992                 1.0867
 Frc consts  --      6.1097                 6.1159                 6.0999
 IR Inten    --     54.9715                71.8964               137.6159

                     82                     83                     84
                      A                      A                      A
 Frequencies --   3094.5934              3095.2224              3102.3589
 Red. masses --      1.0979                 1.0872                 1.0973
 Frc consts  --      6.1948                 6.1369                 6.2222
 IR Inten    --     26.7089               115.3178                49.8238

 - Thermochemistry -
 -------------------
 Temperature   298.150 Kelvin.  Pressure   1.00000 Atm.
 Atom     1 has atomic number  6 and mass  12.00000

 Molecular mass:   192.11503 amu.
 Principal axes and moments of inertia in atomic units:
                           1         2         3
     Eigenvalues --  2065.141123488.537594780.92376
           X            0.99525   0.09555  -0.01864
           Y           -0.08479   0.94492   0.31613
           Z            0.04782  -0.31305   0.94853
 This molecule is an asymmetric top.
 Rotational symmetry number  1.
 Warning -- assumption of classical behavior for rotation
           may cause significant error
 Rotational temperatures (Kelvin)      0.04194     0.02483     0.01812
 Rotational constants (GHZ):           0.87391     0.51733     0.37749
 Zero-point vibrational energy     653220.2 (Joules/Mol)
                                  156.12338 (Kcal/Mol)
 Warning -- explicit consideration of  22 degrees of freedom as
           vibrations may cause significant error
 Vibrational temperatures:     40.32   115.54   123.99   202.90   216.17
          (Kelvin)            235.98   280.79   330.30   341.35   343.83
                              376.17   400.18   414.37   429.75   461.91
                              564.35   608.18   641.01   652.31   693.58
                              758.96   815.51   893.57   917.91   975.67
                             1135.56  1154.83  1176.03  1204.12  1222.18
                             1244.97  1314.22  1327.62  1352.87  1368.93
                             1369.19  1409.93  1530.89  1569.15  1602.38
                             1606.12  1633.76  1681.26  1704.43  1737.73
                             1766.12  1809.64  1881.95  1917.53  1933.82
                             1937.53  1958.82  1971.11  1984.25  1985.89
                             2011.14  2038.19  2054.79  2114.05  2123.79
                             2130.58  2132.64  2141.72  2148.34  2150.35
                             2162.22  2175.54  2303.92  4283.39  4309.13
                             4309.47  4319.20  4320.19  4354.43  4388.46
                             4389.05  4392.62  4401.14  4415.27  4421.42
                             4440.84  4452.43  4453.33  4463.60

 Zero-point correction=                           0.248798 (Hartree/Particle)
 Thermal correction to Energy=                    0.263447
 Thermal correction to Enthalpy=                  0.264391
 Thermal correction to Gibbs Free Energy=         0.207690
 Sum of electronic and zero-point Energies=           -617.516722
 Sum of electronic and thermal Energies=              -617.502073
 Sum of electronic and thermal Enthalpies=            -617.501129
 Sum of electronic and thermal Free Energies=         -617.557830

                     E (Thermal)             CV                S
                      KCal/Mol        Cal/Mol-Kelvin    Cal/Mol-Kelvin
 Total                  165.316             56.020            119.337
 Electronic               0.000              0.000              0.000
 Translational            0.889              2.981             41.664
 Rotational               0.889              2.981             31.910
 Vibrational            163.538             50.059             45.763
 Vibration     1          0.593              1.984              5.965
 Vibration     2          0.600              1.963              3.883
 Vibration     3          0.601              1.959              3.745
 Vibration     4          0.615              1.912              2.790
 Vibration     5          0.618              1.902              2.669
 Vibration     6          0.623              1.887              2.503
 Vibration     7          0.636              1.847              2.178
 Vibration     8          0.652              1.796              1.882
 Vibration     9          0.656              1.784              1.823
 Vibration    10          0.657              1.781              1.811
 Vibration    11          0.669              1.743              1.652
 Vibration    12          0.679              1.714              1.545
 Vibration    13          0.685              1.696              1.486
 Vibration    14          0.692              1.676              1.424
 Vibration    15          0.707              1.633              1.305
 Vibration    16          0.760              1.487              0.992
 Vibration    17          0.785              1.421              0.883
 Vibration    18          0.805              1.371              0.809
 Vibration    19          0.812              1.353              0.786
 Vibration    20          0.838              1.290              0.705
 Vibration    21          0.882              1.189              0.593
 Vibration    22          0.923              1.103              0.510

 Optimization completed.
    -- Stationary point found.
 Normal termination of Gaussian 16 at Sat Feb 10 12:07:43 2024.
