 Gaussian 16, Revision A.03,
 Gaussian 16:  ES64L-G16RevA.03 25-Dec-2016

 ----------------------------------------------------------------------
 #P UB3LYP/6-311++G(d,p) nosym opt freq SCRF=(PCM,Solvent=n,n-DiMethylF
 ormamide)
 ----------------------------------------------------------------------

 -------
 Radical
 -------
 Symbolic Z-matrix:
 Charge = -1 Multiplicity = 2

 SCF Done:  E(UB3LYP) =  -610.671074090     A.U. after   20 cycles
 SCF Done:  E(UB3LYP) =  -610.671304387     A.U. after   15 cycles
 SCF Done:  E(UB3LYP) =  -610.671344568     A.U. after   15 cycles
 SCF Done:  E(UB3LYP) =  -610.671347853     A.U. after   13 cycles
 Optimization completed.
    -- Stationary point found.
 Normal termination of Gaussian 16 at Sun Feb 11 01:24:55 2024.

 ----------------------------------------------------------------------
 #P Geom=AllCheck Guess=TCheck SCRF=Check GenChk UB3LYP/6-311++G(d,p) F
 req
 ----------------------------------------------------------------------

 Structure from the checkpoint file:  "279-rad.chk"
 -------
 Radical
 -------
 Charge = -1 Multiplicity = 2

                          Input orientation:
 ---------------------------------------------------------------------
 Center     Atomic      Atomic             Coordinates (Angstroms)
 Number     Number       Type             X           Y           Z
 ---------------------------------------------------------------------
      1          8           0       -1.278763    2.517639    0.333839
      2          6           0       -1.245463    1.258526    0.215932
      3          6           0       -2.435821    0.463205    0.194059
      4          6           0       -2.384818   -0.905178    0.063674
      5          8           0       -3.516858   -1.659227    0.042612
      6          6           0       -1.155906   -1.649649   -0.060117
      7          8           0       -1.225630   -2.918765   -0.177946
      8          6           0        0.076271   -0.882345   -0.040741
      9          6           0        1.326248   -1.528936   -0.154207
     10          6           0        2.504769   -0.804873   -0.136750
     11          6           0        2.469362    0.595991   -0.004542
     12          6           0        1.252027    1.248185    0.108330
     13          6           0        0.039335    0.535822    0.093403
     14          1           0       -3.392488    0.966995    0.282641
     15          1           0        1.341388   -2.607789   -0.255297
     16          1           0        3.457285   -1.316160   -0.225016
     17          1           0        3.393904    1.162648    0.008873
     18          1           0        1.209922    2.325940    0.210982
     19          1           0       -3.185289   -2.574901   -0.057901
 ---------------------------------------------------------------------

 SCF Done:  E(UB3LYP) =  -610.671347853     A.U. after    1 cycles

 Alpha  occ. eigenvalues --  -19.14866 -19.08735 -19.07502 -10.22795 -10.22689
 Alpha  occ. eigenvalues --  -10.22315 -10.17783 -10.17537 -10.17425 -10.17304
 Alpha  occ. eigenvalues --  -10.17258 -10.17161 -10.15715  -1.06745  -0.99781
 Alpha  occ. eigenvalues --   -0.99644  -0.86029  -0.80332  -0.75264  -0.73983
 Alpha  occ. eigenvalues --   -0.67741  -0.62667  -0.61075  -0.57278  -0.53862
 Alpha  occ. eigenvalues --   -0.51159  -0.48697  -0.45924  -0.45708  -0.43543
 Alpha  occ. eigenvalues --   -0.42923  -0.41890  -0.40844  -0.39762  -0.38897
 Alpha  occ. eigenvalues --   -0.37946  -0.37033  -0.35118  -0.34463  -0.33915
 Alpha  occ. eigenvalues --   -0.26960  -0.25983  -0.25896  -0.24166  -0.23778
 Alpha  occ. eigenvalues --   -0.15483
 Alpha virt. eigenvalues --   -0.03488  -0.01213  -0.00251   0.00819   0.01447
 Alpha virt. eigenvalues --    0.02743   0.03125   0.04565   0.05018   0.05126
 Alpha virt. eigenvalues --    0.05468   0.06866   0.06912   0.07602   0.08211

  Beta  occ. eigenvalues --  -19.14808 -19.08071 -19.06969 -10.22658 -10.22572
  Beta  occ. eigenvalues --  -10.22032 -10.17779 -10.17430 -10.17427 -10.17234
  Beta  occ. eigenvalues --  -10.17205 -10.17175 -10.15647  -1.06518  -0.98791
  Beta  occ. eigenvalues --   -0.98563  -0.85803  -0.79871  -0.75049  -0.73806
  Beta  occ. eigenvalues --   -0.66766  -0.62484  -0.60771  -0.57063  -0.53686
  Beta  occ. eigenvalues --   -0.50925  -0.48319  -0.45822  -0.45591  -0.42821
  Beta  occ. eigenvalues --   -0.42134  -0.41542  -0.40446  -0.39504  -0.37933
  Beta  occ. eigenvalues --   -0.37738  -0.35145  -0.34968  -0.33770  -0.32865
  Beta  occ. eigenvalues --   -0.25384  -0.25226  -0.24877  -0.23658  -0.22836
  Beta virt. eigenvalues --   -0.08836  -0.02735  -0.00223  -0.00109   0.00837
  Beta virt. eigenvalues --    0.01463   0.02755   0.03138   0.04942   0.05061
  Beta virt. eigenvalues --    0.05478   0.06339   0.06884   0.07327   0.07860

 Mulliken charges and spin densities:
               1          2
     1  O   -0.499906   0.190671
     2  C   -0.421477   0.059876
     3  C    0.373792   0.057510
     4  C   -0.220846   0.096780
     5  O   -0.292505   0.019022
     6  C   -0.650170   0.163408
     7  O   -0.517999   0.243867
     8  C    0.270288  -0.016810
     9  C    0.155238   0.077902
    10  C   -0.380030  -0.007256
    11  C   -0.376965   0.069732
    12  C    0.191642  -0.004586
    13  C    0.191516   0.069103
    14  H    0.191378  -0.006311
    15  H    0.165746  -0.004389
    16  H    0.186071  -0.000321
    17  H    0.183652  -0.004793
    18  H    0.161367  -0.000249
    19  H    0.289207  -0.003155
 Sum of Mulliken charges =  -1.00000   1.00000

 Dipole moment (field-independent basis, Debye):
    X=              7.3730    Y=             -0.2826    Z=             -0.5494  Tot=              7.3988
 Quadrupole moment (field-independent basis, Debye-Ang):
   XX=            -89.5619   YY=           -109.3969   ZZ=            -80.8424
   XY=              0.7786   XZ=              0.7904   YZ=             -2.7553

  Exact polarizability: 267.407   8.834 275.784  -6.519  16.367  98.445
 Approx polarizability: 289.364  11.977 328.223  -6.610  19.959 111.545

                      1                      2                      3
                      A                      A                      A
 Frequencies --     91.2614               137.3408               172.9448
 Red. masses --      8.6902                 4.4486                 7.9402
 Frc consts  --      0.0426                 0.0494                 0.1399
 IR Inten    --      9.7930                 0.4946                 2.7259

                      4                      5                      6
                      A                      A                      A
 Frequencies --    239.3691               259.7830               313.2239
 Red. masses --      5.4632                 5.8629                 5.6585
 Frc consts  --      0.1844                 0.2331                 0.3271
 IR Inten    --      0.1129                 3.9368                27.2083

                      7                      8                      9
                      A                      A                      A
 Frequencies --    366.7860               389.9126               418.7157
 Red. masses --     11.1163                 4.8339                 9.7336
 Frc consts  --      0.8811                 0.4330                 1.0055
 IR Inten    --     29.2346                 0.2479                 4.4766

                     10                     11                     12
                      A                      A                      A
 Frequencies --    443.7527               472.0837               504.7263
 Red. masses --      4.0057                 9.0211                 3.5565
 Frc consts  --      0.4647                 1.1845                 0.5338
 IR Inten    --      3.7439                 7.6618                 0.3310

                     13                     14                     15
                      A                      A                      A
 Frequencies --    534.2238               636.1478               651.7209
 Red. masses --      9.0090                 1.1659                 6.5053
 Frc consts  --      1.5149                 0.2780                 1.6279
 IR Inten    --      1.3449               134.4377                23.1076

                     16                     17                     18
                      A                      A                      A
 Frequencies --    662.3965               680.7142               701.9492
 Red. masses --      3.2634                 5.4971                 3.6960
 Frc consts  --      0.8436                 1.5008                 1.0730
 IR Inten    --     12.7202                 6.2768                61.7832

                     19                     20                     21
                      A                      A                      A
 Frequencies --    727.1667               752.5913               780.3448
 Red. masses --      6.5473                 4.4040                 1.5163
 Frc consts  --      2.0398                 1.4697                 0.5440
 IR Inten    --     33.6634                 5.8800                87.9107

                     22                     23                     24
                      A                      A                      A
 Frequencies --    828.8116               829.8643               882.9787
 Red. masses --      4.4655                 1.5758                 1.3657
 Frc consts  --      1.8073                 0.6394                 0.6274
 IR Inten    --     42.7526                37.5018                 0.1005

                     25                     26                     27
                      A                      A                      A
 Frequencies --    983.1888               999.3408              1001.0493
 Red. masses --      1.3615                 1.3089                 6.1659
 Frc consts  --      0.7755                 0.7702                 3.6405
 IR Inten    --      2.6422                 2.8564               117.1430

                     28                     29                     30
                      A                      A                      A
 Frequencies --   1043.2466              1095.4836              1136.3433
 Red. masses --      2.0357                 3.0338                 1.7510
 Frc consts  --      1.3054                 2.1451                 1.3322
 IR Inten    --      4.7769                 5.5683                34.9995

                     31                     32                     33
                      A                      A                      A
 Frequencies --   1160.9918              1204.1143              1208.2348
 Red. masses --      1.2519                 3.1004                 1.4370
 Frc consts  --      0.9942                 2.6485                 1.2360
 IR Inten    --      2.8458               198.2545               332.1274

                     34                     35                     36
                      A                      A                      A
 Frequencies --   1251.2313              1256.4067              1324.3822
 Red. masses --      2.5769                 2.8490                 1.9868
 Frc consts  --      2.3769                 2.6497                 2.0532
 IR Inten    --     76.8889                 5.4974                88.1583

                     37                     38                     39
                      A                      A                      A
 Frequencies --   1347.0684              1440.3735              1459.5369
 Red. masses --      9.3053                 2.4387                 3.4931
 Frc consts  --      9.9485                 2.9810                 4.3842
 IR Inten    --     19.9289               600.3009               279.6415

                     40                     41                     42
                      A                      A                      A
 Frequencies --   1467.4545              1506.5696              1532.1840
 Red. masses --      3.7638                 4.8541                 5.1212
 Frc consts  --      4.7753                 6.4913                 7.0834
 IR Inten    --    378.0665              1020.8853               222.5246

                     43                     44                     45
                      A                      A                      A
 Frequencies --   1567.1947              1624.9493              1633.9069
 Red. masses --      4.9600                 5.9572                 6.5288
 Frc consts  --      7.1776                 9.2677                10.2692
 IR Inten    --     16.1434                19.9805                57.7116

                     46                     47                     48
                      A                      A                      A
 Frequencies --   3160.3823              3169.9315              3173.7945
 Red. masses --      1.0859                 1.0904                 1.0897
 Frc consts  --      6.3901                 6.4556                 6.4671
 IR Inten    --      8.5575                23.0111                18.0280

                     49                     50                     51
                      A                      A                      A
 Frequencies --   3186.6255              3192.1466              3554.2882
 Red. masses --      1.0928                 1.0943                 1.0639
 Frc consts  --      6.5382                 6.5697                 7.9190
 IR Inten    --     23.1448                30.5756               173.4841

 - Thermochemistry -
 -------------------
 Temperature   298.150 Kelvin.  Pressure   1.00000 Atm.
 Atom     1 has atomic number  8 and mass  15.99491

 Molecular mass:   174.03169 amu.
 Principal axes and moments of inertia in atomic units:
                           1         2         3
     Eigenvalues --  1424.813172295.820593720.63192
           X            0.94208  -0.33266   0.04269
           Y            0.33527   0.93752  -0.09303
           Z           -0.00907   0.10196   0.99475
 This molecule is an asymmetric top.
 Rotational symmetry number  1.
 Warning -- assumption of classical behavior for rotation
           may cause significant error
 Rotational temperatures (Kelvin)      0.06079     0.03773     0.02328
 Rotational constants (GHZ):           1.26665     0.78610     0.48506
 Zero-point vibrational energy     353850.8 (Joules/Mol)
                                   84.57237 (Kcal/Mol)
 Warning -- explicit consideration of  13 degrees of freedom as
           vibrations may cause significant error
 Vibrational temperatures:    131.30   197.60   248.83   344.40   373.77
          (Kelvin)            450.66   527.72   561.00   602.44   638.46
                              679.22   726.19   768.63   915.27   937.68
                              953.04   979.40  1009.95  1046.23  1082.81
                             1122.74  1192.48  1193.99  1270.41  1414.59
                             1437.83  1440.29  1501.00  1576.16  1634.94
                             1670.41  1732.45  1738.38  1800.24  1807.69
                             1905.49  1938.13  2072.38  2099.95  2111.34
                             2167.62  2204.47  2254.84  2337.94  2350.83
                             4547.09  4560.82  4566.38  4584.84  4592.79
                             5113.83

 Zero-point correction=                           0.134775 (Hartree/Particle)
 Thermal correction to Energy=                    0.144336
 Thermal correction to Enthalpy=                  0.145281
 Thermal correction to Gibbs Free Energy=         0.099238
 Sum of electronic and zero-point Energies=           -610.536573
 Sum of electronic and thermal Energies=              -610.527012
 Sum of electronic and thermal Enthalpies=            -610.526067
 Sum of electronic and thermal Free Energies=         -610.572110

                     E (Thermal)             CV                S
                      KCal/Mol        Cal/Mol-Kelvin    Cal/Mol-Kelvin
 Total                   90.572             38.661             96.905
 Electronic               0.000              0.000              1.377
 Translational            0.889              2.981             41.370
 Rotational               0.889              2.981             30.877
 Vibrational             88.795             32.699             23.281
 Vibration     1          0.602              1.955              3.633
 Vibration     2          0.614              1.916              2.841
 Vibration     3          0.626              1.876              2.403
 Vibration     4          0.657              1.780              1.808
 Vibration     5          0.668              1.746              1.663
 Vibration     6          0.701              1.648              1.345
 Vibration     7          0.740              1.541              1.093
 Vibration     8          0.758              1.492              1.000
 Vibration     9          0.782              1.430              0.896
 Vibration    10          0.803              1.375              0.815
 Vibration    11          0.829              1.312              0.732
 Vibration    12          0.860              1.240              0.646
 Vibration    13          0.889              1.174              0.578

 Optimization completed.
    -- Stationary point found.
 Normal termination of Gaussian 16 at Sun Feb 11 01:34:52 2024.
