 Gaussian 16, Revision A.03,
 Gaussian 16:  ES64L-G16RevA.03 25-Dec-2016

 ----------------------------------------------------------------
 #P UB3LYP/6-311++G(d,p) SCRF=(PCM,Solvent=n,n-DiMethylFormamide)
 ----------------------------------------------------------------

 ------------------
 Radical PCM in DMF
 ------------------
 Symbolic Z-matrix:
 Charge = -1 Multiplicity = 2

                         Standard orientation:
 ---------------------------------------------------------------------
 Center     Atomic      Atomic             Coordinates (Angstroms)
 Number     Number       Type             X           Y           Z
 ---------------------------------------------------------------------
      1          6           0        2.333857    3.637398   -0.310140
      2          6           0        2.535598    2.274410    0.296305
      3          8           0        2.632935    2.033475    1.470016
      4          8           0        2.642100    1.341184   -0.690429
      5          6           0        2.525034   -0.013200   -0.354736
      6          6           0        3.699087   -0.731587   -0.312184
      7          6           0        3.667001   -2.118707   -0.081226
      8          6           0        2.454093   -2.748777    0.086430
      9          6           0        1.242965   -2.027729    0.030848
     10          6           0       -0.002548   -2.779363    0.179302
     11          8           0       -0.003641   -4.015135    0.395381
     12          6           0       -1.246749   -2.025729    0.029973
     13          6           0       -2.459050   -2.744875    0.084490
     14          6           0       -3.670859   -2.112776   -0.083535
     15          6           0       -3.700603   -0.725437   -0.313486
     16          6           0       -2.525373   -0.008895   -0.355025
     17          8           0       -2.640234    1.346022   -0.689229
     18          6           0       -2.530927    2.277952    0.298473
     19          6           0       -2.327418    3.641253   -0.306677
     20          8           0       -2.627656    2.035863    1.471984
     21          6           0       -1.249994   -0.611954   -0.183134
     22          6           0       -0.000043    0.160071   -0.221652
     23          8           0        0.000973    1.416824   -0.274689
     24          6           0        1.248620   -0.614022   -0.182774
     25          1           0        1.321555    3.663921   -0.717715
     26          1           0        2.451333    4.402872    0.455251
     27          1           0        3.035816    3.802740   -1.130478
     28          1           0        4.634312   -0.204966   -0.462744
     29          1           0        4.594115   -2.681148   -0.040573
     30          1           0        2.383636   -3.815798    0.258165
     31          1           0       -2.390361   -3.812082    0.255770
     32          1           0       -4.598890   -2.673765   -0.043749
     33          1           0       -4.634921   -0.197175   -0.463940
     34          1           0       -2.441056    4.405946    0.460065
     35          1           0       -1.316203    3.666006   -0.717024
     36          1           0       -3.031307    3.809376   -1.124814
 ---------------------------------------------------------------------

 SCF Done:  E(UB3LYP) =  -1144.98237786     A.U. after   19 cycles

 The electronic state is 2-A.
 Alpha  occ. eigenvalues --  -19.17249 -19.17247 -19.12070 -19.12070 -19.07978
 Alpha  occ. eigenvalues --  -19.07967 -10.31255 -10.31254 -10.24259 -10.24258
 Alpha  occ. eigenvalues --  -10.23780 -10.22880 -10.18807 -10.18806 -10.18091
 Alpha  occ. eigenvalues --  -10.18091 -10.17970 -10.17970 -10.17861 -10.17860
 Alpha  occ. eigenvalues --  -10.17417 -10.17416 -10.17329 -10.17328  -1.11738
 Alpha  occ. eigenvalues --   -1.11692  -1.03743  -1.03673  -1.00920  -1.00691
 Alpha  occ. eigenvalues --   -0.87088  -0.86055  -0.79573  -0.77826  -0.77730
 Alpha  occ. eigenvalues --   -0.75082  -0.73795  -0.73510  -0.67912  -0.65551
 Alpha  occ. eigenvalues --   -0.64268  -0.62856  -0.61462  -0.55760  -0.55730
 Alpha  occ. eigenvalues --   -0.52494  -0.52373  -0.49725  -0.49718  -0.48886
 Alpha  occ. eigenvalues --   -0.48732  -0.48691  -0.48645  -0.47357  -0.46504
 Alpha  occ. eigenvalues --   -0.45949  -0.44925  -0.43130  -0.42772  -0.41800
 Alpha  occ. eigenvalues --   -0.41546  -0.41155  -0.40860  -0.40315  -0.39971
 Alpha  occ. eigenvalues --   -0.39380  -0.38683  -0.38280  -0.37764  -0.37215
 Alpha  occ. eigenvalues --   -0.36421  -0.35814  -0.35268  -0.34424  -0.32631
 Alpha  occ. eigenvalues --   -0.32165  -0.29201  -0.29182  -0.27514  -0.25876
 Alpha  occ. eigenvalues --   -0.25764  -0.25732  -0.25008  -0.23767  -0.14692
 Alpha virt. eigenvalues --   -0.05903  -0.03012  -0.00914  -0.00739  -0.00290
 Alpha virt. eigenvalues --    0.00070   0.00448   0.00582   0.01771   0.01996
 Alpha virt. eigenvalues --    0.02864   0.02973   0.03540   0.04174   0.04391

  Beta  occ. eigenvalues --  -19.17246 -19.17245 -19.12070 -19.12070 -19.07430
  Beta  occ. eigenvalues --  -19.07390 -10.31253 -10.31252 -10.24256 -10.24255
  Beta  occ. eigenvalues --  -10.23622 -10.22713 -10.18734 -10.18733 -10.18007
  Beta  occ. eigenvalues --  -10.18006 -10.17917 -10.17917 -10.17808 -10.17808
  Beta  occ. eigenvalues --  -10.17417 -10.17417 -10.17325 -10.17325  -1.11728
  Beta  occ. eigenvalues --   -1.11686  -1.03721  -1.03670  -0.99959  -0.99698
  Beta  occ. eigenvalues --   -0.86833  -0.85941  -0.79180  -0.77697  -0.77667
  Beta  occ. eigenvalues --   -0.74894  -0.73635  -0.73446  -0.67223  -0.65413
  Beta  occ. eigenvalues --   -0.64171  -0.62670  -0.61294  -0.55623  -0.55510
  Beta  occ. eigenvalues --   -0.52408  -0.52172  -0.49701  -0.49673  -0.48787
  Beta  occ. eigenvalues --   -0.48694  -0.48585  -0.48566  -0.47209  -0.46444
  Beta  occ. eigenvalues --   -0.45833  -0.44878  -0.42632  -0.42368  -0.41523
  Beta  occ. eigenvalues --   -0.41281  -0.40833  -0.40506  -0.40284  -0.39761
  Beta  occ. eigenvalues --   -0.39190  -0.38267  -0.38032  -0.37070  -0.36267
  Beta  occ. eigenvalues --   -0.36194  -0.35650  -0.34980  -0.33328  -0.32574
  Beta  occ. eigenvalues --   -0.32052  -0.29180  -0.29172  -0.25487  -0.25481
  Beta  occ. eigenvalues --   -0.25203  -0.24744  -0.24498  -0.23272
  Beta virt. eigenvalues --   -0.08837  -0.04894  -0.01946  -0.00718  -0.00711
  Beta virt. eigenvalues --   -0.00272   0.00120   0.00457   0.00587   0.01772
  Beta virt. eigenvalues --    0.02009   0.02891   0.02999   0.03538   0.04248

 Mulliken charges and spin densities:
               1          2
     1  C   -0.432289   0.000939
     2  C   -0.028958   0.000457
     3  O   -0.268845  -0.000437
     4  O    0.028793  -0.001766
     5  C   -0.316746   0.035888
     6  C    0.185504   0.043075
     7  C   -0.456053   0.042789
     8  C   -0.187136   0.025343
     9  C    0.383651   0.033074
    10  C   -0.731821   0.091959
    11  O   -0.440114   0.204618
    12  C    0.384508   0.033096
    13  C   -0.186280   0.025360
    14  C   -0.456289   0.042778
    15  C    0.185389   0.043076
    16  C   -0.315834   0.035905
    17  O    0.028661  -0.001763
    18  C   -0.029040   0.000466
    19  C   -0.432248   0.000936
    20  O   -0.268827  -0.000437
    21  C    0.403957   0.041350
    22  C   -0.332198   0.056354
    23  O   -0.399386   0.221758
    24  C    0.403975   0.041411
    25  H    0.231644  -0.000044
    26  H    0.164004  -0.000159
    27  H    0.178872   0.000175
    28  H    0.195707  -0.003432
    29  H    0.198524  -0.003215
    30  H    0.170101  -0.001440
    31  H    0.170117  -0.001439
    32  H    0.198520  -0.003215
    33  H    0.195708  -0.003431
    34  H    0.164026  -0.000159
    35  H    0.231477  -0.000046
    36  H    0.178928   0.000176
 Sum of Mulliken charges =  -1.00000   1.00000

 Dipole moment (field-independent basis, Debye):
    X=              0.0038    Y=              5.8152    Z=             -5.1993  Tot=              7.8006
 Quadrupole moment (field-independent basis, Debye-Ang):
   XX=           -137.6998   YY=           -164.7331   ZZ=           -156.2958
   XY=             -0.0376   XZ=             -0.0093   YZ=             -7.0515

 Normal termination of Gaussian 16 at Sun Jan 14 01:24:11 2024.
