 Gaussian 16, Revision A.03,
 Gaussian 16:  ES64L-G16RevA.03 25-Dec-2016

 ----------------------------------------------------------------
 #P UB3LYP/6-311++G(d,p) SCRF=(PCM,Solvent=n,n-DiMethylFormamide)
 ----------------------------------------------------------------

 -------
 Reduced
 -------
 Symbolic Z-matrix:
 Charge = -2 Multiplicity = 1

                         Standard orientation:
 ---------------------------------------------------------------------
 Center     Atomic      Atomic             Coordinates (Angstroms)
 Number     Number       Type             X           Y           Z
 ---------------------------------------------------------------------
      1          6           0       -0.769745   -0.926596   -0.539843
      2          6           0       -2.123165   -1.424928   -0.406034
      3          6           0       -3.201591   -0.655736   -0.034581
      4          6           0       -3.063814    0.766414    0.284121
      5          6           0       -1.744887    1.254279    0.198122
      6          8           0        0.146963   -1.673920   -1.017013
      7          8           0       -4.102037    1.458894    0.629215
      8          1           0       -2.261040   -2.475076   -0.665995
      9          6           0       -0.601379    0.469042   -0.143373
     10          6           0        0.686966    1.135915   -0.161079
     11          6           0        1.991326    0.372999   -0.018650
     12          6           0        3.149569    0.917518   -0.592686
     13          6           0        2.135935   -0.758634    0.796932
     14          6           0        4.405106    0.345997   -0.380400
     15          6           0        4.535751   -0.772837    0.441893
     16          6           0        3.389115   -1.315543    1.035522
     17          8           0        0.817066    2.382887   -0.213480
     18          1           0        3.041513    1.812198   -1.195383
     19          1           0        1.250245   -1.197468    1.237149
     20          1           0        5.286945    0.783417   -0.845238
     21          1           0        5.514479   -1.210706    0.626265
     22          1           0        3.474763   -2.187608    1.678980
     23          6           0       -4.584379   -1.245403    0.062000
     24          1           0       -1.577152    2.297846    0.444167
     25          1           0       -4.581563   -2.314535   -0.182529
     26          1           0       -5.277842   -0.722295   -0.608568
     27          1           0       -4.995125   -1.103575    1.069714
 ---------------------------------------------------------------------

 SCF Done:  E(UB3LYP) =  -765.640301128     A.U. after   19 cycles

 The electronic state is 1-A.
 Alpha  occ. eigenvalues --  -19.06921 -19.02935 -19.01440 -10.22220 -10.18976
 Alpha  occ. eigenvalues --  -10.17048 -10.16968 -10.16913 -10.16850 -10.16722
 Alpha  occ. eigenvalues --  -10.16548 -10.16492 -10.14751 -10.14481 -10.13037
 Alpha  occ. eigenvalues --  -10.12782 -10.11458  -0.99360  -0.95060  -0.92808
 Alpha  occ. eigenvalues --   -0.84847  -0.78852  -0.75173  -0.73916  -0.73358
 Alpha  occ. eigenvalues --   -0.67197  -0.65299  -0.60961  -0.59692  -0.56410
 Alpha  occ. eigenvalues --   -0.54568  -0.52266  -0.48566  -0.45309  -0.44865
 Alpha  occ. eigenvalues --   -0.43852  -0.42360  -0.41347  -0.41222  -0.40145
 Alpha  occ. eigenvalues --   -0.39862  -0.38584  -0.37660  -0.36457  -0.36131
 Alpha  occ. eigenvalues --   -0.35595  -0.34896  -0.33726  -0.33359  -0.32510
 Alpha  occ. eigenvalues --   -0.31533  -0.31209  -0.25245  -0.25123  -0.22864
 Alpha  occ. eigenvalues --   -0.22735  -0.21458  -0.19886  -0.19303  -0.12429
 Alpha virt. eigenvalues --   -0.04361  -0.00591   0.00039   0.00523   0.00616
 Alpha virt. eigenvalues --    0.01674   0.02155   0.02427   0.03297   0.03978
 Alpha virt. eigenvalues --    0.04316   0.04891   0.05206   0.05531   0.05681

  Beta  occ. eigenvalues --  -19.06921 -19.02935 -19.01440 -10.22220 -10.18976
  Beta  occ. eigenvalues --  -10.17048 -10.16968 -10.16913 -10.16850 -10.16722
  Beta  occ. eigenvalues --  -10.16548 -10.16492 -10.14751 -10.14481 -10.13037
  Beta  occ. eigenvalues --  -10.12782 -10.11458  -0.99360  -0.95060  -0.92808
  Beta  occ. eigenvalues --   -0.84847  -0.78852  -0.75173  -0.73916  -0.73358
  Beta  occ. eigenvalues --   -0.67197  -0.65299  -0.60961  -0.59692  -0.56410
  Beta  occ. eigenvalues --   -0.54568  -0.52266  -0.48566  -0.45309  -0.44865
  Beta  occ. eigenvalues --   -0.43852  -0.42360  -0.41347  -0.41222  -0.40145
  Beta  occ. eigenvalues --   -0.39862  -0.38584  -0.37660  -0.36457  -0.36131
  Beta  occ. eigenvalues --   -0.35595  -0.34896  -0.33726  -0.33359  -0.32510
  Beta  occ. eigenvalues --   -0.31533  -0.31209  -0.25245  -0.25123  -0.22864
  Beta  occ. eigenvalues --   -0.22735  -0.21458  -0.19886  -0.19303  -0.12429
  Beta virt. eigenvalues --   -0.04361  -0.00591   0.00039   0.00523   0.00616
  Beta virt. eigenvalues --    0.01674   0.02155   0.02427   0.03297   0.03978
  Beta virt. eigenvalues --    0.04316   0.04891   0.05206   0.05531   0.05681

 Mulliken charges and spin densities:
               1          2
     1  C   -1.077777   0.000000
     2  C   -0.548539  -0.000000
     3  C    0.787430   0.000000
     4  C   -0.530753   0.000000
     5  C   -0.035648   0.000000
     6  O   -0.549676  -0.000000
     7  O   -0.707760   0.000000
     8  H    0.132187  -0.000000
     9  C    1.309758   0.000000
    10  C   -0.967876  -0.000000
    11  C    1.248543  -0.000000
    12  C    0.191182  -0.000000
    13  C   -0.863542  -0.000000
    14  C   -0.378452  -0.000000
    15  C   -0.366185  -0.000000
    16  C   -0.308060   0.000000
    17  O   -0.415362   0.000000
    18  H    0.200195  -0.000000
    19  H    0.169133  -0.000000
    20  H    0.183362  -0.000000
    21  H    0.171840   0.000000
    22  H    0.188924  -0.000000
    23  C   -0.415547   0.000000
    24  H    0.146925   0.000000
    25  H    0.132107   0.000000
    26  H    0.153310   0.000000
    27  H    0.150279   0.000000
 Sum of Mulliken charges =  -2.00000  -0.00000

 Dipole moment (field-independent basis, Debye):
    X=             13.4142    Y=             -6.4631    Z=              1.2793  Tot=             14.9448
 Quadrupole moment (field-independent basis, Debye-Ang):
   XX=           -172.0866   YY=           -139.5990   ZZ=           -113.0608
   XY=             20.2348   XZ=              9.8308   YZ=            -11.7645

 Normal termination of Gaussian 16 at Wed Jan 24 22:53:28 2024.
