 Q-Chem 5.4, Q-Chem, Inc., Pleasanton, CA (2021)
 Q-Chem 5.4.0 for Intel X86 EM64T Linux

User input:
--------------------------------------------------------------
$molecule
-1 2
C                 -3.4283940000     -2.7383470000     -0.3569740000
O                 -2.1388010000     -2.1983880000     -0.2002020000
C                 -1.9908230000     -0.8343750000     -0.2016110000
C                 -3.0783670000      0.0160410000     -0.3536250000
C                 -2.9178290000      1.4097220000     -0.3541690000
C                 -1.6639420000      1.9708790000     -0.2023000000
O                 -1.5423360000      3.3163850000     -0.2072650000
C                 -0.5173910000      1.1257250000     -0.0428300000
C                  0.7766220000      1.7592470000      0.1128030000
O                  0.9044770000      3.0374450000      0.1097550000
C                  1.9373530000      0.9096160000      0.2736540000
C                  3.2196880000      1.4861320000      0.4282570000
C                  4.3378890000      0.6929290000      0.5826660000
C                  4.2093820000     -0.7129990000      0.5876070000
C                  2.9631720000     -1.2910670000      0.4377590000
C                  1.8060220000     -0.5016080000      0.2784410000
C                  0.5023220000     -1.1768000000      0.1229370000
O                  0.4527750000     -2.4237830000      0.1365190000
C                 -0.6734270000     -0.3058660000     -0.0409860000
H                 -3.3001900000     -3.8212390000     -0.3244780000
H                 -4.1073640000     -2.4332470000      0.4516270000
H                 -3.8810260000     -2.4595630000     -1.3189150000
H                 -4.0747140000     -0.3867870000     -0.4750200000
H                 -3.7724040000      2.0661580000     -0.4735250000
H                 -0.5501900000      3.4825830000     -0.0829830000
H                  3.2882370000      2.5673690000      0.4206280000
H                  5.3167060000      1.1486030000      0.7004190000
H                  5.0891910000     -1.3378770000      0.7090780000
H                  2.8333620000     -2.3668880000      0.4376420000
$end

$rem
BASIS  =  6-311++G(d,p)
GUI  =  2
JOB_TYPE  =  SP
METHOD  =  B3LYP
SCF_CONVERGENCE  = 8
SOLVENT_METHOD = sm12
$end

$smx
solvent dimethylformamide
charges CM5
$end

--------------------------------------------------------------

             Standard Nuclear Orientation (Angstroms)
    I     Atom           X                Y                Z
 ----------------------------------------------------------------
    1      C      -3.4283940000    -2.7383470000    -0.3569740000
    2      O      -2.1388010000    -2.1983880000    -0.2002020000
    3      C      -1.9908230000    -0.8343750000    -0.2016110000
    4      C      -3.0783670000     0.0160410000    -0.3536250000
    5      C      -2.9178290000     1.4097220000    -0.3541690000
    6      C      -1.6639420000     1.9708790000    -0.2023000000
    7      O      -1.5423360000     3.3163850000    -0.2072650000
    8      C      -0.5173910000     1.1257250000    -0.0428300000
    9      C       0.7766220000     1.7592470000     0.1128030000
   10      O       0.9044770000     3.0374450000     0.1097550000
   11      C       1.9373530000     0.9096160000     0.2736540000
   12      C       3.2196880000     1.4861320000     0.4282570000
   13      C       4.3378890000     0.6929290000     0.5826660000
   14      C       4.2093820000    -0.7129990000     0.5876070000
   15      C       2.9631720000    -1.2910670000     0.4377590000
   16      C       1.8060220000    -0.5016080000     0.2784410000
   17      C       0.5023220000    -1.1768000000     0.1229370000
   18      O       0.4527750000    -2.4237830000     0.1365190000
   19      C      -0.6734270000    -0.3058660000    -0.0409860000
   20      H      -3.3001900000    -3.8212390000    -0.3244780000
   21      H      -4.1073640000    -2.4332470000     0.4516270000
   22      H      -3.8810260000    -2.4595630000    -1.3189150000
   23      H      -4.0747140000    -0.3867870000    -0.4750200000
   24      H      -3.7724040000     2.0661580000    -0.4735250000
   25      H      -0.5501900000     3.4825830000    -0.0829830000
   26      H       3.2882370000     2.5673690000     0.4206280000
   27      H       5.3167060000     1.1486030000     0.7004190000
   28      H       5.0891910000    -1.3378770000     0.7090780000
   29      H       2.8333620000    -2.3668880000     0.4376420000
 ----------------------------------------------------------------

   18    -878.8201626553      8.26e-09  Convergence criterion met
 Total energy in the final basis set =     -878.9097605797

                    Orbital Energies (a.u.)
 --------------------------------------------------------------

 Alpha MOs
 -- Occupied --
-19.1446 -19.1239 -19.0892 -19.0734 -10.2354 -10.2323 -10.2317 -10.2314
-10.2148 -10.1839 -10.1830 -10.1826 -10.1818 -10.1805 -10.1793 -10.1791
-10.1779 -10.1764 -10.1718  -1.0635  -1.0499  -1.0042  -1.0023  -0.8669
 -0.8515  -0.7931  -0.7595  -0.7548  -0.7457  -0.6941  -0.6758  -0.6419
 -0.6315  -0.5891  -0.5738  -0.5449  -0.5374  -0.5190  -0.4959  -0.4801
 -0.4705  -0.4644  -0.4633  -0.4414  -0.4330  -0.4323  -0.4233  -0.4197
 -0.4056  -0.4034  -0.3982  -0.3899  -0.3839  -0.3620  -0.3593  -0.3571
 -0.3468  -0.3438  -0.3301  -0.2983  -0.2736  -0.2637  -0.2576  -0.2556
 -0.2310  -0.2145  -0.1447

 Beta MOs
 -- Occupied --
-19.1445 -19.1234 -19.0839 -19.0680 -10.2353 -10.2313 -10.2307 -10.2298
-10.2148 -10.1833 -10.1828 -10.1825 -10.1810 -10.1801 -10.1788 -10.1784
-10.1779 -10.1753 -10.1710  -1.0632  -1.0479  -0.9954  -0.9934  -0.8646
 -0.8499  -0.7891  -0.7571  -0.7534  -0.7440  -0.6926  -0.6691  -0.6400
 -0.6292  -0.5882  -0.5722  -0.5425  -0.5364  -0.5181  -0.4940  -0.4785
 -0.4692  -0.4633  -0.4617  -0.4405  -0.4317  -0.4237  -0.4201  -0.4186
 -0.4036  -0.4000  -0.3914  -0.3888  -0.3698  -0.3612  -0.3580  -0.3465
 -0.3422  -0.3372  -0.3295  -0.2934  -0.2577  -0.2532  -0.2525  -0.2513
 -0.2261  -0.2049

          Ground-State Mulliken Net Atomic Charges

     Atom                 Charge (a.u.)    Spin (a.u.)
  --------------------------------------------------------
      1 C                     0.140043      -0.000982
      2 O                    -0.108804       0.003014
      3 C                    -0.215123       0.015634
      4 C                     2.009887       0.092722
      5 C                     0.513295       0.062757
      6 C                    -0.718314       0.049214
      7 O                    -0.354071       0.015005
      8 C                    -0.842287      -0.023424
      9 C                    -1.963103       0.142510
     10 O                    -0.331615       0.193953
     11 C                    -1.031426      -0.015927
     12 C                     0.184212       0.057566
     13 C                     1.130085       0.006012
     14 C                     0.951715       0.067273
     15 C                     0.089527       0.002306
     16 C                    -0.932054       0.072144
     17 C                    -1.631665       0.017506
     18 O                    -0.285566       0.207085
     19 C                    -0.366716       0.056786
     20 H                     0.277845      -0.000190
     21 H                     0.211432       0.000844
     22 H                     0.211384       0.000828
     23 H                     0.406864      -0.005564
     24 H                     0.255786      -0.005145
     25 H                     0.349619      -0.004135
     26 H                     0.180182      -0.002216
     27 H                     0.363893      -0.000974
     28 H                     0.349079      -0.004673
     29 H                     0.155899       0.000071
  --------------------------------------------------------
  Sum of atomic charges =    -1.000000

                    Cartesian Multipole Moments
 -----------------------------------------------------------------
    Charge (ESU x 10^10)
                -4.8032
    Dipole Moment (Debye)
         X      -2.5885      Y      -3.6814      Z      -0.4721
       Tot       4.5250
    Quadrupole Moments (Debye-Ang)
        XX    -111.7166     XY       8.7754     YY    -147.8384
        XZ       0.4514     YZ       1.4477     ZZ    -117.1286

 Total job time:  907.43s(wall), 6871.62s(cpu)
        *  Thank you very much for using Q-Chem.  Have a nice day.  *
