 Gaussian 16, Revision A.03,
 Gaussian 16:  ES64L-G16RevA.03 25-Dec-2016

 ----------------------------------------------------------------
 #P UB3LYP/6-311++G(d,p) SCRF=(PCM,Solvent=n,n-DiMethylFormamide)
 ----------------------------------------------------------------

 -------
 Reduced
 -------
 Symbolic Z-matrix:
 Charge = -2 Multiplicity = 1

                         Standard orientation:
 ---------------------------------------------------------------------
 Center     Atomic      Atomic             Coordinates (Angstroms)
 Number     Number       Type             X           Y           Z
 ---------------------------------------------------------------------
      1          6           0        1.137956   -1.870016    0.000061
      2          6           0        2.450560   -1.466230    0.000006
      3          6           0        2.757868   -0.057589   -0.000008
      4          6           0        0.048529   -0.956548    0.000013
      5          6           0        0.359097    0.466387    0.000050
      6          6           0        1.699749    0.862452   -0.000001
      7          6           0       -1.301956   -1.445610    0.000050
      8          6           0       -2.308489   -0.414499   -0.000176
      9          6           0       -2.022187    0.965957    0.000106
     10          6           0       -0.684920    1.486686    0.000014
     11          8           0       -1.593290   -2.709285    0.000225
     12          8           0       -0.417025    2.745645   -0.000137
     13          6           0        4.103085    0.377536   -0.000044
     14          7           0        5.225410    0.704279   -0.000066
     15          1           0        0.878377   -2.924387    0.000113
     16          1           0        3.261710   -2.188860    0.000017
     17          1           0        1.895516    1.930002   -0.000016
     18          6           0       -3.744535   -0.886315   -0.000471
     19          6           0       -3.143272    1.979941    0.000366
     20          1           0       -3.742190   -1.978816   -0.005197
     21          1           0       -4.301805   -0.525284   -0.878671
     22          1           0       -4.299341   -0.533850    0.882882
     23          1           0       -3.795362    1.887219   -0.882601
     24          1           0       -2.700960    2.978908    0.004484
     25          1           0       -3.800195    1.881312    0.878958
 ---------------------------------------------------------------------

 SCF Done:  E(UB3LYP) =  -706.441673519     A.U. after   18 cycles

 The electronic state is 1-A.
 Alpha  occ. eigenvalues --  -19.02341 -19.01458 -14.30036 -10.20540 -10.18346
 Alpha  occ. eigenvalues --  -10.17828 -10.16979 -10.16647 -10.16050 -10.15129
 Alpha  occ. eigenvalues --  -10.14360 -10.13832 -10.13709 -10.13692 -10.13644
 Alpha  occ. eigenvalues --  -10.13229  -0.94107  -0.92927  -0.89955  -0.83670
 Alpha  occ. eigenvalues --   -0.78615  -0.74632  -0.73443  -0.69963  -0.66142
 Alpha  occ. eigenvalues --   -0.63764  -0.59127  -0.57300  -0.53460  -0.50647
 Alpha  occ. eigenvalues --   -0.47841  -0.44435  -0.43933  -0.40984  -0.40936
 Alpha  occ. eigenvalues --   -0.39439  -0.38754  -0.38367  -0.37381  -0.36815
 Alpha  occ. eigenvalues --   -0.36242  -0.35897  -0.35577  -0.35194  -0.34065
 Alpha  occ. eigenvalues --   -0.32471  -0.31796  -0.31303  -0.30374  -0.30334
 Alpha  occ. eigenvalues --   -0.23896  -0.22577  -0.20727  -0.20393  -0.19301
 Alpha  occ. eigenvalues --   -0.11494
 Alpha virt. eigenvalues --   -0.03306  -0.00249  -0.00205   0.00700   0.01597
 Alpha virt. eigenvalues --    0.02847   0.03041   0.03216   0.03524   0.04564
 Alpha virt. eigenvalues --    0.05337   0.05356   0.05754   0.06106   0.06469

  Beta  occ. eigenvalues --  -19.02341 -19.01458 -14.30036 -10.20540 -10.18346
  Beta  occ. eigenvalues --  -10.17828 -10.16979 -10.16647 -10.16050 -10.15129
  Beta  occ. eigenvalues --  -10.14360 -10.13832 -10.13709 -10.13692 -10.13644
  Beta  occ. eigenvalues --  -10.13229  -0.94107  -0.92927  -0.89955  -0.83670
  Beta  occ. eigenvalues --   -0.78615  -0.74632  -0.73443  -0.69963  -0.66142
  Beta  occ. eigenvalues --   -0.63764  -0.59127  -0.57300  -0.53460  -0.50647
  Beta  occ. eigenvalues --   -0.47841  -0.44435  -0.43933  -0.40984  -0.40936
  Beta  occ. eigenvalues --   -0.39439  -0.38754  -0.38367  -0.37381  -0.36815
  Beta  occ. eigenvalues --   -0.36242  -0.35897  -0.35577  -0.35194  -0.34065
  Beta  occ. eigenvalues --   -0.32471  -0.31796  -0.31303  -0.30374  -0.30334
  Beta  occ. eigenvalues --   -0.23896  -0.22577  -0.20727  -0.20393  -0.19301
  Beta  occ. eigenvalues --   -0.11494
  Beta virt. eigenvalues --   -0.03306  -0.00249  -0.00205   0.00700   0.01597
  Beta virt. eigenvalues --    0.02847   0.03041   0.03216   0.03524   0.04564
  Beta virt. eigenvalues --    0.05337   0.05356   0.05754   0.06106   0.06469

 Mulliken charges and spin densities:
               1          2
     1  C   -0.047050   0.000000
     2  C   -0.719097  -0.000000
     3  C    1.293376   0.000000
     4  C    0.128002  -0.000000
     5  C   -0.110909  -0.000000
     6  C    0.210791  -0.000000
     7  C   -0.583719  -0.000000
     8  C    0.426536   0.000000
     9  C    0.656877  -0.000000
    10  C   -0.611966   0.000000
    11  O   -0.687659   0.000000
    12  O   -0.642404  -0.000000
    13  C   -1.373540  -0.000000
    14  N   -0.361582   0.000000
    15  H    0.142457  -0.000000
    16  H    0.176919   0.000000
    17  H    0.163337  -0.000000
    18  C   -0.477568   0.000000
    19  C   -0.460962  -0.000000
    20  H    0.176020   0.000000
    21  H    0.132907  -0.000000
    22  H    0.133394  -0.000000
    23  H    0.132608   0.000000
    24  H    0.170995  -0.000000
    25  H    0.132236   0.000000
 Sum of Mulliken charges =  -2.00000  -0.00000

 Dipole moment (field-independent basis, Debye):
    X=             -2.7192    Y=             -0.4804    Z=              0.0001  Tot=              2.7613
 Quadrupole moment (field-independent basis, Debye-Ang):
   XX=           -170.6883   YY=           -154.9178   ZZ=           -103.0154
   XY=            -19.2874   XZ=              0.0009   YZ=              0.0036

 Normal termination of Gaussian 16 at Sun Jan 21 08:43:32 2024.
