 Gaussian 16, Revision A.03,
 Gaussian 16:  ES64L-G16RevA.03 25-Dec-2016

 --------------------------------------
 #P UB3LYP/6-311++G(d,p) nosym opt freq
 --------------------------------------

 -------
 Reduced
 -------
 Symbolic Z-matrix:
 Charge = -2 Multiplicity = 1

 SCF Done:  E(UB3LYP) =  -763.138644388     A.U. after   53 cycles
 SCF Done:  E(UB3LYP) =  -763.170299724     A.U. after   31 cycles
 SCF Done:  E(UB3LYP) =  -763.180588814     A.U. after   36 cycles
 SCF Done:  E(UB3LYP) =  -763.183003909     A.U. after   31 cycles
 SCF Done:  E(UB3LYP) =  -763.183994231     A.U. after   29 cycles
 SCF Done:  E(UB3LYP) =  -763.182185490     A.U. after   23 cycles
 SCF Done:  E(UB3LYP) =  -763.184651512     A.U. after   24 cycles
 SCF Done:  E(UB3LYP) =  -763.184152007     A.U. after   23 cycles
 SCF Done:  E(UB3LYP) =  -763.185089824     A.U. after   23 cycles
 SCF Done:  E(UB3LYP) =  -763.185396537     A.U. after   20 cycles
 SCF Done:  E(UB3LYP) =  -763.204619769     A.U. after   13 cycles
 SCF Done:  E(UB3LYP) =  -763.204643420     A.U. after   13 cycles
 SCF Done:  E(UB3LYP) =  -763.204644788     A.U. after   11 cycles
 SCF Done:  E(UB3LYP) =  -763.204646526     A.U. after   12 cycles
 SCF Done:  E(UB3LYP) =  -763.204646943     A.U. after   11 cycles
 SCF Done:  E(UB3LYP) =  -763.204647472     A.U. after   11 cycles
 SCF Done:  E(UB3LYP) =  -763.204647890     A.U. after   11 cycles
 SCF Done:  E(UB3LYP) =  -763.204648091     A.U. after   11 cycles
 SCF Done:  E(UB3LYP) =  -763.204648164     A.U. after   11 cycles
 Optimization completed.
    -- Stationary point found.
 Normal termination of Gaussian 16 at Tue Dec 26 23:06:45 2023.

 ----------------------------------------------------------------------
 #P Geom=AllCheck Guess=TCheck SCRF=Check GenChk UB3LYP/6-311++G(d,p) F
 req
 ----------------------------------------------------------------------

 Structure from the checkpoint file:  "262-an.chk"
 -------
 Reduced
 -------
 Charge = -2 Multiplicity = 1

                          Input orientation:
 ---------------------------------------------------------------------
 Center     Atomic      Atomic             Coordinates (Angstroms)
 Number     Number       Type             X           Y           Z
 ---------------------------------------------------------------------
      1          6           0        3.306822   -1.948141    0.365593
      2          6           0        2.002875   -1.744810   -0.375970
      3          8           0        1.911401   -1.694676   -1.582815
      4          8           0        2.030872    0.785814    0.438804
      5          6           0        0.841123    1.237240    0.262281
      6          6           0        0.569604    2.631925    0.217763
      7          6           0       -0.716972    3.149651    0.003364
      8          6           0       -1.807004    2.316124   -0.175226
      9          6           0       -1.637868    0.909471   -0.134520
     10          6           0       -2.844678    0.064067   -0.310288
     11          8           0       -3.999014    0.579269   -0.506948
     12          6           0       -2.621180   -1.335999   -0.236188
     13          6           0       -1.343329   -1.876543   -0.011612
     14          6           0       -0.239911   -1.069534    0.139166
     15          8           0        0.983212   -1.711621    0.497916
     16          6           0       -0.331920    0.350947    0.088471
     17          1           0        3.550506   -0.973480    0.795905
     18          1           0        4.086900   -2.272233   -0.325967
     19          1           0        3.184854   -2.671887    1.176847
     20          1           0        1.423741    3.294561    0.345949
     21          1           0       -0.854842    4.232707   -0.026224
     22          1           0       -2.808944    2.692753   -0.343510
     23          1           0       -3.481441   -1.991199   -0.357143
     24          1           0       -1.204807   -2.954407    0.054351
 ---------------------------------------------------------------------

 SCF Done:  E(UB3LYP) =  -763.204648164     A.U. after    2 cycles

 Alpha  occ. eigenvalues --  -18.91132 -18.86619 -18.77572 -18.77104 -10.06266
 Alpha  occ. eigenvalues --   -9.95252  -9.94450  -9.94164  -9.93519  -9.90288
 Alpha  occ. eigenvalues --   -9.90143  -9.89897  -9.89141  -9.87857  -9.87789
 Alpha  occ. eigenvalues --   -9.87747  -0.85379  -0.77505  -0.69316  -0.68854
 Alpha  occ. eigenvalues --   -0.57100  -0.53833  -0.51732  -0.46013  -0.45000
 Alpha  occ. eigenvalues --   -0.42087  -0.35373  -0.34037  -0.32255  -0.26182
 Alpha  occ. eigenvalues --   -0.24913  -0.24184  -0.23363  -0.22052  -0.21728
 Alpha  occ. eigenvalues --   -0.19384  -0.17966  -0.17463  -0.15338  -0.14168
 Alpha  occ. eigenvalues --   -0.13544  -0.12514  -0.11755  -0.11509  -0.10273
 Alpha  occ. eigenvalues --   -0.08298  -0.07834  -0.06863  -0.05690  -0.03942
 Alpha  occ. eigenvalues --   -0.03137  -0.02265   0.02910   0.04447   0.06039
 Alpha  occ. eigenvalues --    0.07486   0.11522
 Alpha virt. eigenvalues --    0.16220   0.18097   0.18571   0.19389   0.20028
 Alpha virt. eigenvalues --    0.20581   0.21910   0.22418   0.24138   0.24857
 Alpha virt. eigenvalues --    0.25488   0.25620   0.26798   0.27379   0.27634

  Beta  occ. eigenvalues --  -18.91132 -18.86619 -18.77572 -18.77104 -10.06266
  Beta  occ. eigenvalues --   -9.95252  -9.94450  -9.94164  -9.93519  -9.90288
  Beta  occ. eigenvalues --   -9.90143  -9.89897  -9.89141  -9.87857  -9.87789
  Beta  occ. eigenvalues --   -9.87747  -0.85379  -0.77505  -0.69316  -0.68854
  Beta  occ. eigenvalues --   -0.57100  -0.53833  -0.51732  -0.46013  -0.45000
  Beta  occ. eigenvalues --   -0.42087  -0.35373  -0.34037  -0.32255  -0.26182
  Beta  occ. eigenvalues --   -0.24913  -0.24184  -0.23363  -0.22052  -0.21728
  Beta  occ. eigenvalues --   -0.19384  -0.17966  -0.17463  -0.15338  -0.14168
  Beta  occ. eigenvalues --   -0.13544  -0.12514  -0.11755  -0.11509  -0.10273
  Beta  occ. eigenvalues --   -0.08298  -0.07834  -0.06863  -0.05690  -0.03942
  Beta  occ. eigenvalues --   -0.03137  -0.02265   0.02910   0.04447   0.06039
  Beta  occ. eigenvalues --    0.07486   0.11522
  Beta virt. eigenvalues --    0.16220   0.18097   0.18571   0.19389   0.20028
  Beta virt. eigenvalues --    0.20581   0.21910   0.22418   0.24138   0.24857
  Beta virt. eigenvalues --    0.25488   0.25620   0.26798   0.27379   0.27634

 Mulliken charges and spin densities:
               1          2
     1  C   -0.443401  -0.000000
     2  C   -0.018461   0.000000
     3  O   -0.267751  -0.000000
     4  O   -0.508442  -0.000000
     5  C   -0.369941   0.000000
     6  C   -0.131087   0.000000
     7  C   -0.158010   0.000000
     8  C   -0.138222   0.000000
     9  C    0.443910  -0.000000
    10  C   -0.987315  -0.000000
    11  O   -0.517702   0.000000
    12  C    0.043476   0.000000
    13  C    0.206434   0.000000
    14  C   -0.634735  -0.000000
    15  O   -0.027547  -0.000000
    16  C    0.729400  -0.000000
    17  H    0.209523  -0.000000
    18  H    0.091128   0.000000
    19  H    0.103817   0.000000
    20  H    0.057896  -0.000000
    21  H    0.065407  -0.000000
    22  H    0.113630  -0.000000
    23  H    0.060076   0.000000
    24  H    0.077915   0.000000
 Sum of Mulliken charges =  -2.00000  -0.00000

 Dipole moment (field-independent basis, Debye):
    X=              7.3626    Y=             -3.8740    Z=              2.5730  Tot=              8.7084
 Quadrupole moment (field-independent basis, Debye-Ang):
   XX=           -173.4479   YY=           -126.0337   ZZ=           -112.3352
   XY=              6.5417   XZ=             -3.8036   YZ=             -4.5234

  Exact polarizability: 249.441  -2.918 236.759  15.204   2.183 121.694
 Approx polarizability: 390.690  -0.250 369.272  29.971  -1.269 192.569

                      1                      2                      3
                      A                      A                      A
 Frequencies --     50.9791                69.3831               102.0277
 Red. masses --      7.3997                 7.0149                 8.0237
 Frc consts  --      0.0113                 0.0199                 0.0492
 IR Inten    --      1.7247                 0.8187                 9.3346

                      4                      5                      6
                      A                      A                      A
 Frequencies --    126.6804               137.1070               144.5474
 Red. masses --      3.5975                 1.0950                 4.8925
 Frc consts  --      0.0340                 0.0121                 0.0602
 IR Inten    --      9.8290                 0.1057                 1.1003

                      7                      8                      9
                      A                      A                      A
 Frequencies --    181.8776               255.1928               276.0388
 Red. masses --      5.7358                 5.6829                 8.5518
 Frc consts  --      0.1118                 0.2181                 0.3839
 IR Inten    --      0.8021                 0.3587                11.6125

                     10                     11                     12
                      A                      A                      A
 Frequencies --    298.9444               358.6919               367.6032
 Red. masses --      4.2450                 8.7294                 6.3168
 Frc consts  --      0.2235                 0.6617                 0.5029
 IR Inten    --      2.8976                 0.6031                 3.8755

                     13                     14                     15
                      A                      A                      A
 Frequencies --    388.6017               466.0998               475.2410
 Red. masses --     10.1373                 5.4490                 4.2755
 Frc consts  --      0.9020                 0.6975                 0.5689
 IR Inten    --      0.1338                 0.5958                 0.2676

                     16                     17                     18
                      A                      A                      A
 Frequencies --    499.0058               529.9442               533.4280
 Red. masses --      5.4277                 7.2602                 3.3239
 Frc consts  --      0.7963                 1.2013                 0.5572
 IR Inten    --     20.8927                 9.1499                 1.3747

                     19                     20                     21
                      A                      A                      A
 Frequencies --    547.3729               600.2096               619.7295
 Red. masses --      3.0895                 4.8948                 5.4369
 Frc consts  --      0.5454                 1.0389                 1.2303
 IR Inten    --      7.9868                 3.3909                 3.1578

                     22                     23                     24
                      A                      A                      A
 Frequencies --    623.8380               676.0331               693.7559
 Red. masses --      5.0149                 5.2451                 1.7368
 Frc consts  --      1.1499                 1.4123                 0.4925
 IR Inten    --      7.0186                 2.2383                20.7978

                     25                     26                     27
                      A                      A                      A
 Frequencies --    716.2376               755.1263               770.4255
 Red. masses --      1.5387                 3.9657                 2.4836
 Frc consts  --      0.4651                 1.3323                 0.8685
 IR Inten    --     45.7659                46.4149                31.7751

                     28                     29                     30
                      A                      A                      A
 Frequencies --    784.5951               805.9583               813.5754
 Red. masses --      3.1700                 3.7654                 2.9315
 Frc consts  --      1.1497                 1.4411                 1.1432
 IR Inten    --     16.7591                 5.9480                 5.6286

                     31                     32                     33
                      A                      A                      A
 Frequencies --    853.0362               893.8017               916.9240
 Red. masses --      1.4209                 1.2087                 5.5785
 Frc consts  --      0.6092                 0.5689                 2.7634
 IR Inten    --      1.1255                 1.8964                10.3493

                     34                     35                     36
                      A                      A                      A
 Frequencies --    955.6524               992.9943              1037.3057
 Red. masses --      6.0444                 2.5245                 2.0145
 Frc consts  --      3.2524                 1.4666                 1.2771
 IR Inten    --     40.9053                17.8003                35.4083

                     37                     38                     39
                      A                      A                      A
 Frequencies --   1046.1243              1070.4964              1117.2725
 Red. masses --      1.9410                 1.6446                 1.6319
 Frc consts  --      1.2516                 1.1104                 1.2002
 IR Inten    --    125.0153                 4.4344                63.4300

                     40                     41                     42
                      A                      A                      A
 Frequencies --   1144.0328              1156.5944              1199.2299
 Red. masses --      1.3482                 1.7409                 3.4630
 Frc consts  --      1.0396                 1.3721                 2.9343
 IR Inten    --     50.5724                 1.3562                24.2805

                     43                     44                     45
                      A                      A                      A
 Frequencies --   1235.7082              1251.0153              1307.2596
 Red. masses --      4.5710                 3.6313                 4.0350
 Frc consts  --      4.1124                 3.3484                 4.0627
 IR Inten    --     35.3474               294.9324                12.8480

                     46                     47                     48
                      A                      A                      A
 Frequencies --   1322.1184              1353.0836              1368.1961
 Red. masses --      2.4742                 1.4508                 2.8837
 Frc consts  --      2.5481                 1.5650                 3.1805
 IR Inten    --    129.6752               188.9545                10.9455

                     49                     50                     51
                      A                      A                      A
 Frequencies --   1385.8201              1447.0843              1458.7203
 Red. masses --      3.9258                 4.2059                 1.8683
 Frc consts  --      4.4421                 5.1892                 2.3422
 IR Inten    --      3.4744                13.3579               302.4038

                     52                     53                     54
                      A                      A                      A
 Frequencies --   1466.5943              1483.3244              1513.8731
 Red. masses --      1.8232                 1.0643                 5.2305
 Frc consts  --      2.3104                 1.3797                 7.0627
 IR Inten    --    205.4872                 9.3309               892.4863

                     55                     56                     57
                      A                      A                      A
 Frequencies --   1558.2342              1579.8308              1593.7189
 Red. masses --      4.9985                 6.5082                 7.1480
 Frc consts  --      7.1508                 9.5704                10.6968
 IR Inten    --    141.1126                 8.8135                41.1783

                     58                     59                     60
                      A                      A                      A
 Frequencies --   1760.2208              3020.6271              3057.6695
 Red. masses --     11.1986                 1.0331                 1.0845
 Frc consts  --     20.4431                 5.5538                 5.9738
 IR Inten    --    325.1040                88.0631               109.2664

                     61                     62                     63
                      A                      A                      A
 Frequencies --   3092.9360              3100.3095              3113.5889
 Red. masses --      1.1005                 1.0845                 1.1026
 Frc consts  --      6.2028                 6.1415                 6.2979
 IR Inten    --     33.4130                58.1233                15.5229

                     64                     65                     66
                      A                      A                      A
 Frequencies --   3114.1408              3125.9222              3175.3199
 Red. masses --      1.0905                 1.0923                 1.0899
 Frc consts  --      6.2311                 6.2885                 6.4747
 IR Inten    --    123.0778               102.3040                22.9515

 - Thermochemistry -
 -------------------
 Temperature   298.150 Kelvin.  Pressure   1.00000 Atm.
 Atom     1 has atomic number  6 and mass  12.00000

 Molecular mass:   216.04226 amu.
 Principal axes and moments of inertia in atomic units:
                           1         2         3
     Eigenvalues --  2030.957883912.800595562.63401
           X            0.88452   0.46092  -0.07200
           Y           -0.46591   0.88063  -0.08615
           Z            0.02369   0.10974   0.99368
 This molecule is an asymmetric top.
 Rotational symmetry number  1.
 Warning -- assumption of classical behavior for rotation
           may cause significant error
 Rotational temperatures (Kelvin)      0.04265     0.02214     0.01557
 Rotational constants (GHZ):           0.88862     0.46124     0.32444
 Zero-point vibrational energy     442241.7 (Joules/Mol)
                                  105.69829 (Kcal/Mol)
 Warning -- explicit consideration of  21 degrees of freedom as
           vibrations may cause significant error
 Vibrational temperatures:     73.35    99.83   146.80   182.26   197.27
          (Kelvin)            207.97   261.68   367.17   397.16   430.11
                              516.08   528.90   559.11   670.61   683.77
                              717.96   762.47   767.48   787.55   863.57
                              891.65   897.56   972.66   998.16  1030.51
                             1086.46  1108.47  1128.86  1159.59  1170.55
                             1227.33  1285.98  1319.25  1374.97  1428.70
                             1492.45  1505.14  1540.21  1607.51  1646.01
                             1664.08  1725.42  1777.91  1799.93  1880.85
                             1902.23  1946.79  1968.53  1993.89  2082.03
                             2098.77  2110.10  2134.17  2178.13  2241.95
                             2273.02  2293.01  2532.57  4346.01  4399.30
                             4450.05  4460.65  4479.76  4480.55  4497.50
                             4568.58

 Zero-point correction=                           0.168441 (Hartree/Particle)
 Thermal correction to Energy=                    0.181658
 Thermal correction to Enthalpy=                  0.182602
 Thermal correction to Gibbs Free Energy=         0.128510
 Sum of electronic and zero-point Energies=           -763.036207
 Sum of electronic and thermal Energies=              -763.022991
 Sum of electronic and thermal Enthalpies=            -763.022046
 Sum of electronic and thermal Free Energies=         -763.076138

                     E (Thermal)             CV                S
                      KCal/Mol        Cal/Mol-Kelvin    Cal/Mol-Kelvin
 Total                  113.992             51.385            113.845
 Electronic               0.000              0.000              0.000
 Translational            0.889              2.981             42.014
 Rotational               0.889              2.981             32.158
 Vibrational            112.214             45.423             39.673
 Vibration     1          0.595              1.977              4.779
 Vibration     2          0.598              1.969              4.171
 Vibration     3          0.604              1.948              3.415
 Vibration     4          0.611              1.926              2.996
 Vibration     5          0.614              1.916              2.844
 Vibration     6          0.616              1.909              2.743
 Vibration     7          0.630              1.864              2.309
 Vibration     8          0.666              1.754              1.694
 Vibration     9          0.678              1.718              1.558
 Vibration    10          0.692              1.676              1.423
 Vibration    11          0.734              1.557              1.128
 Vibration    12          0.740              1.539              1.090
 Vibration    13          0.757              1.495              1.006
 Vibration    14          0.823              1.325              0.749
 Vibration    15          0.832              1.305              0.723
 Vibration    16          0.854              1.252              0.661
 Vibration    17          0.885              1.184              0.587
 Vibration    18          0.888              1.176              0.580
 Vibration    19          0.903              1.145              0.550
 Vibration    20          0.958              1.031              0.449
 Vibration    21          0.980              0.990              0.417

 Optimization completed.
    -- Stationary point found.
 Normal termination of Gaussian 16 at Tue Dec 26 23:25:29 2023.
