 Gaussian 16, Revision A.03,
 Gaussian 16:  ES64L-G16RevA.03 25-Dec-2016

 -------------------------------
 #P UB3LYP/genecp nosym opt freq
 -------------------------------

 -------
 Reduced
 -------
 Symbolic Z-matrix:
 Charge = -2 Multiplicity = 1

 SCF Done:  E(UB3LYP) =  -986.113771480     A.U. after   38 cycles
 SCF Done:  E(UB3LYP) =  -986.137487129     A.U. after   20 cycles
 SCF Done:  E(UB3LYP) =  -986.140135357     A.U. after   16 cycles
 SCF Done:  E(UB3LYP) =  -986.140295406     A.U. after   15 cycles
 SCF Done:  E(UB3LYP) =  -986.140317773     A.U. after   15 cycles
 SCF Done:  E(UB3LYP) =  -986.140318972     A.U. after   16 cycles
 Optimization completed.
    -- Stationary point found.
 Normal termination of Gaussian 16 at Thu Dec 21 08:37:31 2023.

 ------------------------------------------------------------------
 #P Geom=AllCheck Guess=TCheck SCRF=Check GenChk UB3LYP/GenECP Freq
 ------------------------------------------------------------------

 Structure from the checkpoint file:  "119-an.chk"
 -------
 Reduced
 -------
 Charge = -2 Multiplicity = 1

                          Input orientation:
 ---------------------------------------------------------------------
 Center     Atomic      Atomic             Coordinates (Angstroms)
 Number     Number       Type             X           Y           Z
 ---------------------------------------------------------------------
      1          6           0        6.887160   -1.644322   -0.249920
      2          6           0        7.453074   -0.689921   -1.068998
      3          6           0        6.631396    0.324232   -1.639071
      4          6           0        5.279727    0.338449   -1.364271
      5          6           0        4.663080   -0.626810   -0.526533
      6          6           0        5.500585   -1.660559    0.054561
      7          6           0        4.985414   -2.698955    0.924408
      8          6           0        3.565801   -2.611830    1.161199
      9          6           0        2.721250   -1.574805    0.579177
     10          6           0        3.236394   -0.542613   -0.286986
     11          6           0        2.957070   -3.584295    2.003777
     12          6           0        1.613243   -3.539124    2.255266
     13          6           0        0.758281   -2.542502    1.704969
     14          6           0        1.338679   -1.594425    0.886328
     15          8           0        5.731051   -3.613449    1.438583
     16          8           0        2.495711    0.375277   -0.803451
     17          1           0        7.485069   -2.430965    0.200512
     18          1           0        4.624744    1.097208   -1.782167
     19          1           0        3.615023   -4.339363    2.418494
     20          1           0        0.735315   -0.809825    0.438431
     21         53           0        0.712961   -5.025766    3.537807
     22          1           0        8.521295   -0.709993   -1.279714
     23          1           0        7.069104    1.082163   -2.286984
     24          1           0       -0.303428   -2.531817    1.922043
 ---------------------------------------------------------------------

 SCF Done:  E(UB3LYP) =  -986.140318972     A.U. after    1 cycles

 Alpha  occ. eigenvalues --  -18.77995 -18.77917  -9.98112  -9.94101  -9.94069
 Alpha  occ. eigenvalues --   -9.94013  -9.93457  -9.93216  -9.93169  -9.93055
 Alpha  occ. eigenvalues --   -9.92302  -9.92281  -9.91055  -9.90818  -9.90754
 Alpha  occ. eigenvalues --   -9.90739  -6.63203  -4.65460  -4.64574  -4.64552
 Alpha  occ. eigenvalues --   -1.70292  -1.69998  -1.69970  -1.69209  -1.69208
 Alpha  occ. eigenvalues --   -0.69843  -0.69423  -0.61156  -0.59828  -0.53409
 Alpha  occ. eigenvalues --   -0.51318  -0.49779  -0.49393  -0.46291  -0.40832
 Alpha  occ. eigenvalues --   -0.38567  -0.35991  -0.33752  -0.30071  -0.28507
 Alpha  occ. eigenvalues --   -0.26665  -0.22284  -0.21440  -0.20390  -0.19462
 Alpha  occ. eigenvalues --   -0.18075  -0.17378  -0.15140  -0.14774  -0.14357
 Alpha  occ. eigenvalues --   -0.13007  -0.12479  -0.11711  -0.09788  -0.08861
 Alpha  occ. eigenvalues --   -0.08830  -0.08472  -0.06884  -0.06054  -0.05718
 Alpha  occ. eigenvalues --   -0.01243   0.00182   0.01050   0.01337   0.03907
 Alpha  occ. eigenvalues --    0.04516   0.12846
 Alpha virt. eigenvalues --    0.15963   0.16747   0.17433   0.17720   0.19579
 Alpha virt. eigenvalues --    0.19963   0.20155   0.21524   0.21803   0.21939
 Alpha virt. eigenvalues --    0.23919   0.25179   0.26080   0.26274   0.26796

  Beta  occ. eigenvalues --  -18.77995 -18.77917  -9.98112  -9.94101  -9.94069
  Beta  occ. eigenvalues --   -9.94013  -9.93457  -9.93216  -9.93169  -9.93055
  Beta  occ. eigenvalues --   -9.92302  -9.92281  -9.91055  -9.90818  -9.90754
  Beta  occ. eigenvalues --   -9.90739  -6.63203  -4.65460  -4.64574  -4.64552
  Beta  occ. eigenvalues --   -1.70292  -1.69998  -1.69970  -1.69209  -1.69208
  Beta  occ. eigenvalues --   -0.69843  -0.69423  -0.61156  -0.59828  -0.53409
  Beta  occ. eigenvalues --   -0.51318  -0.49779  -0.49393  -0.46291  -0.40832
  Beta  occ. eigenvalues --   -0.38567  -0.35991  -0.33752  -0.30071  -0.28507
  Beta  occ. eigenvalues --   -0.26665  -0.22284  -0.21440  -0.20390  -0.19462
  Beta  occ. eigenvalues --   -0.18075  -0.17378  -0.15140  -0.14774  -0.14357
  Beta  occ. eigenvalues --   -0.13007  -0.12479  -0.11711  -0.09788  -0.08861
  Beta  occ. eigenvalues --   -0.08830  -0.08472  -0.06884  -0.06054  -0.05718
  Beta  occ. eigenvalues --   -0.01243   0.00182   0.01050   0.01337   0.03907
  Beta  occ. eigenvalues --    0.04516   0.12846
  Beta virt. eigenvalues --    0.15963   0.16747   0.17433   0.17720   0.19579
  Beta virt. eigenvalues --    0.19963   0.20155   0.21524   0.21803   0.21939
  Beta virt. eigenvalues --    0.23919   0.25179   0.26080   0.26274   0.26796

 Mulliken charges and spin densities:
               1          2
     1  C   -0.011908  -0.000000
     2  C   -0.438431   0.000000
     3  C   -0.445090  -0.000000
     4  C    0.007896   0.000000
     5  C    0.408831  -0.000000
     6  C    0.459144   0.000000
     7  C   -0.663520   0.000000
     8  C    0.367635  -0.000000
     9  C    0.256101  -0.000000
    10  C   -0.799163   0.000000
    11  C    0.125832  -0.000000
    12  C    0.281883  -0.000000
    13  C   -0.821161   0.000000
    14  C   -0.053599  -0.000000
    15  O   -0.511931  -0.000000
    16  O   -0.513544  -0.000000
    17  H    0.130844   0.000000
    18  H    0.132011  -0.000000
    19  H    0.084413  -0.000000
    20  H    0.141860  -0.000000
    21  I   -0.324819   0.000000
    22  H    0.075337  -0.000000
    23  H    0.075062  -0.000000
    24  H    0.036316   0.000000
 Sum of Mulliken charges =  -2.00000  -0.00000

 Dipole moment (field-independent basis, Debye):
    X=            -36.3520    Y=             19.0649    Z=             -6.2987  Tot=             41.5285
 Quadrupole moment (field-independent basis, Debye-Ang):
   XX=           -319.4163   YY=           -212.0582   ZZ=           -163.4531
   XY=             66.2155   XZ=             -9.2055   YZ=             43.8180

  Exact polarizability: 393.330  71.891 278.628-105.082-112.813 250.578
 Approx polarizability: 690.493  78.986 468.230-156.971-197.354 399.915

                      1                      2                      3
                      A                      A                      A
 Frequencies --     32.2346                68.3754               102.4408
 Red. masses --      8.5466                 6.1782                10.3874
 Frc consts  --      0.0052                 0.0170                 0.0642
 IR Inten    --      3.0470                 3.2584                 2.6299

                      4                      5                      6
                      A                      A                      A
 Frequencies --    126.1268               158.9595               173.1646
 Red. masses --      4.1569                 6.6725                16.9232
 Frc consts  --      0.0390                 0.0993                 0.2990
 IR Inten    --      0.0020                 3.3797                 1.3010

                      7                      8                      9
                      A                      A                      A
 Frequencies --    184.4707               242.7193               261.9543
 Red. masses --      7.1618                 5.6556                 5.6757
 Frc consts  --      0.1436                 0.1963                 0.2295
 IR Inten    --      2.7436                 1.0219                 4.5420

                     10                     11                     12
                      A                      A                      A
 Frequencies --    315.0579               362.8866               387.7448
 Red. masses --      6.8493                11.2626                 5.7129
 Frc consts  --      0.4006                 0.8738                 0.5061
 IR Inten    --      1.2821                 1.9041                 0.7962

                     13                     14                     15
                      A                      A                      A
 Frequencies --    400.9557               404.1366               446.4671
 Red. masses --      7.1697                 4.4833                 7.6812
 Frc consts  --      0.6791                 0.4314                 0.9021
 IR Inten    --      1.7816                 1.0713                 3.5955

                     16                     17                     18
                      A                      A                      A
 Frequencies --    461.6336               498.0349               499.3602
 Red. masses --      3.2703                 4.6818                11.5137
 Frc consts  --      0.4106                 0.6842                 1.6916
 IR Inten    --      0.8671                 1.7960                 2.6766

                     19                     20                     21
                      A                      A                      A
 Frequencies --    594.9830               616.9425               627.1363
 Red. masses --      4.4717                 6.9654                 7.2476
 Frc consts  --      0.9327                 1.5620                 1.6795
 IR Inten    --      1.0274                78.3160                 9.3968

                     22                     23                     24
                      A                      A                      A
 Frequencies --    653.7402               681.1612               684.0079
 Red. masses --      1.7975                 7.2117                 6.4460
 Frc consts  --      0.4526                 1.9715                 1.7769
 IR Inten    --     42.3603                14.1933                17.6243

                     25                     26                     27
                      A                      A                      A
 Frequencies --    688.0530               724.5481               756.6298
 Red. masses --      1.9274                 2.0743                 2.6163
 Frc consts  --      0.5376                 0.6416                 0.8825
 IR Inten    --     52.7149                 0.0056                12.4703

                     28                     29                     30
                      A                      A                      A
 Frequencies --    780.4742               805.9938               829.5025
 Red. masses --      1.6363                 6.8525                 4.0595
 Frc consts  --      0.5873                 2.6228                 1.6457
 IR Inten    --      2.7760                64.7420                 0.3414

                     31                     32                     33
                      A                      A                      A
 Frequencies --    924.4931               924.8202               930.2427
 Red. masses --      6.2867                 1.3819                 7.4942
 Frc consts  --      3.1658                 0.6964                 3.8209
 IR Inten    --      5.1773                 6.7922                59.9293

                     34                     35                     36
                      A                      A                      A
 Frequencies --    953.8742               955.9464               962.2989
 Red. masses --      1.2966                 1.2374                 1.3726
 Frc consts  --      0.6951                 0.6662                 0.7489
 IR Inten    --      0.7390                 0.0110                 5.6970

                     37                     38                     39
                      A                      A                      A
 Frequencies --   1012.2055              1025.1838              1089.2375
 Red. masses --      2.0814                 2.1721                 2.6235
 Frc consts  --      1.2564                 1.3450                 1.8339
 IR Inten    --    106.7559                18.1246               190.0427

                     40                     41                     42
                      A                      A                      A
 Frequencies --   1100.8097              1123.5705              1160.9690
 Red. masses --      1.7037                 1.5443                 2.4930
 Frc consts  --      1.2164                 1.1487                 1.9797
 IR Inten    --    129.2037                96.8205                51.0157

                     43                     44                     45
                      A                      A                      A
 Frequencies --   1177.1959              1199.8603              1205.6979
 Red. masses --      2.2111                 1.8185                 2.1248
 Frc consts  --      1.8053                 1.5425                 1.8199
 IR Inten    --     72.0686                90.1670               130.4299

                     46                     47                     48
                      A                      A                      A
 Frequencies --   1236.4596              1312.5514              1327.5966
 Red. masses --      2.1813                 2.4713                 6.7255
 Frc consts  --      1.9648                 2.5085                 6.9840
 IR Inten    --    221.9350               197.7265                23.6545

                     49                     50                     51
                      A                      A                      A
 Frequencies --   1348.0142              1366.3775              1425.7087
 Red. masses --      6.7025                 2.5753                 2.9775
 Frc consts  --      7.1759                 2.8328                 3.5658
 IR Inten    --    501.3579               662.0138               149.2143

                     52                     53                     54
                      A                      A                      A
 Frequencies --   1458.4905              1464.4126              1467.4350
 Red. masses --      3.4301                 3.7961                 6.4874
 Frc consts  --      4.2990                 4.7964                 8.2308
 IR Inten    --    148.9841               110.1349               197.2131

                     55                     56                     57
                      A                      A                      A
 Frequencies --   1480.0600              1510.1892              1535.4085
 Red. masses --      4.2666                 5.5402                 6.6083
 Frc consts  --      5.5067                 7.4445                 9.1788
 IR Inten    --     66.0046                32.6070               160.2833

                     58                     59                     60
                      A                      A                      A
 Frequencies --   1579.0167              1587.2178              3088.6683
 Red. masses --      8.9255                 5.2695                 1.0825
 Frc consts  --     13.1117                 7.8216                 6.0842
 IR Inten    --      7.2212                 2.3802                44.0454

                     61                     62                     63
                      A                      A                      A
 Frequencies --   3112.6748              3146.1698              3154.9230
 Red. masses --      1.0903                 1.0853                 1.0903
 Frc consts  --      6.2241                 6.3294                 6.3938
 IR Inten    --    133.9753                 4.7435                27.0045

                     64                     65                     66
                      A                      A                      A
 Frequencies --   3157.6392              3169.1183              3177.8323
 Red. masses --      1.0914                 1.0927                 1.0895
 Frc consts  --      6.4115                 6.4660                 6.4825
 IR Inten    --     66.1253                32.8138                11.4055

 - Thermochemistry -
 -------------------
 Temperature   298.150 Kelvin.  Pressure   1.00000 Atm.
 Atom     1 has atomic number  6 and mass  12.00000

 Molecular mass:   333.94500 amu.
 Principal axes and moments of inertia in atomic units:
                           1         2         3
     Eigenvalues --  1887.79133********************
           X            0.63188   0.75662   0.16810
           Y            0.55504  -0.59311   0.58322
           Z           -0.54098   0.27522   0.79473
 This molecule is an asymmetric top.
 Rotational symmetry number  1.
 Warning -- assumption of classical behavior for rotation
           may cause significant error
 Rotational temperatures (Kelvin)      0.04588     0.00655     0.00573
 Rotational constants (GHZ):           0.95601     0.13642     0.11938
 Zero-point vibrational energy     427200.0 (Joules/Mol)
                                  102.10325 (Kcal/Mol)
 Warning -- explicit consideration of  20 degrees of freedom as
           vibrations may cause significant error
 Vibrational temperatures:     46.38    98.38   147.39   181.47   228.71
          (Kelvin)            249.15   265.41   349.22   376.89   453.30
                              522.11   557.88   576.89   581.46   642.37
                              664.19   716.56   718.47   856.05   887.64
                              902.31   940.59   980.04   984.13   989.95
                             1042.46  1088.62  1122.93  1159.65  1193.47
                             1330.14  1330.61  1338.41  1372.41  1375.39
                             1384.53  1456.34  1475.01  1567.17  1583.82
                             1616.57  1670.38  1693.72  1726.33  1734.73
                             1778.99  1888.47  1910.12  1939.49  1965.91
                             2051.28  2098.44  2106.96  2111.31  2129.48
                             2172.83  2209.11  2271.85  2283.65  4443.90
                             4478.44  4526.64  4539.23  4543.14  4559.65
                             4572.19

 Zero-point correction=                           0.162712 (Hartree/Particle)
 Thermal correction to Energy=                    0.176033
 Thermal correction to Enthalpy=                  0.176977
 Thermal correction to Gibbs Free Energy=         0.120878
 Sum of electronic and zero-point Energies=           -985.977607
 Sum of electronic and thermal Energies=              -985.964286
 Sum of electronic and thermal Enthalpies=            -985.963342
 Sum of electronic and thermal Free Energies=         -986.019441

                     E (Thermal)             CV                S
                      KCal/Mol        Cal/Mol-Kelvin    Cal/Mol-Kelvin
 Total                  110.462             52.173            118.070
 Electronic               0.000              0.000              0.000
 Translational            0.889              2.981             43.312
 Rotational               0.889              2.981             34.289
 Vibrational            108.685             46.212             40.468
 Vibration     1          0.594              1.983              5.687
 Vibration     2          0.598              1.969              4.200
 Vibration     3          0.605              1.947              3.407
 Vibration     4          0.611              1.927              3.004
 Vibration     5          0.621              1.893              2.562
 Vibration     6          0.627              1.875              2.401
 Vibration     7          0.631              1.861              2.283
 Vibration     8          0.659              1.775              1.783
 Vibration     9          0.669              1.742              1.649
 Vibration    10          0.702              1.645              1.336
 Vibration    11          0.737              1.549              1.110
 Vibration    12          0.756              1.496              1.009
 Vibration    13          0.767              1.468              0.959
 Vibration    14          0.769              1.461              0.948
 Vibration    15          0.806              1.369              0.807
 Vibration    16          0.819              1.335              0.761
 Vibration    17          0.854              1.254              0.663
 Vibration    18          0.855              1.251              0.660
 Vibration    19          0.953              1.042              0.458
 Vibration    20          0.977              0.996              0.421

 Optimization completed.
    -- Stationary point found.
 Normal termination of Gaussian 16 at Thu Dec 21 09:21:17 2023.
