 Gaussian 16, Revision A.03,
 Gaussian 16:  ES64L-G16RevA.03 25-Dec-2016

 --------------------------------------
 #P UB3LYP/6-311++G(d,p) nosym opt freq
 --------------------------------------

 -------
 Reduced
 -------
 Symbolic Z-matrix:
 Charge = -2 Multiplicity = 1

 SCF Done:  E(UB3LYP) =  -712.163263030     A.U. after   46 cycles
 SCF Done:  E(UB3LYP) =  -712.179975984     A.U. after   38 cycles
 SCF Done:  E(UB3LYP) =  -712.183650227     A.U. after   34 cycles
 SCF Done:  E(UB3LYP) =  -712.183055494     A.U. after   29 cycles
 SCF Done:  E(UB3LYP) =  -712.183685223     A.U. after   30 cycles
 SCF Done:  E(UB3LYP) =  -712.184406848     A.U. after   28 cycles
 SCF Done:  E(UB3LYP) =  -712.184635642     A.U. after   28 cycles
 SCF Done:  E(UB3LYP) =  -712.185404391     A.U. after   30 cycles
 SCF Done:  E(UB3LYP) =  -712.186039548     A.U. after   29 cycles
 SCF Done:  E(UB3LYP) =  -712.186034763     A.U. after   28 cycles
 SCF Done:  E(UB3LYP) =  -712.187441034     A.U. after   27 cycles
 SCF Done:  E(UB3LYP) =  -712.187242206     A.U. after   31 cycles
 SCF Done:  E(UB3LYP) =  -712.187473336     A.U. after   27 cycles
 SCF Done:  E(UB3LYP) =  -712.187261407     A.U. after   27 cycles
 SCF Done:  E(UB3LYP) =  -712.187478096     A.U. after   28 cycles
 SCF Done:  E(UB3LYP) =  -712.187478526     A.U. after   25 cycles
 SCF Done:  E(UB3LYP) =  -712.187478948     A.U. after   27 cycles
 SCF Done:  E(UB3LYP) =  -712.187478838     A.U. after   24 cycles
 SCF Done:  E(UB3LYP) =  -712.187479041     A.U. after   26 cycles
 Optimization completed.
    -- Stationary point found.
 Normal termination of Gaussian 16 at Wed Dec 20 07:25:24 2023.

 ----------------------------------------------------------------------
 #P Geom=AllCheck Guess=TCheck SCRF=Check GenChk UB3LYP/6-311++G(d,p) F
 req
 ----------------------------------------------------------------------

 Structure from the checkpoint file:  "104-an.chk"
 -------
 Reduced
 -------
 Charge = -2 Multiplicity = 1

                          Input orientation:
 ---------------------------------------------------------------------
 Center     Atomic      Atomic             Coordinates (Angstroms)
 Number     Number       Type             X           Y           Z
 ---------------------------------------------------------------------
      1          6           0       -2.317994   -2.304583    5.047121
      2          6           0       -1.362011   -3.233065    4.513710
      3          6           0       -1.328980   -3.502343    3.138961
      4          6           0       -2.207613   -2.897722    2.174943
      5          6           0       -3.167145   -1.981042    2.725700
      6          6           0       -3.227091   -1.702444    4.085748
      7          8           0       -2.409113   -1.963578    6.302357
      8          8           0       -2.135927   -3.161071    0.916100
      9          7           0       -4.150701   -0.834113    4.679306
     10          6           0       -4.854443    0.219693    3.982110
     11          6           0       -6.179445   -0.281424    3.370710
     12          6           0       -5.120804    1.383371    4.946512
     13          1           0       -3.847737   -1.506015    2.024572
     14          1           0       -3.859456   -0.661472    5.638406
     15          1           0       -4.229753    0.594353    3.152438
     16          1           0       -6.658118    0.503272    2.768192
     17          1           0       -6.872201   -0.574195    4.167728
     18          1           0       -6.005570   -1.152554    2.735123
     19          1           0       -5.730527    2.161391    4.480181
     20          1           0       -4.183768    1.839463    5.283956
     21          1           0       -5.664062    1.026622    5.830596
     22          6           0       -0.381945   -3.913542    5.492342
     23          6           0       -1.178914   -4.708133    6.556085
     24          6           0        0.582676   -4.895404    4.799332
     25          6           0        0.474267   -2.836589    6.204183
     26          1           0       -0.611601   -4.203447    2.724789
     27          1           0       -1.879951   -4.038125    7.057369
     28          1           0       -0.501804   -5.156366    7.300066
     29          1           0       -1.743129   -5.516450    6.076981
     30          1           0        1.247875   -5.344934    5.549118
     31          1           0        1.203992   -4.391940    4.052374
     32          1           0        0.043447   -5.703141    4.295141
     33          1           0       -0.185244   -2.123840    6.702606
     34          1           0        1.087736   -2.299217    5.472049
     35          1           0        1.147532   -3.297047    6.944477
 ---------------------------------------------------------------------

 SCF Done:  E(UB3LYP) =  -712.187479041     A.U. after    4 cycles

 Alpha  occ. eigenvalues --  -18.79425 -18.77969 -14.06683  -9.98994  -9.96315
 Alpha  occ. eigenvalues --   -9.95894  -9.95151  -9.94744  -9.94205  -9.93874
 Alpha  occ. eigenvalues --   -9.93657  -9.93651  -9.93632  -9.90900  -9.88783
 Alpha  occ. eigenvalues --   -9.88444  -0.71418  -0.69091  -0.67506  -0.59779
 Alpha  occ. eigenvalues --   -0.56232  -0.52690  -0.48204  -0.47329  -0.46431
 Alpha  occ. eigenvalues --   -0.45909  -0.41270  -0.38064  -0.34768  -0.31803
 Alpha  occ. eigenvalues --   -0.29038  -0.25960  -0.24744  -0.23609  -0.22434
 Alpha  occ. eigenvalues --   -0.22246  -0.21678  -0.19989  -0.18746  -0.18509
 Alpha  occ. eigenvalues --   -0.17919  -0.17701  -0.17508  -0.15257  -0.14968
 Alpha  occ. eigenvalues --   -0.14718  -0.13180  -0.12329  -0.11993  -0.11875
 Alpha  occ. eigenvalues --   -0.10907  -0.10715  -0.09451  -0.07952  -0.07627
 Alpha  occ. eigenvalues --   -0.03803   0.01400   0.02891   0.04751   0.05078
 Alpha  occ. eigenvalues --    0.12835
 Alpha virt. eigenvalues --    0.14418   0.15004   0.16675   0.17261   0.17494
 Alpha virt. eigenvalues --    0.17661   0.18554   0.19271   0.20286   0.20392
 Alpha virt. eigenvalues --    0.20730   0.20844   0.21346   0.21881   0.22512

  Beta  occ. eigenvalues --  -18.79425 -18.77969 -14.06683  -9.98994  -9.96315
  Beta  occ. eigenvalues --   -9.95894  -9.95151  -9.94744  -9.94205  -9.93874
  Beta  occ. eigenvalues --   -9.93657  -9.93651  -9.93632  -9.90900  -9.88783
  Beta  occ. eigenvalues --   -9.88444  -0.71418  -0.69091  -0.67506  -0.59779
  Beta  occ. eigenvalues --   -0.56232  -0.52690  -0.48204  -0.47329  -0.46431
  Beta  occ. eigenvalues --   -0.45909  -0.41270  -0.38064  -0.34768  -0.31803
  Beta  occ. eigenvalues --   -0.29038  -0.25960  -0.24744  -0.23609  -0.22434
  Beta  occ. eigenvalues --   -0.22246  -0.21678  -0.19989  -0.18746  -0.18509
  Beta  occ. eigenvalues --   -0.17919  -0.17701  -0.17508  -0.15257  -0.14968
  Beta  occ. eigenvalues --   -0.14718  -0.13180  -0.12329  -0.11993  -0.11875
  Beta  occ. eigenvalues --   -0.10907  -0.10715  -0.09451  -0.07952  -0.07627
  Beta  occ. eigenvalues --   -0.03803   0.01400   0.02891   0.04751   0.05078
  Beta  occ. eigenvalues --    0.12835
  Beta virt. eigenvalues --    0.14418   0.15004   0.16675   0.17261   0.17494
  Beta virt. eigenvalues --    0.17661   0.18554   0.19271   0.20286   0.20392
  Beta virt. eigenvalues --    0.20730   0.20844   0.21346   0.21881   0.22512

 Mulliken charges and spin densities:
               1          2
     1  C   -2.455714  -0.000000
     2  C    1.008744  -0.000000
     3  C   -0.285131   0.000000
     4  C   -0.987068   0.000000
     5  C    1.855276   0.000000
     6  C    0.168697  -0.000000
     7  O   -0.480748   0.000000
     8  O   -0.518796   0.000000
     9  N    0.105498  -0.000000
    10  C   -1.966336  -0.000000
    11  C    0.914108   0.000000
    12  C    1.284018  -0.000000
    13  H    0.076997   0.000000
    14  H    0.540910   0.000000
    15  H    0.164049  -0.000000
    16  H   -0.342868   0.000000
    17  H   -0.108343  -0.000000
    18  H    0.070635  -0.000000
    19  H   -0.814486   0.000000
    20  H   -0.047606  -0.000000
    21  H   -0.217726   0.000000
    22  C    0.821012  -0.000000
    23  C   -0.689956   0.000000
    24  C   -0.548235   0.000000
    25  C   -0.684047  -0.000000
    26  H    0.092334  -0.000000
    27  H    0.177955   0.000000
    28  H    0.068328  -0.000000
    29  H    0.095797  -0.000000
    30  H    0.116755  -0.000000
    31  H    0.112060  -0.000000
    32  H    0.108311   0.000000
    33  H    0.207442  -0.000000
    34  H    0.094957  -0.000000
    35  H    0.063178   0.000000
 Sum of Mulliken charges =  -2.00000  -0.00000

 Dipole moment (field-independent basis, Debye):
    X=             29.9758    Y=             16.8591    Z=            -36.2374  Tot=             49.9592
 Quadrupole moment (field-independent basis, Debye-Ang):
   XX=           -262.7728   YY=           -198.7974   ZZ=           -307.7847
   XY=             -7.9493   XZ=            112.5666   YZ=             54.5892

  Exact polarizability:1025.143-442.0541258.949  80.751 175.991 778.789
 Approx polarizability:3722.944********4528.481-228.363 408.514 796.179

                      1                      2                      3
                      A                      A                      A
 Frequencies --     36.9409                59.9847                72.3380
 Red. masses --      3.6300                 2.6144                 3.5505
 Frc consts  --      0.0029                 0.0055                 0.0109
 IR Inten    --      4.3207                 1.8526                 1.7222

                      4                      5                      6
                      A                      A                      A
 Frequencies --     94.4527               110.5798               168.6046
 Red. masses --      3.9942                 4.0260                 6.5066
 Frc consts  --      0.0210                 0.0290                 0.1090
 IR Inten    --      5.4145                 5.6670                 5.5481

                      7                      8                      9
                      A                      A                      A
 Frequencies --    187.0497               206.6987               225.1546
 Red. masses --      3.5523                 1.0449                 3.7456
 Frc consts  --      0.0732                 0.0263                 0.1119
 IR Inten    --     23.0143                13.1251                14.4092

                     10                     11                     12
                      A                      A                      A
 Frequencies --    246.6297               249.0186               252.2479
 Red. masses --      1.2082                 1.0919                 2.8008
 Frc consts  --      0.0433                 0.0399                 0.1050
 IR Inten    --      2.0225                 1.3228                14.8685

                     13                     14                     15
                      A                      A                      A
 Frequencies --    279.3118               292.9815               298.7142
 Red. masses --      2.8661                 1.1399                 3.2168
 Frc consts  --      0.1317                 0.0577                 0.1691
 IR Inten    --      7.0325                 2.1840                 1.0156

                     16                     17                     18
                      A                      A                      A
 Frequencies --    315.5706               328.5442               340.5165
 Red. masses --      1.0557                 3.0614                 3.5946
 Frc consts  --      0.0619                 0.1947                 0.2456
 IR Inten    --      0.0327                13.4623                11.5852

                     19                     20                     21
                      A                      A                      A
 Frequencies --    378.6520               398.3021               416.7098
 Red. masses --      2.8763                 3.0022                 2.7373
 Frc consts  --      0.2430                 0.2806                 0.2801
 IR Inten    --      2.2491                70.8198                 4.1172

                     22                     23                     24
                      A                      A                      A
 Frequencies --    422.0248               444.4005               465.1335
 Red. masses --      3.3054                 4.6335                 6.9103
 Frc consts  --      0.3469                 0.5391                 0.8808
 IR Inten    --     24.6626                 8.3966               532.9228

                     25                     26                     27
                      A                      A                      A
 Frequencies --    478.6973               533.2852               577.8314
 Red. masses --      2.9550                 3.0321                 2.2007
 Frc consts  --      0.3990                 0.5081                 0.4329
 IR Inten    --     85.6950                 5.0570                45.7956

                     28                     29                     30
                      A                      A                      A
 Frequencies --    607.7906               640.1695               660.8016
 Red. masses --      3.8582                 1.9974                 2.5949
 Frc consts  --      0.8397                 0.4823                 0.6676
 IR Inten    --     23.4338                 2.6851                23.1413

                     31                     32                     33
                      A                      A                      A
 Frequencies --    699.5914               782.4235               788.2868
 Red. masses --      2.4997                 4.5824                 1.5602
 Frc consts  --      0.7208                 1.6528                 0.5712
 IR Inten    --     18.7643                33.7577                10.4119

                     34                     35                     36
                      A                      A                      A
 Frequencies --    792.1640               809.3128               825.4637
 Red. masses --      3.1140                 4.7780                 2.4867
 Frc consts  --      1.1513                 1.8439                 0.9983
 IR Inten    --     26.5884                46.7184                 5.5799

                     37                     38                     39
                      A                      A                      A
 Frequencies --    839.8898               912.3631               915.1800
 Red. masses --      2.5920                 2.4366                 1.8069
 Frc consts  --      1.0773                 1.1950                 0.8917
 IR Inten    --     18.2110                38.8091                 0.3111

                     40                     41                     42
                      A                      A                      A
 Frequencies --    925.9224               930.8655               939.2413
 Red. masses --      1.2540                 1.7327                 1.6266
 Frc consts  --      0.6334                 0.8846                 0.8454
 IR Inten    --     56.8121                66.5917                25.6204

                     43                     44                     45
                      A                      A                      A
 Frequencies --    952.7948               974.3179              1023.3580
 Red. masses --      1.2091                 2.3044                 1.8194
 Frc consts  --      0.6467                 1.2889                 1.1226
 IR Inten    --      0.3506               172.2981                36.7514

                     46                     47                     48
                      A                      A                      A
 Frequencies --   1046.5765              1049.4440              1117.2741
 Red. masses --      1.3835                 1.5947                 1.9656
 Frc consts  --      0.8928                 1.0348                 1.4457
 IR Inten    --      0.3951                68.9302                 3.6013

                     49                     50                     51
                      A                      A                      A
 Frequencies --   1157.6386              1173.7292              1190.2734
 Red. masses --      2.2354                 1.9778                 4.7290
 Frc consts  --      1.7650                 1.6054                 3.9475
 IR Inten    --     84.2444                 5.7502                45.6922

                     52                     53                     54
                      A                      A                      A
 Frequencies --   1208.1370              1210.5964              1221.7272
 Red. masses --      2.6194                 2.4180                 2.7675
 Frc consts  --      2.2526                 2.0879                 2.4338
 IR Inten    --      6.5014               233.2781               262.9671

                     55                     56                     57
                      A                      A                      A
 Frequencies --   1247.3480              1256.1118              1284.4084
 Red. masses --      1.6415                 2.3280                 2.6242
 Frc consts  --      1.5048                 2.1642                 2.5507
 IR Inten    --    242.0186               133.7148               118.5119

                     58                     59                     60
                      A                      A                      A
 Frequencies --   1326.9826              1347.1005              1356.1243
 Red. masses --      2.0764                 1.7362                 1.2156
 Frc consts  --      2.1542                 1.8563                 1.3172
 IR Inten    --   1872.4575              1497.8497                12.0843

                     61                     62                     63
                      A                      A                      A
 Frequencies --   1363.9922              1371.4300              1375.0552
 Red. masses --      1.2646                 1.2723                 1.5179
 Frc consts  --      1.3862                 1.4099                 1.6910
 IR Inten    --     66.3368               591.4334               525.4510

                     64                     65                     66
                      A                      A                      A
 Frequencies --   1393.0916              1394.5063              1415.0113
 Red. masses --      1.4906                 1.3272                 3.3236
 Frc consts  --      1.7043                 1.5207                 3.9209
 IR Inten    --    110.1083               159.2237               749.1031

                     67                     68                     69
                      A                      A                      A
 Frequencies --   1454.3987              1460.1210              1469.8942
 Red. masses --      2.8295                 1.0480                 1.1305
 Frc consts  --      3.5264                 1.3164                 1.4391
 IR Inten    --    438.7344                 0.8894                94.5119

                     70                     71                     72
                      A                      A                      A
 Frequencies --   1479.4049              1481.2755              1485.2533
 Red. masses --      1.0788                 2.4201                 1.0480
 Frc consts  --      1.3911                 3.1287                 1.3621
 IR Inten    --    266.9769               460.1081                 0.9174

                     73                     74                     75
                      A                      A                      A
 Frequencies --   1486.6803              1489.2589              1494.2682
 Red. masses --      1.0797                 1.3442                 1.0882
 Frc consts  --      1.4061                 1.7565                 1.4315
 IR Inten    --     58.5549               104.5541                41.0570

                     76                     77                     78
                      A                      A                      A
 Frequencies --   1503.0670              1509.1689              1518.0302
 Red. masses --      1.0917                 1.0536                 1.7779
 Frc consts  --      1.4532                 1.4138                 2.4138
 IR Inten    --     53.2102                 1.2345                20.6949

                     79                     80                     81
                      A                      A                      A
 Frequencies --   1527.8205              1597.0995              2915.3776
 Red. masses --      1.0610                 6.1405                 1.0816
 Frc consts  --      1.4592                 9.2281                 5.4163
 IR Inten    --      0.7650              1802.2188               108.7533

                     82                     83                     84
                      A                      A                      A
 Frequencies --   2946.4837              2956.3077              2976.1527
 Red. masses --      1.0512                 1.0498                 1.0436
 Frc consts  --      5.3769                 5.4059                 5.4462
 IR Inten    --     53.4392               761.6894                21.6413

                     85                     86                     87
                      A                      A                      A
 Frequencies --   2986.8609              2994.1769              3028.6906
 Red. masses --      1.0437                 1.0391                 1.0843
 Frc consts  --      5.4858                 5.4884                 5.8603
 IR Inten    --    490.0521                42.6553                65.1369

                     88                     89                     90
                      A                      A                      A
 Frequencies --   3032.7137              3043.7194              3047.6659
 Red. masses --      1.0853                 1.0943                 1.0890
 Frc consts  --      5.8811                 5.9733                 5.9595
 IR Inten    --     19.5035                 6.1060               101.9173

                     91                     92                     93
                      A                      A                      A
 Frequencies --   3054.1193              3073.3476              3077.8221
 Red. masses --      1.0982                 1.1011                 1.1001
 Frc consts  --      6.0351                 6.1280                 6.1400
 IR Inten    --     15.1088                38.7572               181.3097

                     94                     95                     96
                      A                      A                      A
 Frequencies --   3092.5650              3093.8224              3096.9286
 Red. masses --      1.0979                 1.0989                 1.0982
 Frc consts  --      6.1865                 6.1973                 6.2060
 IR Inten    --     18.0318                 1.2537                26.1738

                     97                     98                     99
                      A                      A                      A
 Frequencies --   3137.6873              3151.1813              3485.1260
 Red. masses --      1.0875                 1.0858                 1.0751
 Frc consts  --      6.3081                 6.3527                 7.6940
 IR Inten    --     37.6968               153.2939                68.1504

 - Thermochemistry -
 -------------------
 Temperature   298.150 Kelvin.  Pressure   1.00000 Atm.
 Atom     1 has atomic number  6 and mass  12.00000

 Molecular mass:   221.14158 amu.
 Principal axes and moments of inertia in atomic units:
                           1         2         3
     Eigenvalues --  2205.899115509.310927118.59293
           X            0.74411  -0.01976   0.66776
           Y           -0.63939   0.26861   0.72044
           Z            0.19361   0.96305  -0.18724
 This molecule is an asymmetric top.
 Rotational symmetry number  1.
 Warning -- assumption of classical behavior for rotation
           may cause significant error
 Rotational temperatures (Kelvin)      0.03926     0.01572     0.01217
 Rotational constants (GHZ):           0.81814     0.32758     0.25352
 Zero-point vibrational energy     768919.8 (Joules/Mol)
                                  183.77625 (Kcal/Mol)
 Warning -- explicit consideration of  28 degrees of freedom as
           vibrations may cause significant error
 Vibrational temperatures:     53.15    86.30   104.08   135.90   159.10
          (Kelvin)            242.58   269.12   297.39   323.95   354.85
                              358.28   362.93   401.87   421.53   429.78
                              454.04   472.70   489.93   544.80   573.07
                              599.55   607.20   639.39   669.22   688.74
                              767.28   831.37   874.48   921.06   950.75
                             1006.56  1125.73  1134.17  1139.75  1164.42
                             1187.66  1208.41  1312.69  1316.74  1332.20
                             1339.31  1351.36  1370.86  1401.83  1472.38
                             1505.79  1509.92  1607.51  1665.58  1688.73
                             1712.54  1738.24  1741.78  1757.79  1794.66
                             1807.26  1847.98  1909.23  1938.18  1951.16
                             1962.48  1973.18  1978.40  2004.35  2006.38
                             2035.89  2092.56  2100.79  2114.85  2128.53
                             2131.22  2136.95  2139.00  2142.71  2149.92
                             2162.58  2171.36  2184.11  2198.19  2297.87
                             4194.58  4239.33  4253.47  4282.02  4297.43
                             4307.95  4357.61  4363.40  4379.23  4384.91
                             4394.20  4421.86  4428.30  4449.51  4451.32
                             4455.79  4514.43  4533.85  5014.32

 Zero-point correction=                           0.292866 (Hartree/Particle)
 Thermal correction to Energy=                    0.309901
 Thermal correction to Enthalpy=                  0.310845
 Thermal correction to Gibbs Free Energy=         0.249300
 Sum of electronic and zero-point Energies=           -711.894613
 Sum of electronic and thermal Energies=              -711.877578
 Sum of electronic and thermal Enthalpies=            -711.876634
 Sum of electronic and thermal Free Energies=         -711.938179

                     E (Thermal)             CV                S
                      KCal/Mol        Cal/Mol-Kelvin    Cal/Mol-Kelvin
 Total                  194.466             66.349            129.532
 Electronic               0.000              0.000              0.000
 Translational            0.889              2.981             42.084
 Rotational               0.889              2.981             32.825
 Vibrational            192.688             60.387             54.623
 Vibration     1          0.594              1.982              5.417
 Vibration     2          0.597              1.973              4.458
 Vibration     3          0.598              1.967              4.089
 Vibration     4          0.603              1.953              3.566
 Vibration     5          0.606              1.941              3.259
 Vibration     6          0.625              1.881              2.451
 Vibration     7          0.632              1.858              2.257
 Vibration     8          0.641              1.830              2.073
 Vibration     9          0.650              1.803              1.917
 Vibration    10          0.661              1.768              1.755
 Vibration    11          0.662              1.764              1.738
 Vibration    12          0.664              1.759              1.715
 Vibration    13          0.680              1.712              1.538
 Vibration    14          0.688              1.687              1.457
 Vibration    15          0.692              1.676              1.424
 Vibration    16          0.703              1.644              1.333
 Vibration    17          0.712              1.618              1.267
 Vibration    18          0.720              1.595              1.210
 Vibration    19          0.749              1.516              1.045
 Vibration    20          0.765              1.474              0.969
 Vibration    21          0.780              1.434              0.903
 Vibration    22          0.784              1.422              0.885
 Vibration    23          0.804              1.373              0.813
 Vibration    24          0.823              1.327              0.751
 Vibration    25          0.835              1.297              0.714
 Vibration    26          0.888              1.176              0.580
 Vibration    27          0.934              1.079              0.489
 Vibration    28          0.967              1.015              0.436

 Optimization completed.
    -- Stationary point found.
 Normal termination of Gaussian 16 at Wed Dec 20 08:45:34 2023.
