 Gaussian 16, Revision A.03,
 Gaussian 16:  ES64L-G16RevA.03 25-Dec-2016

 --------------------------------------
 #P UB3LYP/6-311++G(d,p) nosym opt freq
 --------------------------------------

 --------
 Oxidized
 --------
 Symbolic Z-matrix:
 Charge =  0 Multiplicity = 1

 SCF Done:  E(UB3LYP) =  -538.875484187     A.U. after   14 cycles
 SCF Done:  E(UB3LYP) =  -538.881100325     A.U. after   13 cycles
 SCF Done:  E(UB3LYP) =  -538.881287555     A.U. after   10 cycles
 SCF Done:  E(UB3LYP) =  -538.881302755     A.U. after   10 cycles
 SCF Done:  E(UB3LYP) =  -538.881303195     A.U. after    9 cycles
 SCF Done:  E(UB3LYP) =  -538.881303382     A.U. after    9 cycles
 Optimization completed.
    -- Stationary point found.
 Normal termination of Gaussian 16 at Sun Dec 17 21:05:36 2023.

 ----------------------------------------------------------------------
 #P Geom=AllCheck Guess=TCheck SCRF=Check GenChk UB3LYP/6-311++G(d,p) F
 req
 ----------------------------------------------------------------------

 Structure from the checkpoint file:  "053.chk"
 --------
 Oxidized
 --------
 Charge =  0 Multiplicity = 1

                          Input orientation:
 ---------------------------------------------------------------------
 Center     Atomic      Atomic             Coordinates (Angstroms)
 Number     Number       Type             X           Y           Z
 ---------------------------------------------------------------------
      1          6           0        0.264856    1.437050   -0.855535
      2          6           0       -1.013373    0.659531   -0.855384
      3          6           0       -0.969173   -0.690157   -0.855410
      4          6           0        0.343544   -1.402848   -0.855587
      5          6           0        1.621773   -0.625330   -0.855316
      6          6           0        1.577573    0.724358   -0.855292
      7          8           0        0.245586    2.660113   -0.855145
      8          8           0        0.362813   -2.625912   -0.855230
      9          6           0        2.788719    1.611589   -0.855065
     10          6           0        2.897071   -1.427329   -0.855112
     11          6           0       -2.288670    1.461531   -0.855240
     12          6           0       -2.180319   -1.577387   -0.855301
     13          1           0        3.714414    1.039292   -0.854838
     14          1           0        2.779138    2.270099    0.018110
     15          1           0        2.779524    2.270025   -1.728302
     16          1           0        2.669313   -2.491652   -0.855189
     17          1           0        3.504402   -1.203388    0.026581
     18          1           0        3.504720   -1.203332   -1.736571
     19          1           0       -2.060912    2.525853   -0.855253
     20          1           0       -2.896067    1.237550    0.026398
     21          1           0       -2.896254    1.237572   -1.736754
     22          1           0       -3.106014   -1.005090   -0.855152
     23          1           0       -2.170817   -2.235905    0.017869
     24          1           0       -2.171046   -2.235814   -1.728544
 ---------------------------------------------------------------------

 SCF Done:  E(UB3LYP) =  -538.881303382     A.U. after    1 cycles

 Alpha  occ. eigenvalues --  -19.13019 -19.13019 -10.27517 -10.27516 -10.21031
 Alpha  occ. eigenvalues --  -10.21030 -10.20945 -10.20945 -10.17817 -10.17817
 Alpha  occ. eigenvalues --  -10.17634 -10.17634  -1.06300  -1.06096  -0.86660
 Alpha  occ. eigenvalues --   -0.83041  -0.75241  -0.74992  -0.72330  -0.66890
 Alpha  occ. eigenvalues --   -0.65554  -0.57757  -0.57747  -0.54113  -0.47948
 Alpha  occ. eigenvalues --   -0.46932  -0.45885  -0.44544  -0.44043  -0.43256
 Alpha  occ. eigenvalues --   -0.42339  -0.41960  -0.41728  -0.41409  -0.39999
 Alpha  occ. eigenvalues --   -0.39878  -0.39313  -0.39257  -0.38232  -0.36713
 Alpha  occ. eigenvalues --   -0.29081  -0.28439  -0.26863  -0.26680
 Alpha virt. eigenvalues --   -0.12326  -0.01938  -0.01535  -0.00414   0.00684
 Alpha virt. eigenvalues --    0.01178   0.02051   0.02121   0.02445   0.03023
 Alpha virt. eigenvalues --    0.03987   0.04693   0.04928   0.05461   0.05960

  Beta  occ. eigenvalues --  -19.13019 -19.13019 -10.27517 -10.27516 -10.21031
  Beta  occ. eigenvalues --  -10.21030 -10.20945 -10.20945 -10.17817 -10.17817
  Beta  occ. eigenvalues --  -10.17634 -10.17634  -1.06300  -1.06096  -0.86660
  Beta  occ. eigenvalues --   -0.83041  -0.75241  -0.74992  -0.72330  -0.66890
  Beta  occ. eigenvalues --   -0.65554  -0.57757  -0.57747  -0.54113  -0.47948
  Beta  occ. eigenvalues --   -0.46932  -0.45885  -0.44544  -0.44043  -0.43256
  Beta  occ. eigenvalues --   -0.42339  -0.41960  -0.41728  -0.41409  -0.39999
  Beta  occ. eigenvalues --   -0.39878  -0.39313  -0.39257  -0.38232  -0.36713
  Beta  occ. eigenvalues --   -0.29081  -0.28439  -0.26863  -0.26680
  Beta virt. eigenvalues --   -0.12326  -0.01938  -0.01535  -0.00414   0.00684
  Beta virt. eigenvalues --    0.01178   0.02051   0.02121   0.02445   0.03023
  Beta virt. eigenvalues --    0.03987   0.04693   0.04928   0.05461   0.05960

 Mulliken charges and spin densities:
               1          2
     1  C   -1.188839  -0.000000
     2  C    0.469215   0.000000
     3  C    0.830192  -0.000000
     4  C   -1.188840  -0.000000
     5  C    0.469216  -0.000000
     6  C    0.830192   0.000000
     7  O   -0.210711   0.000000
     8  O   -0.210711   0.000000
     9  C   -0.427213   0.000000
    10  C   -0.535772   0.000000
    11  C   -0.535771  -0.000000
    12  C   -0.427213   0.000000
    13  H    0.159407   0.000000
    14  H    0.180200  -0.000000
    15  H    0.180213  -0.000000
    16  H    0.216162   0.000000
    17  H    0.163573  -0.000000
    18  H    0.163573  -0.000000
    19  H    0.216162   0.000000
    20  H    0.163574  -0.000000
    21  H    0.163572  -0.000000
    22  H    0.159407   0.000000
    23  H    0.180201  -0.000000
    24  H    0.180212  -0.000000
 Sum of Mulliken charges =  -0.00000  -0.00000

 Dipole moment (field-independent basis, Debye):
    X=              0.0000    Y=             -0.0000    Z=             -0.0005  Tot=              0.0005
 Quadrupole moment (field-independent basis, Debye-Ang):
   XX=            -61.3377   YY=            -87.7119   ZZ=            -71.0729
   XY=              0.9636   XZ=              0.0002   YZ=             -0.0002

  Exact polarizability: 132.704  -0.188 165.130   0.002   0.002  76.595
 Approx polarizability: 161.999  -2.762 322.833   0.001   0.003 120.922

                      1                      2                      3
                      A                      A                      A
 Frequencies --     40.5136                50.2533                56.1948
 Red. masses --      1.1140                 1.0465                 4.5460
 Frc consts  --      0.0011                 0.0016                 0.0085
 IR Inten    --      0.1118                 0.0000                10.2379

                      4                      5                      6
                      A                      A                      A
 Frequencies --     67.5697                67.6249               105.3052
 Red. masses --      1.0976                 1.1890                 2.0916
 Frc consts  --      0.0030                 0.0032                 0.0137
 IR Inten    --      0.0000                 0.0021                 0.0050

                      7                      8                      9
                      A                      A                      A
 Frequencies --    110.2257               198.9409               290.5534
 Red. masses --      3.3138                 3.4196                 2.7947
 Frc consts  --      0.0237                 0.0797                 0.1390
 IR Inten    --      0.0000                 0.1107                 1.3424

                     10                     11                     12
                      A                      A                      A
 Frequencies --    314.5832               314.9870               333.2240
 Red. masses --      3.4829                 2.6551                 2.6052
 Frc consts  --      0.2031                 0.1552                 0.1704
 IR Inten    --      0.0000                 0.0000                 0.5928

                     13                     14                     15
                      A                      A                      A
 Frequencies --    355.1071               410.6553               415.7176
 Red. masses --      4.4337                 3.8862                 5.2007
 Frc consts  --      0.3294                 0.3861                 0.5295
 IR Inten    --      0.0000                 0.0000                 0.0000

                     16                     17                     18
                      A                      A                      A
 Frequencies --    430.1176               442.1958               521.4864
 Red. masses --      9.7416                 6.4535                 3.3986
 Frc consts  --      1.0618                 0.7435                 0.5445
 IR Inten    --     29.0846                 0.0000                 0.0397

                     19                     20                     21
                      A                      A                      A
 Frequencies --    543.4389               617.7268               683.7936
 Red. masses --      6.7270                 5.1303                 3.1099
 Frc consts  --      1.1705                 1.1534                 0.8567
 IR Inten    --      0.0000                 5.3101                 0.0000

                     22                     23                     24
                      A                      A                      A
 Frequencies --    716.4713               778.2342               828.7988
 Red. masses --      4.9273                 6.5851                 2.2520
 Frc consts  --      1.4902                 2.3498                 0.9114
 IR Inten    --     18.1224                 0.0000                15.9123

                     25                     26                     27
                      A                      A                      A
 Frequencies --    873.8232               977.7155               995.7771
 Red. masses --      3.1252                 1.6371                 3.8854
 Frc consts  --      1.4060                 0.9221                 2.2699
 IR Inten    --     11.6270                 0.0000                 0.0000

                     28                     29                     30
                      A                      A                      A
 Frequencies --   1015.9926              1037.6570              1054.4157
 Red. masses --      1.3717                 1.5163                 1.5795
 Frc consts  --      0.8342                 0.9619                 1.0347
 IR Inten    --      0.0000                 0.1504                77.2456

                     31                     32                     33
                      A                      A                      A
 Frequencies --   1056.6961              1057.7181              1105.2419
 Red. masses --      1.5396                 1.5614                 2.0330
 Frc consts  --      1.0129                 1.0292                 1.4632
 IR Inten    --      0.0011                 0.0000                 0.0000

                     34                     35                     36
                      A                      A                      A
 Frequencies --   1140.4619              1148.6009              1270.8772
 Red. masses --      2.5461                 3.5201                 4.1825
 Frc consts  --      1.9512                 2.7361                 3.9801
 IR Inten    --     19.3345                 0.0000                74.9834

                     37                     38                     39
                      A                      A                      A
 Frequencies --   1297.9773              1345.4698              1404.3044
 Red. masses --      9.8222                 3.6305                 1.2629
 Frc consts  --      9.7497                 3.8722                 1.4674
 IR Inten    --    142.0533                 0.0000                34.7185

                     40                     41                     42
                      A                      A                      A
 Frequencies --   1406.4647              1415.0315              1417.3330
 Red. masses --      1.2949                 1.2422                 1.3128
 Frc consts  --      1.5092                 1.4654                 1.5538
 IR Inten    --      0.0000                33.8647                 0.0000

                     43                     44                     45
                      A                      A                      A
 Frequencies --   1470.5201              1471.9816              1473.2175
 Red. masses --      1.0869                 1.0961                 1.0437
 Frc consts  --      1.3848                 1.3992                 1.3346
 IR Inten    --      4.3642                 0.0000                 0.0000

                     46                     47                     48
                      A                      A                      A
 Frequencies --   1473.3950              1491.1587              1492.1523
 Red. masses --      1.0435                 1.0524                 1.0702
 Frc consts  --      1.3347                 1.3788                 1.4039
 IR Inten    --     24.3666                35.1936                 0.0000

                     49                     50                     51
                      A                      A                      A
 Frequencies --   1504.3150              1504.5406              1662.3857
 Red. masses --      1.0438                 1.0443                 7.9909
 Frc consts  --      1.3917                 1.3927                13.0109
 IR Inten    --      0.0000                 9.7149                62.2585

                     52                     53                     54
                      A                      A                      A
 Frequencies --   1695.4799              1698.5924              1704.9596
 Red. masses --     11.6083                12.4115                 8.8404
 Frc consts  --     19.6609                21.0985                15.1409
 IR Inten    --      0.0000               461.2987                 0.0000

                     55                     56                     57
                      A                      A                      A
 Frequencies --   3031.7422              3031.8210              3039.4332
 Red. masses --      1.0399                 1.0399                 1.0390
 Frc consts  --      5.6315                 5.6319                 5.6550
 IR Inten    --     28.5532                 0.0000                18.3656

                     58                     59                     60
                      A                      A                      A
 Frequencies --   3039.4977              3079.1817              3079.2998
 Red. masses --      1.0390                 1.0999                 1.1000
 Frc consts  --      5.6554                 6.1446                 6.1452
 IR Inten    --      0.0000                 0.0000                32.4614

                     61                     62                     63
                      A                      A                      A
 Frequencies --   3083.0953              3083.1013              3138.5167
 Red. masses --      1.0986                 1.0985                 1.0975
 Frc consts  --      6.1525                 6.1520                 6.3693
 IR Inten    --      0.0112                 6.0042                 0.0092

                     64                     65                     66
                      A                      A                      A
 Frequencies --   3138.5413              3140.9542              3141.1093
 Red. masses --      1.0975                 1.0988                 1.0987
 Frc consts  --      6.3695                 6.3868                 6.3871
 IR Inten    --     19.9431                12.0747                 0.0003

 - Thermochemistry -
 -------------------
 Temperature   298.150 Kelvin.  Pressure   1.00000 Atm.
 Atom     1 has atomic number  6 and mass  12.00000

 Molecular mass:   164.08373 amu.
 Principal axes and moments of inertia in atomic units:
                           1         2         3
     Eigenvalues --  1614.956301775.620533346.24664
           X            0.99901  -0.04439  -0.00004
           Y            0.04439   0.99901  -0.00002
           Z            0.00004   0.00002   1.00000
 This molecule is an asymmetric top.
 Rotational symmetry number  1.
 Warning -- assumption of classical behavior for rotation
           may cause significant error
 Rotational temperatures (Kelvin)      0.05363     0.04878     0.02588
 Rotational constants (GHZ):           1.11752     1.01640     0.53933
 Zero-point vibrational energy     510711.3 (Joules/Mol)
                                  122.06294 (Kcal/Mol)
 Warning -- explicit consideration of  20 degrees of freedom as
           vibrations may cause significant error
 Vibrational temperatures:     58.29    72.30    80.85    97.22    97.30
          (Kelvin)            151.51   158.59   286.23   418.04   452.62
                              453.20   479.43   510.92   590.84   598.12
                              618.84   636.22   750.30   781.89   888.77
                              983.83  1030.84  1119.71  1192.46  1257.24
                             1406.71  1432.70  1461.79  1492.96  1517.07
                             1520.35  1521.82  1590.20  1640.87  1652.58
                             1828.51  1867.50  1935.83  2020.48  2023.59
                             2035.91  2039.23  2115.75  2117.85  2119.63
                             2119.89  2145.44  2146.87  2164.37  2164.70
                             2391.80  2439.42  2443.90  2453.06  4362.00
                             4362.11  4373.07  4373.16  4430.26  4430.43
                             4435.89  4435.90  4515.63  4515.66  4519.13
                             4519.36

 Zero-point correction=                           0.194520 (Hartree/Particle)
 Thermal correction to Energy=                    0.207985
 Thermal correction to Enthalpy=                  0.208929
 Thermal correction to Gibbs Free Energy=         0.153102
 Sum of electronic and zero-point Energies=           -538.686784
 Sum of electronic and thermal Energies=              -538.673318
 Sum of electronic and thermal Enthalpies=            -538.672374
 Sum of electronic and thermal Free Energies=         -538.728201

                     E (Thermal)             CV                S
                      KCal/Mol        Cal/Mol-Kelvin    Cal/Mol-Kelvin
 Total                  130.513             47.059            117.498
 Electronic               0.000              0.000              0.000
 Translational            0.889              2.981             41.194
 Rotational               0.889              2.981             30.640
 Vibrational            128.735             41.097             45.664
 Vibration     1          0.594              1.981              5.234
 Vibration     2          0.595              1.977              4.807
 Vibration     3          0.596              1.975              4.587
 Vibration     4          0.598              1.970              4.223
 Vibration     5          0.598              1.970              4.221
 Vibration     6          0.605              1.945              3.354
 Vibration     7          0.606              1.941              3.265
 Vibration     8          0.637              1.841              2.143
 Vibration     9          0.687              1.691              1.471
 Vibration    10          0.702              1.646              1.338
 Vibration    11          0.702              1.645              1.336
 Vibration    12          0.715              1.609              1.244
 Vibration    13          0.731              1.565              1.143
 Vibration    14          0.775              1.447              0.924
 Vibration    15          0.779              1.436              0.907
 Vibration    16          0.791              1.405              0.858
 Vibration    17          0.802              1.378              0.820
 Vibration    18          0.876              1.202              0.607
 Vibration    19          0.899              1.154              0.558
 Vibration    20          0.977              0.994              0.420

 Optimization completed.
    -- Stationary point found.
 Normal termination of Gaussian 16 at Sun Dec 17 21:33:01 2023.
