 Q-Chem 5.4, Q-Chem, Inc., Pleasanton, CA (2021)
 Q-Chem 5.4.0 for Intel X86 EM64T Linux

User input:
--------------------------------------------------------------
$molecule
-2 1
C                 -0.3460170000      3.7997990000     -0.1498220000
C                 -1.5568550000      3.1935790000     -0.4219100000
C                 -1.5937440000      1.8384720000     -0.8340190000
C                  0.8788170000      3.0960630000     -0.2725480000
C                  0.8426150000      1.7172940000     -0.6940510000
C                 -0.4080840000      1.1311600000     -0.9625320000
C                  2.1295050000      3.7350160000      0.0151880000
C                  3.2981520000      2.9234350000     -0.1443420000
C                  3.3059900000      1.5914400000     -0.5427960000
C                  2.0672960000      0.9206250000     -0.8462360000
O                  2.2895200000      4.9620810000      0.4023750000
O                  2.0302600000     -0.2972040000     -1.2192490000
H                 -0.2940640000      4.8364140000      0.1675280000
H                 -2.4827060000      3.7561190000     -0.3203870000
H                 -2.5454600000      1.3586010000     -1.0492970000
H                 -0.4026690000      0.0926230000     -1.2780450000
O                  4.4607240000      3.5967650000      0.1492170000
C                  4.5957770000      0.8190520000     -0.6606990000
C                  5.1973090000      0.8153220000     -2.0810560000
C                  6.4937450000      0.0017250000     -2.1854480000
C                  7.1215640000     -0.0083340000     -3.5856920000
C                  8.4233920000     -0.8153220000     -3.6794910000
H                  4.0905540000      4.4798560000      0.3936620000
H                  4.3938070000     -0.2198790000     -0.3755980000
H                  5.3366670000      1.2316760000      0.0340910000
H                  5.3893830000      1.8503850000     -2.3895170000
H                  4.4487920000      0.4084000000     -2.7695920000
H                  6.2933860000     -1.0328160000     -1.8745160000
H                  7.2270840000      0.3976240000     -1.4683710000
H                  7.3155860000      1.0259580000     -3.9003280000
H                  6.3940970000     -0.4106570000     -4.3030970000
H                  8.2291650000     -1.8503220000     -3.3672540000
H                  9.1480970000     -0.4145750000     -2.9577410000
C                  9.0592150000     -0.8230240000     -5.0761980000
H                  9.2511890000      0.2117720000     -5.3901940000
H                  8.3380140000     -1.2282170000     -5.7985100000
C                 10.3638560000     -1.6256660000     -5.1614050000
H                 10.1739930000     -2.6610390000     -4.8487660000
H                 11.0862280000     -1.2214550000     -4.4398570000
C                 11.0017830000     -1.6334870000     -6.5569980000
C                 12.3035050000     -2.4371060000     -6.6364470000
H                 11.1939670000     -0.5993510000     -6.8705800000
H                 10.2811090000     -2.0373480000     -7.2796270000
H                 13.0647110000     -2.0362660000     -5.9570980000
H                 12.7307620000     -2.4222920000     -7.6448040000
H                 12.1438230000     -3.4879880000     -6.3685860000
$end
$rem
MAX_SCF_CYCLES=200
BASIS  =  6-311++G(d,p)
GUI  =  2
JOB_TYPE  =  SP
METHOD  =  B3LYP
SCF_ALGORITHM = DIIS_GDM
THRESH = 14
SOLVENT_METHOD = PCM
$end
$pcm
theory = CPCM
$end
$solvent
dielectric 37.219
opticaldielectric 1.43
$end

--------------------------------------------------------------

             Standard Nuclear Orientation (Angstroms)
    I     Atom           X                Y                Z
 ----------------------------------------------------------------
    1      C      -0.3460170000     3.7997990000    -0.1498220000
    2      C      -1.5568550000     3.1935790000    -0.4219100000
    3      C      -1.5937440000     1.8384720000    -0.8340190000
    4      C       0.8788170000     3.0960630000    -0.2725480000
    5      C       0.8426150000     1.7172940000    -0.6940510000
    6      C      -0.4080840000     1.1311600000    -0.9625320000
    7      C       2.1295050000     3.7350160000     0.0151880000
    8      C       3.2981520000     2.9234350000    -0.1443420000
    9      C       3.3059900000     1.5914400000    -0.5427960000
   10      C       2.0672960000     0.9206250000    -0.8462360000
   11      O       2.2895200000     4.9620810000     0.4023750000
   12      O       2.0302600000    -0.2972040000    -1.2192490000
   13      H      -0.2940640000     4.8364140000     0.1675280000
   14      H      -2.4827060000     3.7561190000    -0.3203870000
   15      H      -2.5454600000     1.3586010000    -1.0492970000
   16      H      -0.4026690000     0.0926230000    -1.2780450000
   17      O       4.4607240000     3.5967650000     0.1492170000
   18      C       4.5957770000     0.8190520000    -0.6606990000
   19      C       5.1973090000     0.8153220000    -2.0810560000
   20      C       6.4937450000     0.0017250000    -2.1854480000
   21      C       7.1215640000    -0.0083340000    -3.5856920000
   22      C       8.4233920000    -0.8153220000    -3.6794910000
   23      H       4.0905540000     4.4798560000     0.3936620000
   24      H       4.3938070000    -0.2198790000    -0.3755980000
   25      H       5.3366670000     1.2316760000     0.0340910000
   26      H       5.3893830000     1.8503850000    -2.3895170000
   27      H       4.4487920000     0.4084000000    -2.7695920000
   28      H       6.2933860000    -1.0328160000    -1.8745160000
   29      H       7.2270840000     0.3976240000    -1.4683710000
   30      H       7.3155860000     1.0259580000    -3.9003280000
   31      H       6.3940970000    -0.4106570000    -4.3030970000
   32      H       8.2291650000    -1.8503220000    -3.3672540000
   33      H       9.1480970000    -0.4145750000    -2.9577410000
   34      C       9.0592150000    -0.8230240000    -5.0761980000
   35      H       9.2511890000     0.2117720000    -5.3901940000
   36      H       8.3380140000    -1.2282170000    -5.7985100000
   37      C      10.3638560000    -1.6256660000    -5.1614050000
   38      H      10.1739930000    -2.6610390000    -4.8487660000
   39      H      11.0862280000    -1.2214550000    -4.4398570000
   40      C      11.0017830000    -1.6334870000    -6.5569980000
   41      C      12.3035050000    -2.4371060000    -6.6364470000
   42      H      11.1939670000    -0.5993510000    -6.8705800000
   43      H      10.2811090000    -2.0373480000    -7.2796270000
   44      H      13.0647110000    -2.0362660000    -5.9570980000
   45      H      12.7307620000    -2.4222920000    -7.6448040000
   46      H      12.1438230000    -3.4879880000    -6.3685860000
 ----------------------------------------------------------------

   15    -964.6952923637      9.73e-06  Convergence criterion met
 Total energy in the final basis set =     -964.6952923637

                    Orbital Energies (a.u.)
 --------------------------------------------------------------

 Alpha MOs
 -- Occupied --
-19.1121 -19.0271 -19.0199 -10.1754 -10.1729 -10.1613 -10.1565 -10.1535
-10.1530 -10.1523 -10.1510 -10.1504 -10.1488 -10.1470 -10.1449 -10.1439
-10.1435 -10.1424 -10.1402 -10.1351 -10.1312 -10.1230  -1.0266  -0.9435
 -0.9340  -0.8235  -0.8025  -0.7864  -0.7687  -0.7473  -0.7211  -0.7204
 -0.6925  -0.6591  -0.6314  -0.6110  -0.5851  -0.5761  -0.5683  -0.5628
 -0.5521  -0.5342  -0.5023  -0.4755  -0.4703  -0.4586  -0.4465  -0.4327
 -0.4263  -0.4236  -0.4197  -0.4107  -0.4001  -0.3993  -0.3947  -0.3840
 -0.3822  -0.3707  -0.3671  -0.3585  -0.3557  -0.3503  -0.3461  -0.3428
 -0.3353  -0.3305  -0.3224  -0.3194  -0.3156  -0.3143  -0.3119  -0.3099
 -0.3072  -0.3021  -0.2981  -0.2897  -0.2294  -0.2251  -0.2161  -0.1983
 -0.1918  -0.1070

          Ground-State Mulliken Net Atomic Charges

     Atom                 Charge (a.u.)
  ----------------------------------------
      1 C                    -0.102269
      2 C                    -0.396557
      3 C                    -0.523172
      4 C                     0.495235
      5 C                    -0.123384
      6 C                     0.001499
      7 C                    -0.926209
      8 C                    -0.636220
      9 C                     1.955160
     10 C                    -0.641511
     11 O                    -0.752548
     12 O                    -0.673924
     13 H                     0.142894
     14 H                     0.170370
     15 H                     0.164038
     16 H                     0.144034
     17 O                    -0.350420
     18 C                    -0.373007
     19 C                    -0.752544
     20 C                    -0.217595
     21 C                    -0.004055
     22 C                     0.019256
     23 H                     0.286686
     24 H                     0.169809
     25 H                     0.201271
     26 H                     0.156747
     27 H                     0.174308
     28 H                     0.117558
     29 H                     0.112174
     30 H                     0.127728
     31 H                     0.127829
     32 H                     0.134973
     33 H                     0.133450
     34 C                    -0.195481
     35 H                     0.131661
     36 H                     0.131932
     37 C                    -0.401624
     38 H                     0.128012
     39 H                     0.127972
     40 C                    -0.276853
     41 C                    -0.717995
     42 H                     0.135206
     43 H                     0.135101
     44 H                     0.144940
     45 H                     0.150658
     46 H                     0.144867
  ----------------------------------------
  Sum of atomic charges =    -2.000000

                    Cartesian Multipole Moments
 -----------------------------------------------------------------
    Charge (ESU x 10^10)
                -9.6064
    Dipole Moment (Debye)
         X     -19.5036      Y     -22.2380      Z       4.1132
       Tot      29.8636
    Quadrupole Moments (Debye-Ang)
        XX    -205.2608     XY     -45.1737     YY    -244.0294
        XZ       7.7923     YZ      -4.4254     ZZ    -154.5659

 Total job time:  285.26s(wall), 2030.90s(cpu)
        *  Thank you very much for using Q-Chem.  Have a nice day.  *
