 Q-Chem 5.4, Q-Chem, Inc., Pleasanton, CA (2021)
 Q-Chem 5.4.0 for Intel X86 EM64T Linux

User input:
--------------------------------------------------------------
$molecule
0 1
N                 -4.4684380000     -0.0113400000     -0.0297130000
C                 -3.1336450000     -0.3722050000      0.1757380000
C                 -2.7738870000     -1.5263320000      0.8588480000
C                 -1.4347990000     -1.8500250000      1.0612440000
C                 -0.4303670000     -1.0251940000      0.5733770000
C                  0.9778050000     -1.4355570000      0.8005130000
O                  1.2608130000     -2.4757320000      1.3798360000
C                  2.0471240000     -0.5250820000      0.3016530000
C                  3.3879480000     -0.8720220000      0.4939820000
C                  4.3982080000     -0.0323310000      0.0415850000
C                  4.0763320000      1.1629830000     -0.6082130000
C                  2.7463890000      1.5140910000     -0.8041960000
C                  1.7225520000      0.6742960000     -0.3514710000
C                  0.3045450000      1.0765860000     -0.5853230000
O                  0.0682120000      2.1406360000     -1.1651130000
C                 -0.7624290000      0.1775330000     -0.1109410000
C                 -2.1240840000      0.5205560000     -0.2919570000
N                 -2.5389820000      1.6583660000     -0.9457980000
H                 -4.6658450000      0.3565710000     -0.9532210000
H                 -5.1376840000     -0.7219550000      0.2314230000
H                 -3.5520540000     -2.1927240000      1.2179170000
H                 -1.1536420000     -2.7558590000      1.5823230000
H                  3.6105750000     -1.8026090000      1.0011790000
H                  5.4367370000     -0.3044990000      0.1929770000
H                  4.8652690000      1.8176890000     -0.9609650000
H                  2.4754780000      2.4339670000     -1.3067010000
H                 -1.7951460000      2.3087060000     -1.1774350000
H                 -3.4069860000      2.0614850000     -0.6215470000
$end
$rem
MAX_SCF_CYCLES=200
BASIS  =  6-311++G(d,p)
GUI  =  2
JOB_TYPE  =  SP
METHOD  =  B3LYP
SOLVENT_METHOD = COSMO
$end
$solvent
dielectric 37.219
opticaldielectric 1.43
$end

--------------------------------------------------------------

             Standard Nuclear Orientation (Angstroms)
    I     Atom           X                Y                Z
 ----------------------------------------------------------------
    1      N       4.5588910711    -0.2854434201    -0.0029389887
    2      C       3.2469326591     0.1971063282    -0.0070475345
    3      C       2.9555189913     1.5542011256     0.0309788747
    4      C       1.6374304288     2.0029955116     0.0421194076
    5      C       0.5858254571     1.0974170691     0.0060819432
    6      C      -0.7966429793     1.6374416077    -0.0034813069
    7      O      -1.0187709495     2.8409050624    -0.0007290358
    8      C      -1.9173625657     0.6549783508    -0.0082464369
    9      C      -3.2362517790     1.1193258123    -0.0171618755
   10      C      -4.2937446148     0.2181745774    -0.0150072075
   11      C      -4.0415341548    -1.1569222408    -0.0042469384
   12      C      -2.7337783039    -1.6261243865     0.0034034370
   13      C      -1.6627154199    -0.7254142448     0.0015842668
   14      C      -0.2701595947    -1.2621228311     0.0014390537
   15      O      -0.0958001110    -2.4843120084     0.0094714177
   16      C       0.8472236801    -0.3013429347    -0.0097280007
   17      C       2.1873105775    -0.7578637901     0.0073519859
   18      N       2.5351082193    -2.0893672872    -0.0125285899
   19      H       4.7215469141    -1.0629544951    -0.6323948320
   20      H       5.2661373596     0.4278688999    -0.1126846889
   21      H       3.7712025745     2.2705876183     0.0291323545
   22      H       1.4096384148     3.0607956278     0.0587786704
   23      H      -3.4046551574     2.1890896485    -0.0241889208
   24      H      -5.3150744134     0.5820170034    -0.0214549302
   25      H      -4.8672972412    -1.8594947261    -0.0025922544
   26      H      -2.5165548006    -2.6867138494     0.0097154145
   27      H       1.7568023993    -2.7319489273     0.0933897587
   28      H       3.3885131102    -2.3294160106     0.4723954102
 ----------------------------------------------------------------

    9    -799.7160991287      4.21e-06  Convergence criterion met
 Total energy in the final basis set =     -799.7160991287
    5    -799.7376395917      5.56e-06  Convergence criterion met
 Total energy in the final basis set =     -799.7376395917

                    Orbital Energies (a.u.)
 --------------------------------------------------------------

 Alpha MOs
 -- Occupied --
-19.1256 -19.1197 -14.3323 -14.3287 -10.2787 -10.2733 -10.2409 -10.2343
-10.2032 -10.2016 -10.2002 -10.1937 -10.1929 -10.1924 -10.1916 -10.1915
-10.1878 -10.1861  -1.0599  -1.0553  -0.9586  -0.9092  -0.8852  -0.8600
 -0.8004  -0.7732  -0.7599  -0.7485  -0.6835  -0.6606  -0.6448  -0.6111
 -0.5864  -0.5712  -0.5575  -0.5307  -0.5126  -0.5051  -0.4953  -0.4847
 -0.4707  -0.4638  -0.4520  -0.4508  -0.4462  -0.4436  -0.4275  -0.4170
 -0.4104  -0.3982  -0.3830  -0.3753  -0.3729  -0.3625  -0.3348  -0.3262
 -0.2831  -0.2816  -0.2742  -0.2701  -0.2543  -0.2166

          Ground-State Mulliken Net Atomic Charges

     Atom                 Charge (a.u.)
  ----------------------------------------
      1 N                    -0.425462
      2 C                    -0.370333
      3 C                    -0.067437
      4 C                     0.101778
      5 C                     0.452448
      6 C                    -0.492223
      7 O                    -0.332267
      8 C                    -0.049381
      9 C                     0.184498
     10 C                    -0.449058
     11 C                    -0.470354
     12 C                     0.266194
     13 C                     0.146130
     14 C                    -0.486099
     15 O                    -0.329617
     16 C                     0.410526
     17 C                    -0.118840
     18 N                    -0.453964
     19 H                     0.286186
     20 H                     0.317071
     21 H                     0.222824
     22 H                     0.191409
     23 H                     0.194989
     24 H                     0.222043
     25 H                     0.223339
     26 H                     0.199244
     27 H                     0.334618
     28 H                     0.291737
  ----------------------------------------
  Sum of atomic charges =     0.000000

                    Cartesian Multipole Moments
 -----------------------------------------------------------------
    Charge (ESU x 10^10)
                 0.0000
    Dipole Moment (Debye)
         X       4.1986      Y      -2.0630      Z      -0.2896
       Tot       4.6870
    Quadrupole Moments (Debye-Ang)
        XX     -56.3394     XY       5.2780     YY    -113.7879
        XZ      -3.1952     YZ      -1.3444     ZZ    -108.0030

 Total job time:  71.37s(wall), 438.04s(cpu)
        *  Thank you very much for using Q-Chem.  Have a nice day.  *
