 Gaussian 16, Revision A.03,
 Gaussian 16:  ES64L-G16RevA.03 25-Dec-2016

 ----------------------------------------------------------------
 #P UB3LYP/6-311++G(d,p) SCRF=(PCM,Solvent=n,n-DiMethylFormamide)
 ----------------------------------------------------------------

 ------------------
 Quinone PCM in DMF
 ------------------
 Symbolic Z-matrix:
 Charge =  0 Multiplicity = 1

                         Standard orientation:
 ---------------------------------------------------------------------
 Center     Atomic      Atomic             Coordinates (Angstroms)
 Number     Number       Type             X           Y           Z
 ---------------------------------------------------------------------
      1          8           0       -1.727559    2.790459    0.000134
      2          6           0       -1.386962    1.617872    0.000526
      3          6           0       -2.388363    0.525085    0.000375
      4          6           0       -3.752637    0.831754    0.000571
      5          6           0       -4.693053   -0.190917    0.000376
      6          6           0       -4.274266   -1.524683   -0.000080
      7          6           0       -2.918951   -1.833376   -0.000294
      8          6           0       -1.965321   -0.809973   -0.000001
      9          6           0       -0.513392   -1.181461   -0.000088
     10          8           0       -0.216140   -2.367138   -0.001823
     11          6           0        0.506613   -0.083634    0.000106
     12          6           0        1.926375   -0.351609    0.000155
     13          6           0        2.501664   -1.654792    0.000855
     14          6           0        3.866925   -1.830732    0.001008
     15          6           0        4.746874   -0.728454    0.000390
     16          6           0        4.233025    0.543913   -0.000278
     17          6           0        2.831862    0.764039   -0.000320
     18          6           0        2.323236    2.086668   -0.000744
     19          6           0        0.976984    2.321784   -0.000490
     20          6           0        0.063394    1.243168   -0.000034
     21          1           0       -4.049347    1.873192    0.000887
     22          1           0       -5.750967    0.045667    0.000549
     23          1           0       -5.008402   -2.322463   -0.000271
     24          1           0       -2.576345   -2.860196   -0.000674
     25          1           0        1.850744   -2.512476    0.001280
     26          1           0        4.270260   -2.837242    0.001593
     27          1           0        5.819133   -0.888089    0.000464
     28          1           0        4.891122    1.406234   -0.000730
     29          1           0        3.024522    2.914645   -0.001193
     30          1           0        0.574835    3.326251   -0.000600
 ---------------------------------------------------------------------

 SCF Done:  E(UB3LYP) =  -842.634080758     A.U. after   15 cycles

 The electronic state is 1-A.
 Alpha  occ. eigenvalues --  -19.13383 -19.13120 -10.28686 -10.28457 -10.21895
 Alpha  occ. eigenvalues --  -10.21419 -10.21262 -10.20910 -10.20759 -10.20690
 Alpha  occ. eigenvalues --  -10.19980 -10.19930 -10.19892 -10.19840 -10.19739
 Alpha  occ. eigenvalues --  -10.19360 -10.19069 -10.18997 -10.18901 -10.18390
 Alpha  occ. eigenvalues --   -1.06923  -1.06726  -0.90171  -0.88888  -0.85181
 Alpha  occ. eigenvalues --   -0.81262  -0.78840  -0.77903  -0.76802  -0.74582
 Alpha  occ. eigenvalues --   -0.69390  -0.66628  -0.65184  -0.62951  -0.61824
 Alpha  occ. eigenvalues --   -0.58740  -0.57136  -0.55045  -0.52534  -0.51721
 Alpha  occ. eigenvalues --   -0.50280  -0.49123  -0.47738  -0.46598  -0.46372
 Alpha  occ. eigenvalues --   -0.45839  -0.45305  -0.45194  -0.43607  -0.43082
 Alpha  occ. eigenvalues --   -0.42458  -0.42233  -0.40881  -0.39995  -0.38280
 Alpha  occ. eigenvalues --   -0.38001  -0.37163  -0.36516  -0.35897  -0.34698
 Alpha  occ. eigenvalues --   -0.30813  -0.28816  -0.28606  -0.27941  -0.27301
 Alpha  occ. eigenvalues --   -0.26973  -0.24420
 Alpha virt. eigenvalues --   -0.12510  -0.07292  -0.05557  -0.03345  -0.01324
 Alpha virt. eigenvalues --   -0.00711  -0.00018   0.00664   0.01424   0.01765
 Alpha virt. eigenvalues --    0.02218   0.03003   0.03321   0.03405   0.03814

  Beta  occ. eigenvalues --  -19.13383 -19.13120 -10.28686 -10.28457 -10.21895
  Beta  occ. eigenvalues --  -10.21419 -10.21262 -10.20910 -10.20759 -10.20690
  Beta  occ. eigenvalues --  -10.19980 -10.19930 -10.19892 -10.19840 -10.19739
  Beta  occ. eigenvalues --  -10.19360 -10.19069 -10.18997 -10.18901 -10.18390
  Beta  occ. eigenvalues --   -1.06923  -1.06726  -0.90171  -0.88888  -0.85181
  Beta  occ. eigenvalues --   -0.81262  -0.78840  -0.77903  -0.76802  -0.74582
  Beta  occ. eigenvalues --   -0.69390  -0.66628  -0.65184  -0.62951  -0.61824
  Beta  occ. eigenvalues --   -0.58740  -0.57136  -0.55045  -0.52534  -0.51721
  Beta  occ. eigenvalues --   -0.50280  -0.49123  -0.47738  -0.46598  -0.46372
  Beta  occ. eigenvalues --   -0.45839  -0.45305  -0.45194  -0.43607  -0.43082
  Beta  occ. eigenvalues --   -0.42458  -0.42233  -0.40881  -0.39995  -0.38280
  Beta  occ. eigenvalues --   -0.38001  -0.37163  -0.36516  -0.35897  -0.34698
  Beta  occ. eigenvalues --   -0.30813  -0.28816  -0.28606  -0.27941  -0.27301
  Beta  occ. eigenvalues --   -0.26973  -0.24420
  Beta virt. eigenvalues --   -0.12510  -0.07292  -0.05557  -0.03345  -0.01324
  Beta virt. eigenvalues --   -0.00711  -0.00018   0.00664   0.01424   0.01765
  Beta virt. eigenvalues --    0.02218   0.03003   0.03321   0.03405   0.03814

 Mulliken charges and spin densities:
               1          2
     1  O   -0.258223  -0.000000
     2  C   -0.816298   0.000000
     3  C    0.099382   0.000000
     4  C    0.007268  -0.000000
     5  C   -0.457327  -0.000000
     6  C   -0.421059  -0.000000
     7  C    0.085063   0.000000
     8  C    0.152153   0.000000
     9  C   -0.645614  -0.000000
    10  O   -0.227015   0.000000
    11  C    0.774942  -0.000000
    12  C    0.961208  -0.000000
    13  C   -0.563782   0.000000
    14  C   -0.509467  -0.000000
    15  C   -0.280622  -0.000000
    16  C   -0.444105   0.000000
    17  C    0.528459  -0.000000
    18  C   -0.455633   0.000000
    19  C   -0.174434  -0.000000
    20  C    0.763247  -0.000000
    21  H    0.184028  -0.000000
    22  H    0.207136   0.000000
    23  H    0.208922  -0.000000
    24  H    0.181308   0.000000
    25  H    0.148646   0.000000
    26  H    0.208625   0.000000
    27  H    0.197042   0.000000
    28  H    0.167608  -0.000000
    29  H    0.196556  -0.000000
    30  H    0.181986   0.000000
 Sum of Mulliken charges =  -0.00000  -0.00000

 Dipole moment (field-independent basis, Debye):
    X=              0.8441    Y=             -0.4375    Z=              0.0040  Tot=              0.9508
 Quadrupole moment (field-independent basis, Debye-Ang):
   XX=            -79.5995   YY=           -119.1238   ZZ=           -119.0475
   XY=             10.4093   XZ=             -0.0021   YZ=             -0.0136

 Normal termination of Gaussian 16 at Sun Jan 14 01:03:21 2024.
