 Q-Chem 5.4, Q-Chem, Inc., Pleasanton, CA (2021)
 Q-Chem 5.4.0 for Intel X86 EM64T Linux

User input:
--------------------------------------------------------------
$molecule
-1 2
O                  2.5336070000      2.5318580000     -0.2141630000
C                  2.4573460000      1.2052840000      0.0178880000
C                  3.6223960000      0.4871020000      0.2587600000
C                  3.5578610000     -0.8949540000      0.5018210000
C                  2.3456430000     -1.5608600000      0.5060050000
C                  1.1468540000     -0.8609230000      0.2651440000
C                 -0.1238700000     -1.5941180000      0.2756480000
O                 -0.1752760000     -2.8276300000      0.4931700000
C                 -1.3335400000     -0.8070520000      0.0179110000
C                 -2.5896180000     -1.4500410000      0.0133190000
C                 -3.7533700000     -0.7459360000     -0.2249950000
C                 -3.6978800000      0.6443160000     -0.4700600000
C                 -2.4818230000      1.2964260000     -0.4710390000
C                 -1.2784120000      0.5949090000     -0.2293700000
C                 -0.0144350000      1.3091600000     -0.2370850000
O                  0.0319960000      2.5707480000     -0.4601520000
C                  1.1881710000      0.5437220000      0.0158820000
H                  1.5769830000      2.8238720000     -0.3582610000
H                  4.5680790000      1.0176470000      0.2534490000
H                  4.4771080000     -1.4428980000      0.6885300000
H                  2.2800470000     -2.6255760000      0.6917490000
H                 -2.6022330000     -2.5169650000      0.2042200000
H                 -4.7107450000     -1.2583960000     -0.2244620000
H                 -4.6128050000      1.1984660000     -0.6575440000
H                 -2.4120820000      2.3618380000     -0.6563640000
$end
$rem
MAX_SCF_CYCLES=200
BASIS  =  6-311++G(d,p)
GUI  =  2
JOB_TYPE  =  SP
METHOD  =  B3LYP
SOLVENT_METHOD = PCM
$end
$pcm
theory = CPCM
$end
$solvent
dielectric 37.219
opticaldielectric 1.43
$end

--------------------------------------------------------------

             Standard Nuclear Orientation (Angstroms)
    I     Atom           X                Y                Z
 ----------------------------------------------------------------
    1      O       2.5336070000     2.5318580000    -0.2141630000
    2      C       2.4573460000     1.2052840000     0.0178880000
    3      C       3.6223960000     0.4871020000     0.2587600000
    4      C       3.5578610000    -0.8949540000     0.5018210000
    5      C       2.3456430000    -1.5608600000     0.5060050000
    6      C       1.1468540000    -0.8609230000     0.2651440000
    7      C      -0.1238700000    -1.5941180000     0.2756480000
    8      O      -0.1752760000    -2.8276300000     0.4931700000
    9      C      -1.3335400000    -0.8070520000     0.0179110000
   10      C      -2.5896180000    -1.4500410000     0.0133190000
   11      C      -3.7533700000    -0.7459360000    -0.2249950000
   12      C      -3.6978800000     0.6443160000    -0.4700600000
   13      C      -2.4818230000     1.2964260000    -0.4710390000
   14      C      -1.2784120000     0.5949090000    -0.2293700000
   15      C      -0.0144350000     1.3091600000    -0.2370850000
   16      O       0.0319960000     2.5707480000    -0.4601520000
   17      C       1.1881710000     0.5437220000     0.0158820000
   18      H       1.5769830000     2.8238720000    -0.3582610000
   19      H       4.5680790000     1.0176470000     0.2534490000
   20      H       4.4771080000    -1.4428980000     0.6885300000
   21      H       2.2800470000    -2.6255760000     0.6917490000
   22      H      -2.6022330000    -2.5169650000     0.2042200000
   23      H      -4.7107450000    -1.2583960000    -0.2244620000
   24      H      -4.6128050000     1.1984660000    -0.6575440000
   25      H      -2.4120820000     2.3618380000    -0.6563640000
 ----------------------------------------------------------------

    8    -764.3617435317      8.44e-06  Convergence criterion met
 Total energy in the final basis set =     -764.3617435317

                    Orbital Energies (a.u.)
 --------------------------------------------------------------

 Alpha MOs
 -- Occupied --
-19.1330 -19.0935 -19.0807 -10.2367 -10.2351 -10.2302 -10.1778 -10.1777
-10.1769 -10.1762 -10.1749 -10.1746 -10.1741 -10.1729 -10.1720 -10.1658
-10.1639  -1.0573  -1.0093  -1.0074  -0.8644  -0.8495  -0.7887  -0.7551
 -0.7439  -0.7407  -0.6729  -0.6399  -0.6289  -0.5897  -0.5707  -0.5379
 -0.5284  -0.5090  -0.4793  -0.4687  -0.4600  -0.4466  -0.4357  -0.4279
 -0.4236  -0.4185  -0.4101  -0.4008  -0.3900  -0.3849  -0.3708  -0.3573
 -0.3543  -0.3500  -0.3387  -0.3313  -0.2740  -0.2610  -0.2605  -0.2517
 -0.2440  -0.2315  -0.1473

 Beta MOs
 -- Occupied --
-19.1328 -19.0888 -19.0758 -10.2365 -10.2326 -10.2285 -10.1778 -10.1771
-10.1761 -10.1754 -10.1744 -10.1742 -10.1736 -10.1727 -10.1720 -10.1650
-10.1635  -1.0560  -1.0011  -0.9989  -0.8617  -0.8481  -0.7848  -0.7525
 -0.7418  -0.7388  -0.6656  -0.6380  -0.6265  -0.5886  -0.5687  -0.5353
 -0.5270  -0.5076  -0.4764  -0.4674  -0.4588  -0.4455  -0.4271  -0.4260
 -0.4204  -0.4162  -0.4075  -0.3926  -0.3887  -0.3698  -0.3655  -0.3565
 -0.3488  -0.3461  -0.3374  -0.3222  -0.2571  -0.2560  -0.2534  -0.2468
 -0.2396  -0.2233

          Ground-State Mulliken Net Atomic Charges

     Atom                 Charge (a.u.)    Spin (a.u.)
  --------------------------------------------------------
      1 O                    -0.396139       0.008514
      2 C                    -0.142509       0.030379
      3 C                    -0.242195       0.055476
      4 C                    -0.389646       0.042266
      5 C                    -0.125320       0.049646
      6 C                     0.447267       0.055222
      7 C                    -0.350181       0.100254
      8 O                    -0.471920       0.189915
      9 C                    -0.032233       0.033764
     10 C                     0.031089       0.023735
     11 C                    -0.455214       0.045525
     12 C                    -0.458848       0.028133
     13 C                     0.057548       0.042962
     14 C                     0.154915       0.007030
     15 C                    -0.275461       0.151593
     16 O                    -0.508614       0.173764
     17 C                     0.472295      -0.014683
     18 H                     0.366230      -0.003539
     19 H                     0.200570      -0.004909
     20 H                     0.206555      -0.003310
     21 H                     0.162296      -0.002939
     22 H                     0.170921      -0.001394
     23 H                     0.200274      -0.003456
     24 H                     0.199309      -0.002657
     25 H                     0.179013      -0.001293
  --------------------------------------------------------
  Sum of atomic charges =    -1.000000

                    Cartesian Multipole Moments
 -----------------------------------------------------------------
    Charge (ESU x 10^10)
                -4.8032
    Dipole Moment (Debye)
         X      -2.4289      Y      -0.1395      Z      -0.2074
       Tot       2.4417
    Quadrupole Moments (Debye-Ang)
        XX    -100.1068     XY      -8.5486     YY    -135.3618
        XZ       2.0029     YZ       4.6425     ZZ    -105.7027

 Total job time:  53.81s(wall), 323.70s(cpu)
        *  Thank you very much for using Q-Chem.  Have a nice day.  *
