 Gaussian 16, Revision A.03,
 Gaussian 16:  ES64L-G16RevA.03 25-Dec-2016

 ----------------------------------------------------------------
 #P UB3LYP/6-311++G(d,p) SCRF=(PCM,Solvent=n,n-DiMethylFormamide)
 ----------------------------------------------------------------

 ------------------
 Radical PCM in DMF
 ------------------
 Symbolic Z-matrix:
 Charge = -1 Multiplicity = 2

                         Standard orientation:
 ---------------------------------------------------------------------
 Center     Atomic      Atomic             Coordinates (Angstroms)
 Number     Number       Type             X           Y           Z
 ---------------------------------------------------------------------
      1          6           0        2.730419   -1.069090    0.000078
      2          6           0        1.320400   -0.541168   -0.000023
      3          6           0        0.228348   -1.372794   -0.000034
      4          6           0       -1.140550   -0.905862   -0.000009
      5          8           0       -2.126821   -1.701689   -0.000047
      6          6           0       -1.320374    0.541195    0.000028
      7          6           0       -0.228361    1.372795    0.000003
      8          6           0        1.140571    0.905841   -0.000045
      9          8           0        2.126795    1.701743   -0.000051
     10          6           0       -2.730425    1.069049    0.000059
     11          1           0        2.740615   -2.163176    0.000206
     12          1           0        3.284679   -0.709522    0.874162
     13          1           0        3.284783   -0.709721   -0.874024
     14          1           0        0.358986   -2.453107   -0.000058
     15          1           0       -0.358924    2.453117    0.000001
     16          1           0       -3.284697    0.709530    0.874153
     17          1           0       -2.740657    2.163129    0.000009
     18          1           0       -3.284743    0.709522   -0.874013
 ---------------------------------------------------------------------

 SCF Done:  E(UB3LYP) =  -460.380750875     A.U. after   17 cycles

 The electronic state is 2-A.
 Alpha  occ. eigenvalues --  -19.07260 -19.07260 -10.21274 -10.21273 -10.16783
 Alpha  occ. eigenvalues --  -10.16782 -10.15610 -10.15610 -10.15416 -10.15415
 Alpha  occ. eigenvalues --   -0.99335  -0.99086  -0.82316  -0.77469  -0.70731
 Alpha  occ. eigenvalues --   -0.68954  -0.63458  -0.58541  -0.53622  -0.48122
 Alpha  occ. eigenvalues --   -0.45316  -0.43266  -0.42612  -0.40887  -0.40021
 Alpha  occ. eigenvalues --   -0.39892  -0.38871  -0.37150  -0.36844  -0.36307
 Alpha  occ. eigenvalues --   -0.35584  -0.34474  -0.27325  -0.24201  -0.23924
 Alpha  occ. eigenvalues --   -0.23266  -0.15643
 Alpha virt. eigenvalues --   -0.00186  -0.00170   0.00787   0.01652   0.03084
 Alpha virt. eigenvalues --    0.03103   0.03750   0.03952   0.04607   0.05680
 Alpha virt. eigenvalues --    0.06112   0.06560   0.07759   0.08434   0.09131

  Beta  occ. eigenvalues --  -19.06584 -19.06584 -10.21115 -10.21114 -10.16644
  Beta  occ. eigenvalues --  -10.16643 -10.15621 -10.15620 -10.15342 -10.15341
  Beta  occ. eigenvalues --   -0.98149  -0.97871  -0.81723  -0.77224  -0.70567
  Beta  occ. eigenvalues --   -0.68294  -0.62904  -0.58141  -0.53185  -0.47919
  Beta  occ. eigenvalues --   -0.44889  -0.42912  -0.41734  -0.40515  -0.39879
  Beta  occ. eigenvalues --   -0.39447  -0.38626  -0.36760  -0.35751  -0.35277
  Beta  occ. eigenvalues --   -0.34242  -0.33551  -0.24169  -0.23434  -0.23291
  Beta  occ. eigenvalues --   -0.22660
  Beta virt. eigenvalues --   -0.08440  -0.00162   0.00795   0.01035   0.01679
  Beta virt. eigenvalues --    0.03096   0.03773   0.04206   0.04677   0.05368
  Beta virt. eigenvalues --    0.05740   0.06110   0.06586   0.07884   0.08440

 Mulliken charges and spin densities:
               1          2
     1  C   -0.417027   0.003583
     2  C    1.137382   0.109479
     3  C   -0.595815   0.032085
     4  C   -0.739187   0.109624
     5  O   -0.506487   0.242032
     6  C    1.137327   0.109446
     7  C   -0.595942   0.032041
     8  C   -0.739269   0.109623
     9  O   -0.506497   0.242044
    10  C   -0.417008   0.003584
    11  H    0.145851  -0.000260
    12  H    0.162751   0.005139
    13  H    0.162753   0.005139
    14  H    0.149904  -0.006789
    15  H    0.149913  -0.006786
    16  H    0.162754   0.005137
    17  H    0.145844  -0.000260
    18  H    0.162754   0.005138
 Sum of Mulliken charges =  -1.00000   1.00000

 Dipole moment (field-independent basis, Debye):
    X=             -0.0001    Y=             -0.0002    Z=              0.0003  Tot=              0.0004
 Quadrupole moment (field-independent basis, Debye-Ang):
   XX=            -85.8218   YY=            -78.3207   ZZ=            -63.5100
   XY=            -22.3160   XZ=              0.0001   YZ=             -0.0001

 Normal termination of Gaussian 16 at Sun Jan 21 07:16:39 2024.
