 Gaussian 16, Revision A.03,
 Gaussian 16:  ES64L-G16RevA.03 25-Dec-2016

 --------------------------------------
 #P UB3LYP/6-311++G(d,p) nosym opt freq
 --------------------------------------

 --------
 Oxidized
 --------
 Symbolic Z-matrix:
 Charge =  0 Multiplicity = 1

 SCF Done:  E(UB3LYP) =  -696.141152693     A.U. after   16 cycles
 SCF Done:  E(UB3LYP) =  -696.151245003     A.U. after   14 cycles
 SCF Done:  E(UB3LYP) =  -696.152127804     A.U. after   13 cycles
 SCF Done:  E(UB3LYP) =  -696.152219812     A.U. after   11 cycles
 SCF Done:  E(UB3LYP) =  -696.152225473     A.U. after    9 cycles
 SCF Done:  E(UB3LYP) =  -696.152226010     A.U. after    9 cycles
 Optimization completed.
    -- Stationary point found.
 Normal termination of Gaussian 16 at Sat Jan  6 01:59:31 2024.

 ----------------------------------------------------------------------
 #P Geom=AllCheck Guess=TCheck SCRF=Check GenChk UB3LYP/6-311++G(d,p) F
 req
 ----------------------------------------------------------------------

 Structure from the checkpoint file:  "319.chk"
 --------
 Oxidized
 --------
 Charge =  0 Multiplicity = 1

                          Input orientation:
 ---------------------------------------------------------------------
 Center     Atomic      Atomic             Coordinates (Angstroms)
 Number     Number       Type             X           Y           Z
 ---------------------------------------------------------------------
      1          6           0       -0.767520    4.224996   -0.086159
      2          6           0       -1.992069    3.432681   -0.070261
      3          6           0       -1.964587    2.079396   -0.045790
      4          6           0        0.586706    3.443890   -0.073100
      5          6           0        0.529841    1.957217   -0.046535
      6          6           0       -0.682775    1.361107   -0.034411
      7          8           0        1.632935    4.054647   -0.085780
      8          8           0       -0.753766    5.439611   -0.107953
      9          6           0        1.852340    1.236451   -0.035153
     10          6           0        1.800395   -0.291858   -0.007906
     11          6           0        3.195758   -0.928445    0.001984
     12          6           0        3.157637   -2.458675    0.029359
     13          6           0       -3.276456    1.306864   -0.030202
     14          6           0       -3.213263   -0.224042   -0.004246
     15          6           0       -4.608006   -0.861790    0.008719
     16          6           0       -4.568519   -2.391967    0.034833
     17          1           0       -2.926185    3.985353   -0.079167
     18          1           0       -0.729872    0.280286   -0.014912
     19          1           0        2.427977    1.605043    0.823134
     20          1           0        2.426092    1.574250   -0.907259
     21          1           0        1.246313   -0.662166   -0.879591
     22          1           0        1.248130   -0.630914    0.877541
     23          1           0        3.753747   -0.560455    0.871065
     24          1           0        3.751897   -0.591758   -0.880865
     25          1           0        2.638294   -2.826597    0.919966
     26          1           0        4.165831   -2.881335    0.035888
     27          1           0        2.636511   -2.858153   -0.846488
     28          1           0       -3.856170    1.621707   -0.906131
     29          1           0       -3.852982    1.651397    0.836620
     30          1           0       -2.660129   -0.563398    0.879750
     31          1           0       -2.662784   -0.593304   -0.877854
     32          1           0       -5.166754   -0.524914   -0.872713
     33          1           0       -5.164172   -0.494923    0.879749
     34          1           0       -4.049534   -2.790248   -0.842609
     35          1           0       -5.576508   -2.814743    0.043587
     36          1           0       -4.046854   -2.760039    0.923802
 ---------------------------------------------------------------------

 SCF Done:  E(UB3LYP) =  -696.152226010     A.U. after    1 cycles

 Alpha  occ. eigenvalues --  -19.13752 -19.12847 -10.27355 -10.26873 -10.22752
 Alpha  occ. eigenvalues --  -10.21150 -10.21031 -10.19843 -10.19030 -10.18888
 Alpha  occ. eigenvalues --  -10.18715 -10.18388 -10.18093 -10.17656 -10.17251
 Alpha  occ. eigenvalues --  -10.16722  -1.07524  -1.04769  -0.87768  -0.83160
 Alpha  occ. eigenvalues --   -0.81320  -0.78733  -0.75439  -0.73122  -0.70520
 Alpha  occ. eigenvalues --   -0.66879  -0.64830  -0.61024  -0.59991  -0.59235
 Alpha  occ. eigenvalues --   -0.57343  -0.51801  -0.50715  -0.49907  -0.49060
 Alpha  occ. eigenvalues --   -0.46630  -0.45526  -0.45011  -0.44694  -0.44268
 Alpha  occ. eigenvalues --   -0.44048  -0.43631  -0.42809  -0.41865  -0.41117
 Alpha  occ. eigenvalues --   -0.39203  -0.38985  -0.38374  -0.37372  -0.36809
 Alpha  occ. eigenvalues --   -0.35792  -0.35121  -0.34952  -0.34869  -0.34550
 Alpha  occ. eigenvalues --   -0.34057  -0.33310  -0.30226  -0.25578  -0.25099
 Alpha virt. eigenvalues --   -0.13278  -0.02135  -0.01537  -0.01042  -0.00825
 Alpha virt. eigenvalues --   -0.00480   0.00368   0.00707   0.00787   0.01604
 Alpha virt. eigenvalues --    0.02094   0.02646   0.03226   0.03417   0.04081

  Beta  occ. eigenvalues --  -19.13752 -19.12847 -10.27355 -10.26873 -10.22752
  Beta  occ. eigenvalues --  -10.21150 -10.21031 -10.19843 -10.19030 -10.18888
  Beta  occ. eigenvalues --  -10.18715 -10.18388 -10.18093 -10.17656 -10.17251
  Beta  occ. eigenvalues --  -10.16722  -1.07524  -1.04769  -0.87768  -0.83160
  Beta  occ. eigenvalues --   -0.81320  -0.78733  -0.75439  -0.73122  -0.70520
  Beta  occ. eigenvalues --   -0.66879  -0.64830  -0.61024  -0.59991  -0.59235
  Beta  occ. eigenvalues --   -0.57343  -0.51801  -0.50715  -0.49907  -0.49060
  Beta  occ. eigenvalues --   -0.46630  -0.45526  -0.45011  -0.44694  -0.44268
  Beta  occ. eigenvalues --   -0.44048  -0.43631  -0.42809  -0.41865  -0.41117
  Beta  occ. eigenvalues --   -0.39203  -0.38985  -0.38374  -0.37372  -0.36809
  Beta  occ. eigenvalues --   -0.35792  -0.35121  -0.34952  -0.34869  -0.34550
  Beta  occ. eigenvalues --   -0.34057  -0.33310  -0.30226  -0.25578  -0.25099
  Beta virt. eigenvalues --   -0.13278  -0.02135  -0.01537  -0.01042  -0.00825
  Beta virt. eigenvalues --   -0.00480   0.00368   0.00707   0.00787   0.01604
  Beta virt. eigenvalues --    0.02094   0.02646   0.03226   0.03417   0.04081

 Mulliken charges and spin densities:
               1          2
     1  C   -0.116863   0.000000
     2  C    0.217505   0.000000
     3  C    0.634911  -0.000000
     4  C   -0.421372  -0.000000
     5  C    0.792447   0.000000
     6  C   -0.132373   0.000000
     7  O   -0.181851   0.000000
     8  O   -0.222320  -0.000000
     9  C   -0.456844   0.000000
    10  C   -0.076837  -0.000000
    11  C   -0.341968  -0.000000
    12  C   -0.606952  -0.000000
    13  C   -0.850339   0.000000
    14  C   -0.045970  -0.000000
    15  C   -0.368831   0.000000
    16  C   -0.602236  -0.000000
    17  H    0.196462  -0.000000
    18  H   -0.130446  -0.000000
    19  H    0.210109  -0.000000
    20  H    0.210058  -0.000000
    21  H    0.129147  -0.000000
    22  H    0.129120  -0.000000
    23  H    0.134324   0.000000
    24  H    0.134357  -0.000000
    25  H    0.135178   0.000000
    26  H    0.150139  -0.000000
    27  H    0.135184   0.000000
    28  H    0.186142   0.000000
    29  H    0.186315   0.000000
    30  H    0.141143   0.000000
    31  H    0.141170   0.000000
    32  H    0.133394  -0.000000
    33  H    0.133384  -0.000000
    34  H    0.136837   0.000000
    35  H    0.151058   0.000000
    36  H    0.136820   0.000000
 Sum of Mulliken charges =  -0.00000  -0.00000

 Dipole moment (field-independent basis, Debye):
    X=             -2.6553    Y=             -6.2716    Z=              0.1165  Tot=              6.8116
 Quadrupole moment (field-independent basis, Debye-Ang):
   XX=            -91.2694   YY=           -141.1670   ZZ=            -97.8719
   XY=             -6.9366   XZ=              0.1466   YZ=              0.8574

  Exact polarizability: 203.943   4.242 210.380  -0.176  -1.697 115.850
 Approx polarizability: 285.584  14.653 294.614  -0.387  -1.976 186.375

 ******    1 imaginary frequencies (negative Signs) ******

                      1                      2                      3
                      A                      A                      A
 Frequencies --    -57.9880                31.2913                50.5530
 Red. masses --      2.1598                 4.1671                 3.5945
 Frc consts  --      0.0043                 0.0024                 0.0054
 IR Inten    --      1.5859                 0.1406                 0.0469

                      4                      5                      6
                      A                      A                      A
 Frequencies --     54.6783                71.5148                87.7803
 Red. masses --      3.8558                 1.8215                 2.3492
 Frc consts  --      0.0068                 0.0055                 0.0107
 IR Inten    --      1.0988                 0.2454                 0.3104

                      7                      8                      9
                      A                      A                      A
 Frequencies --    100.5750               103.9833               126.2793
 Red. masses --      1.8806                 3.7677                 2.0326
 Frc consts  --      0.0112                 0.0240                 0.0191
 IR Inten    --      0.0266                 1.1360                 0.1341

                     10                     11                     12
                      A                      A                      A
 Frequencies --    144.9177               191.4862               215.7037
 Red. masses --      3.6616                 2.4441                 3.2350
 Frc consts  --      0.0453                 0.0528                 0.0887
 IR Inten    --      1.8455                 1.2857                 0.6178

                     13                     14                     15
                      A                      A                      A
 Frequencies --    232.7700               245.7424               248.9761
 Red. masses --      5.1148                 1.1382                 1.1826
 Frc consts  --      0.1633                 0.0405                 0.0432
 IR Inten    --      3.6129                 0.0820                 0.0596

                     16                     17                     18
                      A                      A                      A
 Frequencies --    270.7294               291.0813               319.0440
 Red. masses --      4.7280                 4.1795                 3.8636
 Frc consts  --      0.2042                 0.2086                 0.2317
 IR Inten    --      0.1237                 1.2793                 1.7054

                     19                     20                     21
                      A                      A                      A
 Frequencies --    362.6939               424.9069               437.6663
 Red. masses --     12.9892                 3.6200                 3.1983
 Frc consts  --      1.0067                 0.3851                 0.3610
 IR Inten    --      3.4024                 0.4142                 2.1914

                     22                     23                     24
                      A                      A                      A
 Frequencies --    458.7263               531.6151               538.0822
 Red. masses --      5.3029                 4.3807                 6.3051
 Frc consts  --      0.6575                 0.7294                 1.0756
 IR Inten    --     10.2694                 8.1488                 1.4008

                     25                     26                     27
                      A                      A                      A
 Frequencies --    545.4048               632.6747               667.2855
 Red. masses --      2.6539                 5.0302                 4.8454
 Frc consts  --      0.4651                 1.1863                 1.2712
 IR Inten    --      3.4667                 2.0634                 4.6854

                     28                     29                     30
                      A                      A                      A
 Frequencies --    732.6197               738.2780               766.7687
 Red. masses --      1.1461                 1.1212                 5.6926
 Frc consts  --      0.3624                 0.3601                 1.9719
 IR Inten    --      3.4620                 0.0001                 1.1652

                     31                     32                     33
                      A                      A                      A
 Frequencies --    774.1744               780.8188               819.5528
 Red. masses --      1.2865                 1.2981                 2.1191
 Frc consts  --      0.4543                 0.4663                 0.8386
 IR Inten    --      2.3467                 5.0369                 5.8424

                     34                     35                     36
                      A                      A                      A
 Frequencies --    874.6014               908.2943               908.9851
 Red. masses --      1.5273                 1.9054                 1.9003
 Frc consts  --      0.6883                 0.9262                 0.9251
 IR Inten    --     13.4439                 2.2425                 0.7870

                     37                     38                     39
                      A                      A                      A
 Frequencies --    917.0464               945.2970               947.4308
 Red. masses --      1.4832                 1.2799                 4.6665
 Frc consts  --      0.7349                 0.6739                 2.4680
 IR Inten    --      0.5926                 1.1765                15.6790

                     40                     41                     42
                      A                      A                      A
 Frequencies --    959.4852               964.3931              1028.0212
 Red. masses --      4.9781                 1.3090                 3.1989
 Frc consts  --      2.7002                 0.7173                 1.9918
 IR Inten    --      3.1163                 4.8288                 0.9979

                     43                     44                     45
                      A                      A                      A
 Frequencies --   1036.9453              1062.1101              1069.0462
 Red. masses --      3.2065                 2.4860                 2.3208
 Frc consts  --      2.0314                 1.6523                 1.5627
 IR Inten    --      2.7716                 0.0099                 0.1447

                     46                     47                     48
                      A                      A                      A
 Frequencies --   1121.4004              1121.7765              1127.0493
 Red. masses --      2.2460                 2.5239                 1.4736
 Frc consts  --      1.6641                 1.8713                 1.1028
 IR Inten    --      5.1217                 1.8954                 0.1492

                     49                     50                     51
                      A                      A                      A
 Frequencies --   1130.5615              1145.5863              1202.4986
 Red. masses --      1.4888                 2.6718                 2.0657
 Frc consts  --      1.1212                 2.0659                 1.7599
 IR Inten    --      0.0257                 1.5640                10.3122

                     52                     53                     54
                      A                      A                      A
 Frequencies --   1242.9448              1247.1013              1257.6201
 Red. masses --      1.3766                 1.3748                 3.6979
 Frc consts  --      1.2531                 1.2598                 3.4459
 IR Inten    --      0.0693                 0.0407                90.2860

                     55                     56                     57
                      A                      A                      A
 Frequencies --   1276.5383              1288.1785              1312.3119
 Red. masses --      1.4295                 1.4042                 1.1558
 Frc consts  --      1.3724                 1.3729                 1.1728
 IR Inten    --      1.0478                 6.1774                 0.2454

                     58                     59                     60
                      A                      A                      A
 Frequencies --   1323.5190              1332.9434              1334.6508
 Red. masses --      1.1663                 1.7093                 1.0650
 Frc consts  --      1.2037                 1.7893                 1.1178
 IR Inten    --      0.4995                 1.5199                 0.4219

                     61                     62                     63
                      A                      A                      A
 Frequencies --   1338.8653              1361.9544              1375.4173
 Red. masses --      1.0528                 1.5659                 1.5253
 Frc consts  --      1.1120                 1.7113                 1.7001
 IR Inten    --      0.4110                20.2180                 9.5589

                     64                     65                     66
                      A                      A                      A
 Frequencies --   1394.2553              1402.0834              1413.5849
 Red. masses --      1.6833                 1.5643                 1.2712
 Frc consts  --      1.9279                 1.8119                 1.4966
 IR Inten    --     21.4094                10.9983                11.0492

                     67                     68                     69
                      A                      A                      A
 Frequencies --   1415.8048              1424.2240              1463.7398
 Red. masses --      1.2393                 1.7480                 1.0928
 Frc consts  --      1.4636                 2.0891                 1.3795
 IR Inten    --      1.9860                17.6295                21.2542

                     70                     71                     72
                      A                      A                      A
 Frequencies --   1469.5727              1489.7721              1490.5428
 Red. masses --      1.0819                 1.0603                 1.0599
 Frc consts  --      1.3766                 1.3865                 1.3874
 IR Inten    --      0.7307                 0.4588                 2.0058

                     73                     74                     75
                      A                      A                      A
 Frequencies --   1498.3417              1499.5847              1500.3497
 Red. masses --      1.0679                 1.0689                 1.0396
 Frc consts  --      1.4126                 1.4163                 1.3788
 IR Inten    --      0.0658                 0.4430                 6.8202

                     76                     77                     78
                      A                      A                      A
 Frequencies --   1500.6639              1511.7065              1512.7842
 Red. masses --      1.0394                 1.0910                 1.0911
 Frc consts  --      1.3792                 1.4689                 1.4712
 IR Inten    --     10.6860                14.5692                 2.1030

                     79                     80                     81
                      A                      A                      A
 Frequencies --   1608.8618              1678.5293              1727.6227
 Red. masses --      7.9367                 6.2179                12.2760
 Frc consts  --     12.1040                10.3217                21.5876
 IR Inten    --     39.1114                27.1091               335.9271

                     82                     83                     84
                      A                      A                      A
 Frequencies --   1755.2428              2997.1366              3001.6015
 Red. masses --     12.8279                 1.0575                 1.0576
 Frc consts  --     23.2853                 5.5971                 5.6142
 IR Inten    --     81.1783                 7.1969                 1.9063

                     85                     86                     87
                      A                      A                      A
 Frequencies --   3007.4997              3009.0646              3015.5905
 Red. masses --      1.0594                 1.0595                 1.0583
 Frc consts  --      5.6458                 5.6523                 5.6704
 IR Inten    --     12.5705                 9.7825                56.8861

                     88                     89                     90
                      A                      A                      A
 Frequencies --   3016.1669              3017.2989              3018.5364
 Red. masses --      1.0563                 1.0994                 1.0399
 Frc consts  --      5.6616                 5.8974                 5.5825
 IR Inten    --      4.2470                 0.2392                48.6895

                     91                     92                     93
                      A                      A                      A
 Frequencies --   3020.2277              3021.9800              3031.9493
 Red. masses --      1.0374                 1.1002                 1.1014
 Frc consts  --      5.5755                 5.9196                 5.9654
 IR Inten    --     55.0872                 0.5338                 0.0804

                     94                     95                     96
                      A                      A                      A
 Frequencies --   3034.0505              3049.9442              3055.1238
 Red. masses --      1.1025                 1.1041                 1.1048
 Frc consts  --      5.9794                 6.0513                 6.0758
 IR Inten    --      0.6082                29.9589                33.1313

                     97                     98                     99
                      A                      A                      A
 Frequencies --   3078.6191              3080.6473              3085.9224
 Red. masses --      1.1027                 1.1027                 1.1006
 Frc consts  --      6.1578                 6.1656                 6.1752
 IR Inten    --     59.2261                69.1274                45.7867

                    100                    101                    102
                      A                      A                      A
 Frequencies --   3087.8539              3166.2909              3200.1992
 Red. masses --      1.1008                 1.0915                 1.0880
 Frc consts  --      6.1839                 6.4473                 6.5652
 IR Inten    --     37.3929                 4.0952                 8.1009

 - Thermochemistry -
 -------------------
 Temperature   298.150 Kelvin.  Pressure   1.00000 Atm.
 Atom     1 has atomic number  6 and mass  12.00000

 Molecular mass:   220.14633 amu.
 Principal axes and moments of inertia in atomic units:
                           1         2         3
     Eigenvalues --  4456.526265248.326169616.32862
           X            0.92453  -0.38110   0.00101
           Y            0.38103   0.92439   0.01781
           Z           -0.00772  -0.01608   0.99984
 This molecule is an asymmetric top.
 Rotational symmetry number  1.
 Warning -- assumption of classical behavior for rotation
           may cause significant error
 Rotational temperatures (Kelvin)      0.01944     0.01650     0.00901
 Rotational constants (GHZ):           0.40497     0.34387     0.18767
    1 imaginary frequencies ignored.
 Zero-point vibrational energy     812945.8 (Joules/Mol)
                                  194.29870 (Kcal/Mol)
 Warning -- explicit consideration of  24 degrees of freedom as
           vibrations may cause significant error
 Vibrational temperatures:     45.02    72.73    78.67   102.89   126.30
          (Kelvin)            144.71   149.61   181.69   208.50   275.51
                              310.35   334.90   353.57   358.22   389.52
                              418.80   459.03   521.84   611.35   629.70
                              660.00   764.88   774.18   784.72   910.28
                              960.08  1054.08  1062.22  1103.21  1113.86
                             1123.42  1179.15  1258.36  1306.83  1307.83
                             1319.43  1360.07  1363.14  1380.49  1387.55
                             1479.09  1491.93  1528.14  1538.12  1613.45
                             1613.99  1621.57  1626.63  1648.24  1730.13
                             1788.32  1794.30  1809.43  1836.65  1853.40
                             1888.12  1904.25  1917.81  1920.26  1926.33
                             1959.55  1978.92  2006.02  2017.29  2033.83
                             2037.03  2049.14  2106.00  2114.39  2143.45
                             2144.56  2155.78  2157.57  2158.67  2159.12
                             2175.01  2176.56  2314.79  2415.03  2485.66
                             2525.40  4312.21  4318.64  4327.12  4329.37
                             4338.76  4339.59  4341.22  4343.00  4345.43
                             4347.96  4362.30  4365.32  4388.19  4395.64
                             4429.45  4432.36  4439.95  4442.73  4555.59
                             4604.37

 Zero-point correction=                           0.309635 (Hartree/Particle)
 Thermal correction to Energy=                    0.326660
 Thermal correction to Enthalpy=                  0.327604
 Thermal correction to Gibbs Free Energy=         0.263469
 Sum of electronic and zero-point Energies=           -695.842591
 Sum of electronic and thermal Energies=              -695.825566
 Sum of electronic and thermal Enthalpies=            -695.824622
 Sum of electronic and thermal Free Energies=         -695.888757

                     E (Thermal)             CV                S
                      KCal/Mol        Cal/Mol-Kelvin    Cal/Mol-Kelvin
 Total                  204.982             62.562            134.983
 Electronic               0.000              0.000              0.000
 Translational            0.889              2.981             42.070
 Rotational               0.889              2.981             33.775
 Vibrational            203.205             56.600             59.139
 Vibration     1          0.594              1.983              5.746
 Vibration     2          0.595              1.977              4.796
 Vibration     3          0.596              1.976              4.641
 Vibration     4          0.598              1.968              4.111
 Vibration     5          0.601              1.958              3.709
 Vibration     6          0.604              1.949              3.443
 Vibration     7          0.605              1.946              3.378
 Vibration     8          0.611              1.927              3.002
 Vibration     9          0.616              1.908              2.738
 Vibration    10          0.634              1.852              2.213
 Vibration    11          0.645              1.817              1.995
 Vibration    12          0.654              1.791              1.857
 Vibration    13          0.660              1.770              1.761
 Vibration    14          0.662              1.764              1.738
 Vibration    15          0.674              1.727              1.592
 Vibration    16          0.687              1.690              1.468
 Vibration    17          0.705              1.637              1.315
 Vibration    18          0.737              1.549              1.111
 Vibration    19          0.787              1.416              0.875
 Vibration    20          0.798              1.388              0.834
 Vibration    21          0.817              1.342              0.770
 Vibration    22          0.887              1.180              0.584
 Vibration    23          0.893              1.166              0.569
 Vibration    24          0.901              1.150              0.554

                           ! Non-Optimized Parameters !
 Normal termination of Gaussian 16 at Sat Jan  6 02:37:13 2024.
