 Q-Chem 5.4, Q-Chem, Inc., Pleasanton, CA (2021)
 Q-Chem 5.4.0 for Intel X86 EM64T Linux

User input:
--------------------------------------------------------------
$molecule
0 1
C                 -1.5150390000     -2.0173680000      1.4104780000
C                 -2.0964170000     -2.0593540000      0.0489870000
C                 -1.8012230000     -1.1265630000     -0.8591400000
C                 -0.8591940000     -0.0258560000     -0.5517400000
C                 -0.2372400000      0.0302860000      0.8173950000
C                 -0.5702240000     -0.8986590000      1.7573830000
O                 -1.8215600000     -2.8741680000      2.2229410000
O                 -0.5956660000      0.7989770000     -1.4110200000
H                 -2.2165720000     -1.1219340000     -1.8608020000
C                  0.5425370000     -1.9783070000      3.7370570000
C                 -0.2829350000      0.2777580000      3.9495680000
C                  0.9887690000     -1.9364950000      5.0548170000
C                  0.7910890000     -0.7932980000      5.8273950000
C                  0.1474750000      0.3115680000      5.2723250000
H                 -2.7736740000     -2.8834170000     -0.1462120000
H                  0.6858570000     -2.8774960000      3.1513660000
H                 -0.7797330000      1.1411080000      3.5235290000
H                  1.4828830000     -2.8023110000      5.4809510000
H                  1.1308700000     -0.7657960000      6.8565970000
H                 -0.0196590000      1.2014060000      5.8686290000
C                  0.7622910000      1.1092650000      1.0368770000
C                  0.4396370000      2.4520080000      0.7985030000
C                  2.0609430000      0.7925180000      1.4571900000
C                  1.3843370000      3.4531880000      1.0047760000
C                  3.0096530000      1.7928230000      1.6454110000
C                  2.6723570000      3.1274890000      1.4264230000
H                 -0.5526670000      2.7146540000      0.4543210000
H                  2.3288790000     -0.2424900000      1.6322620000
H                  1.1158560000      4.4882740000      0.8261880000
H                  4.0118630000      1.5290950000      1.9637610000
H                  3.4097850000      3.9077610000      1.5775460000
C                 -0.0861160000     -0.8651170000      3.1630570000
$end
$rem
MAX_SCF_CYCLES=200
BASIS  =  6-311++G(d,p)
GUI  =  2
JOB_TYPE  =  SP
METHOD  =  B3LYP
SOLVENT_METHOD = PCM
$end
$pcm
theory = CPCM
$end
$solvent
dielectric 37.219
opticaldielectric 1.43
$end

--------------------------------------------------------------

             Standard Nuclear Orientation (Angstroms)
    I     Atom           X                Y                Z
 ----------------------------------------------------------------
    1      C      -1.5150390000    -2.0173680000     1.4104780000
    2      C      -2.0964170000    -2.0593540000     0.0489870000
    3      C      -1.8012230000    -1.1265630000    -0.8591400000
    4      C      -0.8591940000    -0.0258560000    -0.5517400000
    5      C      -0.2372400000     0.0302860000     0.8173950000
    6      C      -0.5702240000    -0.8986590000     1.7573830000
    7      O      -1.8215600000    -2.8741680000     2.2229410000
    8      O      -0.5956660000     0.7989770000    -1.4110200000
    9      H      -2.2165720000    -1.1219340000    -1.8608020000
   10      C       0.5425370000    -1.9783070000     3.7370570000
   11      C      -0.2829350000     0.2777580000     3.9495680000
   12      C       0.9887690000    -1.9364950000     5.0548170000
   13      C       0.7910890000    -0.7932980000     5.8273950000
   14      C       0.1474750000     0.3115680000     5.2723250000
   15      H      -2.7736740000    -2.8834170000    -0.1462120000
   16      H       0.6858570000    -2.8774960000     3.1513660000
   17      H      -0.7797330000     1.1411080000     3.5235290000
   18      H       1.4828830000    -2.8023110000     5.4809510000
   19      H       1.1308700000    -0.7657960000     6.8565970000
   20      H      -0.0196590000     1.2014060000     5.8686290000
   21      C       0.7622910000     1.1092650000     1.0368770000
   22      C       0.4396370000     2.4520080000     0.7985030000
   23      C       2.0609430000     0.7925180000     1.4571900000
   24      C       1.3843370000     3.4531880000     1.0047760000
   25      C       3.0096530000     1.7928230000     1.6454110000
   26      C       2.6723570000     3.1274890000     1.4264230000
   27      H      -0.5526670000     2.7146540000     0.4543210000
   28      H       2.3288790000    -0.2424900000     1.6322620000
   29      H       1.1158560000     4.4882740000     0.8261880000
   30      H       4.0118630000     1.5290950000     1.9637610000
   31      H       3.4097850000     3.9077610000     1.5775460000
   32      C      -0.0861160000    -0.8651170000     3.1630570000
 ----------------------------------------------------------------

    8    -843.7948071095      5.67e-06  Convergence criterion met
 Total energy in the final basis set =     -843.7948071095

                    Orbital Energies (a.u.)
 --------------------------------------------------------------

 Alpha MOs
 -- Occupied --
-19.1434 -19.1434 -10.2894 -10.2894 -10.2234 -10.2227 -10.2109 -10.2100
-10.1986 -10.1986 -10.1839 -10.1839 -10.1833 -10.1833 -10.1818 -10.1818
-10.1807 -10.1807 -10.1805 -10.1805  -1.0763  -1.0745  -0.8877  -0.8682
 -0.8553  -0.8127  -0.7740  -0.7566  -0.7563  -0.7394  -0.7048  -0.6554
 -0.6313  -0.6151  -0.6150  -0.5908  -0.5858  -0.5331  -0.5274  -0.5273
 -0.5034  -0.4831  -0.4727  -0.4693  -0.4632  -0.4609  -0.4450  -0.4435
 -0.4384  -0.4311  -0.4290  -0.4284  -0.4195  -0.4120  -0.3831  -0.3776
 -0.3615  -0.3605  -0.3557  -0.3533  -0.3141  -0.3067  -0.2974  -0.2813
 -0.2743  -0.2643  -0.2631  -0.2450

          Ground-State Mulliken Net Atomic Charges

     Atom                 Charge (a.u.)
  ----------------------------------------
      1 C                    -0.613072
      2 C                    -0.082675
      3 C                    -0.083029
      4 C                    -0.617346
      5 C                    -0.032806
      6 C                    -0.031318
      7 O                    -0.259961
      8 O                    -0.259962
      9 H                     0.261422
     10 C                    -0.215909
     11 C                    -0.502894
     12 C                    -0.324198
     13 C                    -0.351702
     14 C                    -0.490962
     15 H                     0.261275
     16 H                     0.241789
     17 H                     0.229537
     18 H                     0.217032
     19 H                     0.202807
     20 H                     0.215731
     21 C                     1.512699
     22 C                    -0.213349
     23 C                    -0.505792
     24 C                    -0.326552
     25 C                    -0.492077
     26 C                    -0.350086
     27 H                     0.241362
     28 H                     0.228771
     29 H                     0.216850
     30 H                     0.215555
     31 H                     0.202810
     32 C                     1.506048
  ----------------------------------------
  Sum of atomic charges =     0.000000

                    Cartesian Multipole Moments
 -----------------------------------------------------------------
    Charge (ESU x 10^10)
                -0.0000
    Dipole Moment (Debye)
         X       0.7901      Y       0.5936      Z       0.8688
       Tot       1.3159
    Quadrupole Moments (Debye-Ang)
        XX    -108.8418     XY      -3.3778     YY    -111.6035
        XZ      13.1789     YZ      12.8754     ZZ    -114.3153

 Total job time:  71.70s(wall), 459.55s(cpu)
        *  Thank you very much for using Q-Chem.  Have a nice day.  *
