 Q-Chem 5.4, Q-Chem, Inc., Pleasanton, CA (2021)
 Q-Chem 5.4.0 for Intel X86 EM64T Linux

User input:
--------------------------------------------------------------
$molecule
-1 2
C                 -0.7038440000      2.7255730000      0.6437240000
C                 -1.6876530000      2.5649600000     -0.3182120000
C                 -1.4359510000      1.7861480000     -1.4590500000
C                  0.5540110000      2.1123910000      0.4889160000
C                  0.8100570000      1.3275930000     -0.6591360000
C                 -0.1983640000      1.1775630000     -1.6201560000
C                  1.5883700000      2.2799990000      1.4986290000
C                  2.8486670000      1.6260420000      1.2754020000
C                  3.1575730000      0.8336940000      0.1493310000
C                  2.1275190000      0.6456580000     -0.8890190000
O                  1.4462420000      2.9656810000      2.5598620000
O                  2.2881450000     -0.0269380000     -1.9102480000
O                  3.7455380000      1.8356020000      2.2583510000
H                 -0.8724600000      3.3212090000      1.5332350000
H                 -2.6546320000      3.0420450000     -0.1897080000
H                 -2.2067780000      1.6602500000     -2.2128570000
H                  0.0248180000      0.5707630000     -2.4899420000
H                  3.2424490000      2.4094740000      2.8785620000
N                  4.4264790000      0.3080040000      0.1518350000
N                  4.8154250000     -0.4161730000     -0.8203300000
C                  6.1426940000     -0.8800190000     -0.6650590000
C                  6.9811010000     -0.6014640000      0.4315640000
C                  6.6354960000     -1.6818790000     -1.7064000000
C                  7.9289980000     -2.1938610000     -1.6595400000
C                  8.7564600000     -1.9149320000     -0.5704810000
C                  8.2710190000     -1.1163580000      0.4708420000
H                  6.5927850000      0.0178010000      1.2302420000
H                  5.9750250000     -1.8853710000     -2.5418750000
H                  8.2935410000     -2.8122430000     -2.4740430000
H                  9.7653120000     -2.3128180000     -0.5311500000
H                  8.9095590000     -0.8954650000      1.3213580000
$end
$rem
MAX_SCF_CYCLES=200
BASIS  =  6-311++G(d,p)
GUI  =  2
JOB_TYPE  =  SP
METHOD  =  B3LYP
SOLVENT_METHOD = COSMO
$end
$solvent
dielectric 37.219
opticaldielectric 1.43
$end

--------------------------------------------------------------

             Standard Nuclear Orientation (Angstroms)
    I     Atom           X                Y                Z
 ----------------------------------------------------------------
    1      C       4.5323924676    -0.4381324804    -0.0015374855
    2      C       5.2810092126     0.7274425380     0.0007858490
    3      C       4.6390319142     1.9761493171     0.0039320572
    4      C       3.1255429605    -0.3839954931    -0.0008067249
    5      C       2.4765714673     0.8723154678     0.0022949200
    6      C       3.2519596710     2.0392552644     0.0047442174
    7      C       2.3378065614    -1.6075059392    -0.0030154755
    8      C       0.9063897264    -1.4775663610    -0.0026550719
    9      C       0.2081273003    -0.2513119010    -0.0007184008
   10      C       0.9812008011     1.0044282536     0.0029598004
   11      O       2.8354931401    -2.7774965325    -0.0054102263
   12      O       0.4753431599     2.1292310328     0.0075983462
   13      O       0.2585555126    -2.6585764407    -0.0054378690
   14      H       5.0030774676    -1.4142951804    -0.0038683543
   15      H       6.3656483073     0.6751992307     0.0001279613
   16      H       5.2255503744     2.8895180190     0.0057413919
   17      H       2.7287508564     2.9883551898     0.0071934856
   18      H       1.0019631162    -3.3023419359    -0.0060867324
   19      N      -1.1599358601    -0.3732985998     0.0003387037
   20      N      -1.8901757492     0.6695428891    -0.0065488851
   21      C      -3.2733557555     0.3733988363    -0.0024301783
   22      C      -3.8306442675    -0.9197763324     0.0126922279
   23      C      -4.1354314115     1.4810590929    -0.0142059281
   24      C      -5.5165860025     1.3082213413    -0.0113847124
   25      C      -6.0643985597     0.0243896145     0.0035066712
   26      C      -5.2103608736    -1.0838538686     0.0154649807
   27      H      -3.1583068768    -1.7683312550     0.0217465254
   28      H      -3.6875466383     2.4684399541    -0.0255053273
   29      H      -6.1682652677     2.1765128894    -0.0207097634
   30      H      -7.1408013128    -0.1134293107     0.0058755233
   31      H      -5.6299545348    -2.0857062046     0.0271940738
 ----------------------------------------------------------------

    9    -951.1908389316      5.64e-06  Convergence criterion met
 Total energy in the final basis set =     -951.1908389316
    5    -951.2732934067      3.37e-06  Convergence criterion met
 Total energy in the final basis set =     -951.2732934067

                    Orbital Energies (a.u.)
 --------------------------------------------------------------

 Alpha MOs
 -- Occupied --
-19.1567 -19.0994 -19.0950 -14.3472 -14.3388 -10.2516 -10.2414 -10.2344
-10.2008 -10.2001 -10.1866 -10.1843 -10.1797 -10.1781 -10.1774 -10.1769
-10.1768 -10.1762 -10.1754 -10.1741 -10.1726  -1.0824  -1.0337  -1.0148
 -1.0104  -0.8700  -0.8636  -0.8248  -0.7835  -0.7587  -0.7503  -0.7422
 -0.7003  -0.6672  -0.6320  -0.6170  -0.6039  -0.5856  -0.5713  -0.5468
 -0.5318  -0.5050  -0.4936  -0.4824  -0.4721  -0.4557  -0.4543  -0.4501
 -0.4354  -0.4345  -0.4306  -0.4226  -0.4204  -0.4132  -0.4022  -0.3905
 -0.3831  -0.3823  -0.3607  -0.3591  -0.3561  -0.3541  -0.3473  -0.3417
 -0.2849  -0.2762  -0.2689  -0.2688  -0.2639  -0.2612  -0.2270  -0.2106
 -0.1653

 Beta MOs
 -- Occupied --
-19.1553 -19.0928 -19.0924 -14.3474 -14.3369 -10.2510 -10.2387 -10.2317
-10.2011 -10.1998 -10.1871 -10.1833 -10.1800 -10.1775 -10.1769 -10.1769
-10.1767 -10.1764 -10.1751 -10.1737 -10.1722  -1.0784  -1.0300  -1.0115
 -0.9997  -0.8683  -0.8630  -0.8220  -0.7806  -0.7571  -0.7499  -0.7410
 -0.6938  -0.6634  -0.6302  -0.6154  -0.6028  -0.5845  -0.5693  -0.5452
 -0.5308  -0.5033  -0.4913  -0.4812  -0.4709  -0.4538  -0.4494  -0.4437
 -0.4350  -0.4324  -0.4275  -0.4225  -0.4108  -0.4103  -0.3929  -0.3890
 -0.3812  -0.3740  -0.3596  -0.3554  -0.3538  -0.3464  -0.3415  -0.3378
 -0.2760  -0.2723  -0.2644  -0.2606  -0.2601  -0.2578  -0.2171  -0.2089

          Ground-State Mulliken Net Atomic Charges

     Atom                 Charge (a.u.)    Spin (a.u.)
  --------------------------------------------------------
      1 C                     0.080489       0.083327
      2 C                    -0.285091      -0.025753
      3 C                    -0.429119       0.071947
      4 C                     0.640624      -0.027630
      5 C                     0.161386       0.052379
      6 C                     0.079238      -0.020305
      7 C                    -0.567276       0.170311
      8 C                    -0.101527       0.153665
      9 C                     0.184881       0.022535
     10 C                    -0.487251       0.031748
     11 O                    -0.516142       0.243137
     12 O                    -0.388650       0.098921
     13 O                    -0.265610       0.046096
     14 H                     0.186712      -0.005301
     15 H                     0.210538       0.001368
     16 H                     0.208753      -0.004765
     17 H                     0.184782       0.001399
     18 H                     0.330882      -0.004540
     19 N                    -0.182260      -0.036711
     20 N                     0.062240       0.115799
     21 C                    -0.314947      -0.032898
     22 C                     0.166747       0.035935
     23 C                    -0.128989       0.029112
     24 C                    -0.155944      -0.012979
     25 C                    -0.366387       0.032620
     26 C                    -0.350135      -0.014961
     27 H                     0.207961      -0.001960
     28 H                     0.196180      -0.001927
     29 H                     0.220771       0.000750
     30 H                     0.191725      -0.002096
     31 H                     0.225406       0.000776
  --------------------------------------------------------
  Sum of atomic charges =    -1.000010

                    Cartesian Multipole Moments
 -----------------------------------------------------------------
    Charge (ESU x 10^10)
                -4.8033
    Dipole Moment (Debye)
         X      -1.7620      Y       1.3437      Z       0.0074
       Tot       2.2159
    Quadrupole Moments (Debye-Ang)
        XX    -123.5661     XY      15.2697     YY    -142.2956
        XZ      -0.0021     YZ      -0.1342     ZZ    -128.5288

 Total job time:  109.51s(wall), 802.61s(cpu)
        *  Thank you very much for using Q-Chem.  Have a nice day.  *
