 Q-Chem 5.4, Q-Chem, Inc., Pleasanton, CA (2021)
 Q-Chem 5.4.0 for Intel X86 EM64T Linux

User input:
--------------------------------------------------------------
$molecule
-2 1
C                  1.3292440000      1.0456640000     -2.9831660000
C                  0.0212250000      1.4078550000     -3.4708720000
C                 -1.1112250000      0.7098810000     -3.1274280000
C                 -1.1126770000     -0.4575150000     -2.2760330000
C                  0.1776900000     -0.8804630000     -1.8254750000
O                  2.3433960000      1.7945440000     -3.1878070000
O                 -2.2200520000     -1.0669990000     -1.9945940000
H                 -0.0320960000      2.2992690000     -4.0945980000
C                  1.3727270000     -0.1815700000     -2.1924380000
C                  2.6788180000     -0.6189060000     -1.7028270000
C                  3.8939960000     -0.5539220000     -2.6121240000
C                  5.1713480000     -0.5681450000     -2.0324870000
C                  3.8065940000     -0.6476000000     -4.0087520000
C                  6.3216540000     -0.6593830000     -2.8163370000
C                  6.2205100000     -0.7582790000     -4.2041690000
C                  4.9504080000     -0.7540480000     -4.7938510000
O                  2.8734560000     -1.1275300000     -0.5799540000
C                  0.2122480000     -2.1641820000     -1.0296720000
H                  5.2354890000     -0.5189890000     -0.9514170000
H                  2.8244640000     -0.6330370000     -4.4662690000
H                  7.3026000000     -0.6659470000     -2.3442210000
H                  7.1152620000     -0.8509310000     -4.8167340000
H                  4.8560500000     -0.8292840000     -5.8743270000
H                 -2.0865450000      1.0262180000     -3.4987130000
H                  0.3122430000     -1.9849850000      0.0493740000
H                  1.0586410000     -2.8008070000     -1.3085880000
H                 -0.7310560000     -2.6917090000     -1.1974010000
$end

$rem
BASIS  =  6-311++G(d,p)
GUI  =  2
JOB_TYPE  =  SP
METHOD  =  B3LYP
SCF_CONVERGENCE  = 8
SOLVENT_METHOD = sm12
$end

$smx
solvent dimethylformamide
charges CM5
$end

--------------------------------------------------------------

             Standard Nuclear Orientation (Angstroms)
    I     Atom           X                Y                Z
 ----------------------------------------------------------------
    1      C       1.3292440000     1.0456640000    -2.9831660000
    2      C       0.0212250000     1.4078550000    -3.4708720000
    3      C      -1.1112250000     0.7098810000    -3.1274280000
    4      C      -1.1126770000    -0.4575150000    -2.2760330000
    5      C       0.1776900000    -0.8804630000    -1.8254750000
    6      O       2.3433960000     1.7945440000    -3.1878070000
    7      O      -2.2200520000    -1.0669990000    -1.9945940000
    8      H      -0.0320960000     2.2992690000    -4.0945980000
    9      C       1.3727270000    -0.1815700000    -2.1924380000
   10      C       2.6788180000    -0.6189060000    -1.7028270000
   11      C       3.8939960000    -0.5539220000    -2.6121240000
   12      C       5.1713480000    -0.5681450000    -2.0324870000
   13      C       3.8065940000    -0.6476000000    -4.0087520000
   14      C       6.3216540000    -0.6593830000    -2.8163370000
   15      C       6.2205100000    -0.7582790000    -4.2041690000
   16      C       4.9504080000    -0.7540480000    -4.7938510000
   17      O       2.8734560000    -1.1275300000    -0.5799540000
   18      C       0.2122480000    -2.1641820000    -1.0296720000
   19      H       5.2354890000    -0.5189890000    -0.9514170000
   20      H       2.8244640000    -0.6330370000    -4.4662690000
   21      H       7.3026000000    -0.6659470000    -2.3442210000
   22      H       7.1152620000    -0.8509310000    -4.8167340000
   23      H       4.8560500000    -0.8292840000    -5.8743270000
   24      H      -2.0865450000     1.0262180000    -3.4987130000
   25      H       0.3122430000    -1.9849850000     0.0493740000
   26      H       1.0586410000    -2.8008070000    -1.3085880000
   27      H      -0.7310560000    -2.6917090000    -1.1974010000
 ----------------------------------------------------------------

   19    -765.3503214501      3.40e-09  Convergence criterion met
 Total energy in the final basis set =     -765.6362932168

                    Orbital Energies (a.u.)
 --------------------------------------------------------------

 Alpha MOs
 -- Occupied --
-19.0869 -19.0334 -19.0194 -10.2388 -10.1969 -10.1866 -10.1854 -10.1847
-10.1837 -10.1817 -10.1810 -10.1797 -10.1549 -10.1539 -10.1487 -10.1465
-10.1450  -1.0114  -0.9547  -0.9336  -0.8634  -0.7992  -0.7648  -0.7545
 -0.7481  -0.7000  -0.6457  -0.6323  -0.6133  -0.5910  -0.5438  -0.5402
 -0.5029  -0.4668  -0.4620  -0.4565  -0.4418  -0.4359  -0.4295  -0.4199
 -0.4084  -0.3932  -0.3874  -0.3796  -0.3660  -0.3639  -0.3627  -0.3528
 -0.3459  -0.3372  -0.3295  -0.3185  -0.2648  -0.2631  -0.2421  -0.2383
 -0.2264  -0.2033  -0.1967  -0.1296

          Ground-State Mulliken Net Atomic Charges

     Atom                 Charge (a.u.)
  ----------------------------------------
      1 C                    -0.725984
      2 C                    -0.256754
      3 C                    -0.026033
      4 C                    -2.078716
      5 C                    -1.510767
      6 O                    -0.266748
      7 O                    -0.420956
      8 H                     0.144078
      9 C                    -0.414906
     10 C                    -1.254579
     11 C                     0.096031
     12 C                     0.792797
     13 C                    -2.283145
     14 C                     1.650503
     15 C                     2.103719
     16 C                     0.765518
     17 O                    -0.144394
     18 C                    -0.100628
     19 H                     0.230286
     20 H                    -0.056778
     21 H                     0.406912
     22 H                     0.475310
     23 H                     0.361653
     24 H                     0.113832
     25 H                     0.121243
     26 H                     0.152971
     27 H                     0.125536
  ----------------------------------------
  Sum of atomic charges =    -2.000000

                    Cartesian Multipole Moments
 -----------------------------------------------------------------
    Charge (ESU x 10^10)
                -9.6064
    Dipole Moment (Debye)
         X      -4.9376      Y       1.0937      Z      21.0503
       Tot      21.6493
    Quadrupole Moments (Debye-Ang)
        XX    -164.6767     XY     -11.6725     YY    -133.7575
        XZ      11.7803     YZ      10.6530     ZZ    -164.5658

 Total job time:  704.61s(wall), 5526.98s(cpu)
        *  Thank you very much for using Q-Chem.  Have a nice day.  *
