 Q-Chem 5.4, Q-Chem, Inc., Pleasanton, CA (2021)
 Q-Chem 5.4.0 for Intel X86 EM64T Linux

User input:
--------------------------------------------------------------
$molecule
0 1
C                  5.5798660000     -4.6113140000     -1.0113040000
C                  6.4866870000     -4.0890020000     -1.9897140000
C                  6.1865270000     -2.8242370000     -2.5851190000
C                  4.4275330000     -3.9266730000     -0.6300750000
C                  4.1629590000     -2.6587810000     -1.2528370000
C                  5.0188040000     -2.1393890000     -2.1931810000
C                  3.4573810000     -4.4453560000      0.3911210000
C                  2.2560700000     -3.6059900000      0.7074750000
C                  2.0137000000     -2.3708100000      0.0896490000
C                  2.9567560000     -1.8369290000     -0.9213760000
C                  1.3490470000     -4.0871170000      1.6593710000
C                  0.2206180000     -3.3472090000      1.9875090000
C                 -0.0184450000     -2.1153270000      1.3693840000
C                  0.8744270000     -1.6293620000      0.4245270000
C                  7.6684480000     -4.7591020000     -2.4011200000
C                  8.5002340000     -4.2054130000     -3.3464040000
C                  8.2007630000     -2.9558140000     -3.9326100000
C                  7.0656000000     -2.2808100000     -3.5573760000
O                  3.6035360000     -5.5078250000      0.9672820000
O                  2.7591380000     -0.7626850000     -1.4677260000
Cl                 6.0025210000     -6.1623370000     -0.3202130000
H                  4.7762660000     -1.1800640000     -2.6343040000
H                  1.5508730000     -5.0423050000      2.1269830000
H                 -0.4767550000     -3.7269540000      2.7256270000
H                 -0.9003500000     -1.5404020000      1.6279570000
H                  0.7140860000     -0.6791170000     -0.0693160000
H                  7.9132610000     -5.7158250000     -1.9633150000
H                  9.3972380000     -4.7357510000     -3.6448260000
H                  8.8676250000     -2.5345620000     -4.6759280000
H                  6.8202870000     -1.3204910000     -3.9970410000
$end

$rem
BASIS  =  6-311++G(d,p)
GUI  =  2
JOB_TYPE  =  SP
METHOD  =  B3LYP
SCF_CONVERGENCE  = 8
SOLVENT_METHOD = sm12
$end

$smx
solvent dimethylformamide
charges CM5
$end

--------------------------------------------------------------

             Standard Nuclear Orientation (Angstroms)
    I     Atom           X                Y                Z
 ----------------------------------------------------------------
    1      C       5.5798660000    -4.6113140000    -1.0113040000
    2      C       6.4866870000    -4.0890020000    -1.9897140000
    3      C       6.1865270000    -2.8242370000    -2.5851190000
    4      C       4.4275330000    -3.9266730000    -0.6300750000
    5      C       4.1629590000    -2.6587810000    -1.2528370000
    6      C       5.0188040000    -2.1393890000    -2.1931810000
    7      C       3.4573810000    -4.4453560000     0.3911210000
    8      C       2.2560700000    -3.6059900000     0.7074750000
    9      C       2.0137000000    -2.3708100000     0.0896490000
   10      C       2.9567560000    -1.8369290000    -0.9213760000
   11      C       1.3490470000    -4.0871170000     1.6593710000
   12      C       0.2206180000    -3.3472090000     1.9875090000
   13      C      -0.0184450000    -2.1153270000     1.3693840000
   14      C       0.8744270000    -1.6293620000     0.4245270000
   15      C       7.6684480000    -4.7591020000    -2.4011200000
   16      C       8.5002340000    -4.2054130000    -3.3464040000
   17      C       8.2007630000    -2.9558140000    -3.9326100000
   18      C       7.0656000000    -2.2808100000    -3.5573760000
   19      O       3.6035360000    -5.5078250000     0.9672820000
   20      O       2.7591380000    -0.7626850000    -1.4677260000
   21      Cl      6.0025210000    -6.1623370000    -0.3202130000
   22      H       4.7762660000    -1.1800640000    -2.6343040000
   23      H       1.5508730000    -5.0423050000     2.1269830000
   24      H      -0.4767550000    -3.7269540000     2.7256270000
   25      H      -0.9003500000    -1.5404020000     1.6279570000
   26      H       0.7140860000    -0.6791170000    -0.0693160000
   27      H       7.9132610000    -5.7158250000    -1.9633150000
   28      H       9.3972380000    -4.7357510000    -3.6448260000
   29      H       8.8676250000    -2.5345620000    -4.6759280000
   30      H       6.8202870000    -1.3204910000    -3.9970410000
 ----------------------------------------------------------------

   15   -1302.2385404536      5.56e-09  Convergence criterion met
 Total energy in the final basis set =    -1302.2636978827

                    Orbital Energies (a.u.)
 --------------------------------------------------------------

 Alpha MOs
 -- Occupied --
******** -19.1269 -19.1265 -10.2850 -10.2810 -10.2700 -10.2231 -10.2191
-10.2134 -10.2129 -10.2097 -10.2079 -10.2034 -10.1981 -10.1976 -10.1971
-10.1963 -10.1961 -10.1961 -10.1954 -10.1948  -9.4789  -7.2435  -7.2341
 -7.2327  -1.0655  -1.0624  -0.9219  -0.8892  -0.8751  -0.8545  -0.8046
 -0.7850  -0.7778  -0.7709  -0.7505  -0.6858  -0.6826  -0.6494  -0.6303
 -0.6104  -0.5859  -0.5810  -0.5568  -0.5301  -0.5205  -0.5026  -0.4892
 -0.4705  -0.4669  -0.4614  -0.4606  -0.4517  -0.4507  -0.4482  -0.4450
 -0.4352  -0.4239  -0.4187  -0.4045  -0.3869  -0.3809  -0.3733  -0.3685
 -0.3682  -0.3610  -0.3418  -0.3318  -0.2984  -0.2856  -0.2836  -0.2777
 -0.2752  -0.2662  -0.2446

          Ground-State Mulliken Net Atomic Charges

     Atom                 Charge (a.u.)
  ----------------------------------------
      1 C                     0.342502
      2 C                    -0.306747
      3 C                     1.087460
      4 C                    -0.499591
      5 C                     0.384416
      6 C                     0.088714
      7 C                    -3.029816
      8 C                    -0.625812
      9 C                     0.292435
     10 C                    -1.784313
     11 C                     0.143976
     12 C                     0.551083
     13 C                     0.457706
     14 C                     0.178066
     15 C                    -0.890659
     16 C                    -0.017080
     17 C                     0.634726
     18 C                     0.476093
     19 O                    -0.138115
     20 O                    -0.241161
     21 Cl                    0.579798
     22 H                     0.159470
     23 H                     0.187189
     24 H                     0.328554
     25 H                     0.332542
     26 H                     0.192222
     27 H                     0.199956
     28 H                     0.302284
     29 H                     0.319854
     30 H                     0.294251
  ----------------------------------------
  Sum of atomic charges =     0.000000

                    Cartesian Multipole Moments
 -----------------------------------------------------------------
    Charge (ESU x 10^10)
                 0.0000
    Dipole Moment (Debye)
         X       0.9725      Y       1.2092      Z      -1.4667
       Tot       2.1352
    Quadrupole Moments (Debye-Ang)
        XX     -88.7209     XY       1.1916     YY    -143.5046
        XZ     -30.5916     YZ       7.3470     ZZ    -113.6630

 Total job time:  788.35s(wall), 6174.05s(cpu)
        *  Thank you very much for using Q-Chem.  Have a nice day.  *
