 Q-Chem 5.4, Q-Chem, Inc., Pleasanton, CA (2021)
 Q-Chem 5.4.0 for Intel X86 EM64T Linux

User input:
--------------------------------------------------------------
$molecule
-1 2
C                  1.6267570000      0.9139680000     -0.6697280000
C                  0.3491510000      1.5684090000     -0.5268430000
C                 -0.7787370000      0.9095740000     -0.1161100000
C                 -0.7749320000     -0.5010990000      0.1960440000
C                  0.4982510000     -1.1994090000      0.0338980000
C                  1.6217150000     -0.5205760000     -0.3833380000
O                  2.6767640000      1.5392460000     -1.0053360000
O                 -1.8163850000     -1.1085840000      0.5802470000
C                  0.5196080000     -2.6694840000      0.3561880000
O                  2.8211580000     -1.2160370000     -0.4482100000
C                  3.4883820000     -1.1929920000     -1.7081490000
H                  0.3339260000      2.6326000000     -0.7459310000
H                 -1.7268370000      1.4281380000     -0.0038680000
H                  0.4340560000     -2.8328850000      1.4377290000
H                  1.4423270000     -3.1367620000      0.0116640000
H                 -0.3464510000     -3.1644900000     -0.0920940000
H                  4.3989480000     -1.7843500000     -1.5814370000
H                  3.7368310000     -0.1709610000     -1.9982530000
H                  2.8641760000     -1.6610000000     -2.4828620000
$end
$rem
MAX_SCF_CYCLES=200
BASIS  =  6-311++G(d,p)
GUI  =  2
JOB_TYPE  =  SP
METHOD  =  B3LYP
SOLVENT_METHOD = COSMO
$end
$solvent
dielectric 37.219
opticaldielectric 1.43
$end

--------------------------------------------------------------

             Standard Nuclear Orientation (Angstroms)
    I     Atom           X                Y                Z
 ----------------------------------------------------------------
    1      C       0.8236155753    -1.2206687569    -0.1252720118
    2      C      -0.3508206963    -2.0377400357     0.0593362388
    3      C      -1.6121518339    -1.5123654004     0.1483404472
    4      C      -1.8604167154    -0.0909771637     0.0743611263
    5      C      -0.6879366340     0.7664118371    -0.0840613873
    6      C       0.5735543081     0.2200078524    -0.1686472573
    7      O       1.9829253226    -1.7163134269    -0.2535579350
    8      O      -3.0267063115     0.3938381054     0.1518017786
    9      C      -0.9293915229     2.2499036339    -0.1640557417
   10      O       1.6439469806     1.0744209202    -0.3939819539
   11      C       2.7037667893     1.0112895959     0.5578382134
   12      H      -0.1807201489    -3.1100330310     0.1039161992
   13      H      -2.4824734814    -2.1503578489     0.2744608822
   14      H      -1.3992864447     2.5176047507    -1.1186681451
   15      H       0.0026818173     2.8079899143    -0.0733096066
   16      H      -1.6331534735     2.5580011822     0.6143020813
   17      H       3.4491410400     1.7417163003     0.2325925965
   18      H       3.1400726109     0.0117284834     0.5886507719
   19      H       2.3410945248     1.2926160848     1.5569223371
 ----------------------------------------------------------------

   10    -535.5233436197      6.68e-06  Convergence criterion met
 Total energy in the final basis set =     -535.5233436197
    4    -535.6115218461      7.40e-06  Convergence criterion met
 Total energy in the final basis set =     -535.6115218461

                    Orbital Energies (a.u.)
 --------------------------------------------------------------

 Alpha MOs
 -- Occupied --
-19.1359 -19.0817 -19.0806 -10.2235 -10.2212 -10.2174 -10.2020 -10.1698
-10.1633 -10.1621 -10.1527  -1.0500  -1.0014  -0.9984  -0.8245  -0.7643
 -0.7127  -0.6679  -0.6642  -0.5801  -0.5629  -0.4987  -0.4886  -0.4587
 -0.4565  -0.4325  -0.4192  -0.4164  -0.4022  -0.3976  -0.3886  -0.3709
 -0.3646  -0.3624  -0.3422  -0.2947  -0.2819  -0.2470  -0.2420  -0.2335
 -0.1647

 Beta MOs
 -- Occupied --
-19.1357 -19.0748 -19.0739 -10.2218 -10.2197 -10.2166 -10.2019 -10.1690
-10.1622 -10.1606 -10.1528  -1.0489  -0.9898  -0.9866  -0.8188  -0.7617
 -0.7096  -0.6641  -0.6574  -0.5765  -0.5593  -0.4971  -0.4853  -0.4554
 -0.4532  -0.4304  -0.4145  -0.4094  -0.3997  -0.3940  -0.3733  -0.3619
 -0.3608  -0.3461  -0.3391  -0.2913  -0.2521  -0.2406  -0.2357  -0.2266

          Ground-State Mulliken Net Atomic Charges

     Atom                 Charge (a.u.)    Spin (a.u.)
  --------------------------------------------------------
      1 C                     0.002084       0.109987
      2 C                    -0.092770       0.092445
      3 C                     0.192557       0.112734
      4 C                    -1.077485       0.100494
      5 C                     1.998236       0.057661
      6 C                    -1.570208       0.049423
      7 O                    -0.534504       0.242849
      8 O                    -0.524567       0.233390
      9 C                    -0.246804       0.007158
     10 O                    -0.228607       0.001208
     11 C                    -0.318883       0.003287
     12 H                     0.206096      -0.007107
     13 H                     0.199801      -0.009562
     14 H                     0.180709       0.003969
     15 H                     0.172007      -0.000099
     16 H                     0.161060       0.002585
     17 H                     0.161095       0.000340
     18 H                     0.176135      -0.000941
     19 H                     0.144048       0.000182
  --------------------------------------------------------
  Sum of atomic charges =    -1.000000

                    Cartesian Multipole Moments
 -----------------------------------------------------------------
    Charge (ESU x 10^10)
                -4.8032
    Dipole Moment (Debye)
         X       2.9417      Y       2.7331      Z       1.6648
       Tot       4.3468
    Quadrupole Moments (Debye-Ang)
        XX    -101.0196     XY      13.6901     YY     -74.3189
        XZ       5.9068     YZ      -0.1808     ZZ     -69.2491

 Total job time:  26.50s(wall), 183.16s(cpu)
        *  Thank you very much for using Q-Chem.  Have a nice day.  *
