 Gaussian 16, Revision A.03,
 Gaussian 16:  ES64L-G16RevA.03 25-Dec-2016

 --------------------------------------
 #P UB3LYP/6-311++G(d,p) nosym opt freq
 --------------------------------------

 -------
 Radical
 -------
 Symbolic Z-matrix:
 Charge = -1 Multiplicity = 2

 SCF Done:  E(UB3LYP) =  -535.496981436     A.U. after   19 cycles
 SCF Done:  E(UB3LYP) =  -535.507177217     A.U. after   17 cycles
 SCF Done:  E(UB3LYP) =  -535.507743191     A.U. after   17 cycles
 SCF Done:  E(UB3LYP) =  -535.508278482     A.U. after   16 cycles
 SCF Done:  E(UB3LYP) =  -535.508444630     A.U. after   14 cycles
 SCF Done:  E(UB3LYP) =  -535.508450132     A.U. after   13 cycles
 SCF Done:  E(UB3LYP) =  -535.508483348     A.U. after   13 cycles
 SCF Done:  E(UB3LYP) =  -535.504036459     A.U. after   20 cycles
 SCF Done:  E(UB3LYP) =  -535.508485220     A.U. after   15 cycles
 SCF Done:  E(UB3LYP) =  -535.507755434     A.U. after   18 cycles
 SCF Done:  E(UB3LYP) =  -535.523363693     A.U. after   14 cycles
 SCF Done:  E(UB3LYP) =  -535.523368875     A.U. after   13 cycles
 SCF Done:  E(UB3LYP) =  -535.523373143     A.U. after   13 cycles
 SCF Done:  E(UB3LYP) =  -535.523378993     A.U. after   13 cycles
 SCF Done:  E(UB3LYP) =  -535.523390531     A.U. after   14 cycles
 SCF Done:  E(UB3LYP) =  -535.523394955     A.U. after   13 cycles
 SCF Done:  E(UB3LYP) =  -535.523398727     A.U. after   14 cycles
 SCF Done:  E(UB3LYP) =  -535.523399114     A.U. after   13 cycles
 SCF Done:  E(UB3LYP) =  -535.523399144     A.U. after   11 cycles
 Optimization completed.
    -- Stationary point found.
 Normal termination of Gaussian 16 at Tue Jan 23 02:25:55 2024.

 ----------------------------------------------------------------------
 #P Geom=AllCheck Guess=TCheck SCRF=Check GenChk UB3LYP/6-311++G(d,p) F
 req
 ----------------------------------------------------------------------

 Structure from the checkpoint file:  "083-rad.chk"
 -------
 Radical
 -------
 Charge = -1 Multiplicity = 2

                          Input orientation:
 ---------------------------------------------------------------------
 Center     Atomic      Atomic             Coordinates (Angstroms)
 Number     Number       Type             X           Y           Z
 ---------------------------------------------------------------------
      1          6           0        1.626757    0.913968   -0.669728
      2          6           0        0.349151    1.568409   -0.526843
      3          6           0       -0.778737    0.909574   -0.116110
      4          6           0       -0.774932   -0.501099    0.196044
      5          6           0        0.498251   -1.199409    0.033898
      6          6           0        1.621715   -0.520576   -0.383338
      7          8           0        2.676764    1.539246   -1.005336
      8          8           0       -1.816385   -1.108584    0.580247
      9          6           0        0.519608   -2.669484    0.356188
     10          8           0        2.821158   -1.216037   -0.448210
     11          6           0        3.488382   -1.192992   -1.708149
     12          1           0        0.333926    2.632600   -0.745931
     13          1           0       -1.726837    1.428138   -0.003868
     14          1           0        0.434056   -2.832885    1.437729
     15          1           0        1.442327   -3.136762    0.011664
     16          1           0       -0.346451   -3.164490   -0.092094
     17          1           0        4.398948   -1.784350   -1.581437
     18          1           0        3.736831   -0.170961   -1.998253
     19          1           0        2.864176   -1.661000   -2.482862
 ---------------------------------------------------------------------

 SCF Done:  E(UB3LYP) =  -535.523399144     A.U. after    2 cycles

 Alpha  occ. eigenvalues --  -19.00506 -18.93217 -18.92978 -10.08841 -10.07847
 Alpha  occ. eigenvalues --  -10.07788 -10.07520 -10.03134 -10.02849 -10.02421
 Alpha  occ. eigenvalues --  -10.02300  -0.91801  -0.85080  -0.84890  -0.68458
 Alpha  occ. eigenvalues --   -0.62925  -0.58528  -0.53780  -0.52607  -0.44450
 Alpha  occ. eigenvalues --   -0.42679  -0.36465  -0.35160  -0.33227  -0.31786
 Alpha  occ. eigenvalues --   -0.30525  -0.28550  -0.27899  -0.26486  -0.25517
 Alpha  occ. eigenvalues --   -0.25008  -0.23278  -0.22568  -0.22341  -0.21116
 Alpha  occ. eigenvalues --   -0.16130  -0.13560  -0.10193  -0.09310  -0.09184
 Alpha  occ. eigenvalues --   -0.01745
 Alpha virt. eigenvalues --    0.09065   0.10638   0.10832   0.12196   0.12916
 Alpha virt. eigenvalues --    0.13171   0.13869   0.14755   0.15359   0.15698
 Alpha virt. eigenvalues --    0.16679   0.18271   0.18825   0.19834   0.19853

  Beta  occ. eigenvalues --  -19.00493 -18.92490 -18.92267 -10.08838 -10.07756
  Beta  occ. eigenvalues --  -10.07647 -10.07414 -10.03045 -10.02857 -10.02311
  Beta  occ. eigenvalues --  -10.02146  -0.91717  -0.83856  -0.83624  -0.67910
  Beta  occ. eigenvalues --   -0.62651  -0.58340  -0.53564  -0.51699  -0.44109
  Beta  occ. eigenvalues --   -0.42351  -0.36324  -0.34880  -0.33050  -0.31428
  Beta  occ. eigenvalues --   -0.30406  -0.28137  -0.27627  -0.26288  -0.24876
  Beta  occ. eigenvalues --   -0.23806  -0.22780  -0.22085  -0.20953  -0.19529
  Beta  occ. eigenvalues --   -0.15793  -0.10447  -0.09276  -0.08643  -0.08488
  Beta virt. eigenvalues --    0.05532   0.09083   0.10648   0.10842   0.12206
  Beta virt. eigenvalues --    0.12977   0.13403   0.14468   0.15154   0.15499
  Beta virt. eigenvalues --    0.15745   0.17827   0.18466   0.19388   0.19881

 Mulliken charges and spin densities:
               1          2
     1  C   -0.185697   0.073931
     2  C    0.060283   0.097185
     3  C    0.352488   0.122154
     4  C   -1.351446   0.060554
     5  C    2.193637   0.067290
     6  C   -1.644406   0.062085
     7  O   -0.422783   0.262696
     8  O   -0.401127   0.257484
     9  C   -0.241782   0.006028
    10  O   -0.175818  -0.000487
    11  C   -0.291933   0.002303
    12  H    0.145242  -0.007666
    13  H    0.139584  -0.010567
    14  H    0.141824   0.004376
    15  H    0.146796  -0.000058
    16  H    0.148861   0.003046
    17  H    0.107147   0.000976
    18  H    0.185839  -0.001861
    19  H    0.093291   0.000532
 Sum of Mulliken charges =  -1.00000   1.00000

 Dipole moment (field-independent basis, Debye):
    X=             -2.6124    Y=             -0.1276    Z=              0.1367  Tot=              2.6191
 Quadrupole moment (field-independent basis, Debye-Ang):
   XX=            -96.5294   YY=            -79.7520   ZZ=            -70.9302
   XY=            -12.9176   XZ=              6.0011   YZ=              5.9705

  Exact polarizability: 157.614  11.910 136.025 -28.326 -14.396  85.928
 Approx polarizability: 257.029  43.793 198.332 -46.440 -28.702 129.262

                      1                      2                      3
                      A                      A                      A
 Frequencies --     43.3555                89.3578               106.0207
 Red. masses --      1.0777                 2.3235                 3.4300
 Frc consts  --      0.0012                 0.0109                 0.0227
 IR Inten    --      0.3547                 2.8273                 1.7115

                      4                      5                      6
                      A                      A                      A
 Frequencies --    128.6915               158.7203               226.5726
 Red. masses --      3.3276                 1.4684                 3.3687
 Frc consts  --      0.0325                 0.0218                 0.1019
 IR Inten    --     10.0270                 2.7204                 3.1796

                      7                      8                      9
                      A                      A                      A
 Frequencies --    301.9910               308.7905               337.4671
 Red. masses --      3.9650                 4.0306                 5.7908
 Frc consts  --      0.2130                 0.2264                 0.3886
 IR Inten    --      0.6205                 5.9736                 0.7593

                     10                     11                     12
                      A                      A                      A
 Frequencies --    370.4641               385.0959               461.2455
 Red. masses --      5.3299                 8.1569                 5.8695
 Frc consts  --      0.4310                 0.7127                 0.7357
 IR Inten    --      6.6050                 6.2792                 3.5547

                     13                     14                     15
                      A                      A                      A
 Frequencies --    476.3652               542.7696               616.9602
 Red. masses --     10.6995                 3.7313                 4.0002
 Frc consts  --      1.4305                 0.6476                 0.8971
 IR Inten    --      0.7108                 0.0536                 0.9479

                     16                     17                     18
                      A                      A                      A
 Frequencies --    630.5325               663.6621               760.2091
 Red. masses --      3.3620                 3.9511                 6.5312
 Frc consts  --      0.7875                 1.0253                 2.2239
 IR Inten    --      3.2739                11.4538                12.4544

                     19                     20                     21
                      A                      A                      A
 Frequencies --    769.6172               818.7759               871.8077
 Red. masses --      6.4970                 2.1621                 2.5071
 Frc consts  --      2.2673                 0.8540                 1.1227
 IR Inten    --     17.3131                39.9557                 5.7138

                     22                     23                     24
                      A                      A                      A
 Frequencies --    927.3899              1016.7120              1039.0804
 Red. masses --      1.2536                 4.2258                 2.8427
 Frc consts  --      0.6353                 2.5737                 1.8083
 IR Inten    --      0.1221                18.4882                35.2507

                     25                     26                     27
                      A                      A                      A
 Frequencies --   1049.4802              1091.8618              1159.2207
 Red. masses --      1.4829                 2.1790                 1.8190
 Frc consts  --      0.9623                 1.5305                 1.4402
 IR Inten    --      2.5332                50.1214                10.8704

                     28                     29                     30
                      A                      A                      A
 Frequencies --   1162.2935              1168.4617              1217.2716
 Red. masses --      1.6825                 1.8639                 1.8882
 Frc consts  --      1.3392                 1.4993                 1.6484
 IR Inten    --    134.7952                50.5625                 5.4716

                     31                     32                     33
                      A                      A                      A
 Frequencies --   1234.2219              1341.1341              1391.1516
 Red. masses --      3.0978                 2.0645                 1.3160
 Frc consts  --      2.7803                 2.1878                 1.5006
 IR Inten    --     86.2041                 8.4030                 5.2110

                     34                     35                     36
                      A                      A                      A
 Frequencies --   1424.2834              1445.7853              1466.2053
 Red. masses --      3.3209                 1.4478                 1.1190
 Frc consts  --      3.9692                 1.7830                 1.4173
 IR Inten    --     70.1016                98.4431                24.5460

                     37                     38                     39
                      A                      A                      A
 Frequencies --   1475.8152              1481.7028              1487.7581
 Red. masses --      1.1160                 1.9738                 1.7746
 Frc consts  --      1.4322                 2.5531                 2.3142
 IR Inten    --      0.4859                 8.7742                 2.5128

                     40                     41                     42
                      A                      A                      A
 Frequencies --   1519.4659              1526.4068              1537.3937
 Red. masses --      1.0525                 5.4567                 4.3956
 Frc consts  --      1.4317                 7.4906                 6.1212
 IR Inten    --     17.1314               334.5970                89.5539

                     43                     44                     45
                      A                      A                      A
 Frequencies --   1638.5343              2971.0061              3005.1135
 Red. masses --      7.1468                 1.0471                 1.0488
 Frc consts  --     11.3050                 5.4456                 5.5806
 IR Inten    --     11.1110               129.1766                70.5564

                     46                     47                     48
                      A                      A                      A
 Frequencies --   3054.4164              3058.6301              3104.1365
 Red. masses --      1.0855                 1.0844                 1.1043
 Frc consts  --      5.9669                 5.9774                 6.2695
 IR Inten    --     36.9960                92.8475                10.8504

                     49                     50                     51
                      A                      A                      A
 Frequencies --   3114.2392              3133.4384              3155.8758
 Red. masses --      1.0994                 1.0849                 1.0946
 Frc consts  --      6.2825                 6.2760                 6.4231
 IR Inten    --     17.2435                20.9807                42.1489

 - Thermochemistry -
 -------------------
 Temperature   298.150 Kelvin.  Pressure   1.00000 Atm.
 Atom     1 has atomic number  6 and mass  12.00000

 Molecular mass:   152.04734 amu.
 Principal axes and moments of inertia in atomic units:
                           1         2         3
     Eigenvalues --  1060.449141766.733702731.53024
           X            0.93102  -0.18346   0.31551
           Y            0.14047   0.97801   0.15417
           Z           -0.33686  -0.09921   0.93631
 This molecule is an asymmetric top.
 Rotational symmetry number  1.
 Warning -- assumption of classical behavior for rotation
           may cause significant error
 Rotational temperatures (Kelvin)      0.08168     0.04902     0.03171
 Rotational constants (GHZ):           1.70186     1.02151     0.66071
 Zero-point vibrational energy     373635.4 (Joules/Mol)
                                   89.30100 (Kcal/Mol)
 Warning -- explicit consideration of  15 degrees of freedom as
           vibrations may cause significant error
 Vibrational temperatures:     62.38   128.57   152.54   185.16   228.36
          (Kelvin)            325.99   434.50   444.28   485.54   533.02
                              554.07   663.63   685.38   780.92   887.67
                              907.20   954.86  1093.77  1107.31  1178.04
                             1254.34  1334.31  1462.82  1495.00  1509.97
                             1570.95  1667.86  1672.28  1681.16  1751.38
                             1775.77  1929.59  2001.56  2049.23  2080.16
                             2109.54  2123.37  2131.84  2140.55  2186.17
                             2196.16  2211.97  2357.49  4274.62  4323.69
                             4394.62  4400.69  4466.16  4480.70  4508.32
                             4540.60

 Zero-point correction=                           0.142310 (Hartree/Particle)
 Thermal correction to Energy=                    0.152918
 Thermal correction to Enthalpy=                  0.153862
 Thermal correction to Gibbs Free Energy=         0.104989
 Sum of electronic and zero-point Energies=           -535.381089
 Sum of electronic and thermal Energies=              -535.370481
 Sum of electronic and thermal Enthalpies=            -535.369537
 Sum of electronic and thermal Free Energies=         -535.418410

                     E (Thermal)             CV                S
                      KCal/Mol        Cal/Mol-Kelvin    Cal/Mol-Kelvin
 Total                   95.957             38.503            102.861
 Electronic               0.000              0.000              1.377
 Translational            0.889              2.981             40.967
 Rotational               0.889              2.981             30.016
 Vibrational             94.180             32.541             30.501
 Vibration     1          0.595              1.980              5.100
 Vibration     2          0.602              1.957              3.674
 Vibration     3          0.605              1.944              3.340
 Vibration     4          0.611              1.925              2.966
 Vibration     5          0.621              1.893              2.565
 Vibration     6          0.650              1.801              1.906
 Vibration     7          0.694              1.670              1.406
 Vibration     8          0.698              1.657              1.369
 Vibration     9          0.718              1.601              1.224
 Vibration    10          0.742              1.533              1.078
 Vibration    11          0.754              1.502              1.019
 Vibration    12          0.819              1.336              0.762
 Vibration    13          0.833              1.302              0.720
 Vibration    14          0.898              1.156              0.559
 Vibration    15          0.977              0.996              0.421

                           ! Non-Optimized Parameters !
 Normal termination of Gaussian 16 at Tue Jan 23 02:34:23 2024.
