 Gaussian 16, Revision A.03,
 Gaussian 16:  ES64L-G16RevA.03 25-Dec-2016

 ----------------------------------------------------------------------
 #P UB3LYP/6-311++G(d,p) nosym opt freq SCRF=(PCM,Solvent=n,n-DiMethylF
 ormamide)
 ----------------------------------------------------------------------

 --------
 Oxidized
 --------
 Symbolic Z-matrix:
 Charge =  0 Multiplicity = 1

 SCF Done:  E(UB3LYP) =  -575.589108037     A.U. after   14 cycles
 SCF Done:  E(UB3LYP) =  -575.589187476     A.U. after   11 cycles
 SCF Done:  E(UB3LYP) =  -575.589197736     A.U. after   10 cycles
 Optimization completed.
    -- Stationary point found.
 Normal termination of Gaussian 16 at Sun Feb 11 15:10:47 2024.

 ----------------------------------------------------------------------
 #P Geom=AllCheck Guess=TCheck SCRF=Check GenChk UB3LYP/6-311++G(d,p) F
 req
 ----------------------------------------------------------------------

 Structure from the checkpoint file:  "343.chk"
 --------
 Oxidized
 --------
 Charge =  0 Multiplicity = 1

                          Input orientation:
 ---------------------------------------------------------------------
 Center     Atomic      Atomic             Coordinates (Angstroms)
 Number     Number       Type             X           Y           Z
 ---------------------------------------------------------------------
      1          8           0        0.095979    2.914789    0.881070
      2          6           0        0.057553    1.748347    0.529153
      3          6           0        1.215895    0.826363    0.315367
      4          6           0        2.573588    1.066838    0.461746
      5          6           0        3.464515    0.020350    0.195708
      6          6           0        2.984697   -1.228018   -0.205691
      7          6           0        1.610844   -1.468273   -0.352823
      8          6           0        0.727268   -0.430902   -0.089293
      9          6           0       -0.753447   -0.363715   -0.150380
     10          6           0       -1.702540   -1.317937   -0.489410
     11          6           0       -3.056521   -0.954023   -0.454273
     12          6           0       -3.452828    0.334057   -0.088869
     13          6           0       -2.495772    1.296824    0.253010
     14          6           0       -1.157986    0.934113    0.217519
     15          1           0        2.933327    2.040683    0.774212
     16          1           0        4.531355    0.177476    0.301004
     17          1           0        3.687432   -2.028289   -0.408059
     18          1           0        1.259821   -2.444804   -0.665453
     19          1           0       -1.416762   -2.323242   -0.776181
     20          1           0       -3.809769   -1.688354   -0.716212
     21          1           0       -4.506139    0.587341   -0.070541
     22          1           0       -2.790511    2.300373    0.538399
 ---------------------------------------------------------------------

 SCF Done:  E(UB3LYP) =  -575.589197736     A.U. after    1 cycles

 Alpha  occ. eigenvalues --  -19.13443 -10.27899 -10.20541 -10.20512 -10.19816
 Alpha  occ. eigenvalues --  -10.19815 -10.19615 -10.19614 -10.19391 -10.19390
 Alpha  occ. eigenvalues --  -10.19354 -10.19353 -10.19113 -10.19113  -1.06225
 Alpha  occ. eigenvalues --   -0.90779  -0.86857  -0.81608  -0.78093  -0.76556
 Alpha  occ. eigenvalues --   -0.73862  -0.68176  -0.64747  -0.60985  -0.59689
 Alpha  occ. eigenvalues --   -0.57625  -0.52581  -0.52032  -0.49518  -0.46773
 Alpha  occ. eigenvalues --   -0.46725  -0.45349  -0.44757  -0.44609  -0.44317
 Alpha  occ. eigenvalues --   -0.43480  -0.38737  -0.38703  -0.38156  -0.37889
 Alpha  occ. eigenvalues --   -0.36596  -0.35679  -0.30754  -0.28137  -0.27565
 Alpha  occ. eigenvalues --   -0.27396  -0.24269
 Alpha virt. eigenvalues --   -0.10363  -0.05605  -0.02040  -0.00710   0.00245
 Alpha virt. eigenvalues --    0.00742   0.00926   0.02033   0.02296   0.03197
 Alpha virt. eigenvalues --    0.04093   0.04355   0.04489   0.04509   0.06242

  Beta  occ. eigenvalues --  -19.13443 -10.27899 -10.20541 -10.20512 -10.19816
  Beta  occ. eigenvalues --  -10.19815 -10.19615 -10.19614 -10.19391 -10.19390
  Beta  occ. eigenvalues --  -10.19354 -10.19353 -10.19113 -10.19113  -1.06225
  Beta  occ. eigenvalues --   -0.90779  -0.86857  -0.81608  -0.78093  -0.76556
  Beta  occ. eigenvalues --   -0.73862  -0.68176  -0.64747  -0.60985  -0.59689
  Beta  occ. eigenvalues --   -0.57625  -0.52581  -0.52032  -0.49518  -0.46773
  Beta  occ. eigenvalues --   -0.46725  -0.45349  -0.44757  -0.44609  -0.44317
  Beta  occ. eigenvalues --   -0.43480  -0.38737  -0.38703  -0.38156  -0.37889
  Beta  occ. eigenvalues --   -0.36596  -0.35679  -0.30754  -0.28137  -0.27565
  Beta  occ. eigenvalues --   -0.27396  -0.24269
  Beta virt. eigenvalues --   -0.10363  -0.05605  -0.02040  -0.00710   0.00245
  Beta virt. eigenvalues --    0.00742   0.00926   0.02033   0.02296   0.03197
  Beta virt. eigenvalues --    0.04093   0.04355   0.04489   0.04509   0.06242

 Mulliken charges and spin densities:
               1          2
     1  O   -0.323450   0.000000
     2  C   -0.188025   0.000000
     3  C    0.768743   0.000000
     4  C   -0.117863   0.000000
     5  C   -0.344706   0.000000
     6  C   -0.281758  -0.000000
     7  C   -0.464852  -0.000000
     8  C   -0.042952  -0.000000
     9  C   -0.043479   0.000000
    10  C   -0.464659   0.000000
    11  C   -0.281697  -0.000000
    12  C   -0.344770  -0.000000
    13  C   -0.117716  -0.000000
    14  C    0.769237  -0.000000
    15  H    0.180222   0.000000
    16  H    0.196887   0.000000
    17  H    0.210166  -0.000000
    18  H    0.151664   0.000000
    19  H    0.151704   0.000000
    20  H    0.210203   0.000000
    21  H    0.196908  -0.000000
    22  H    0.180192   0.000000
 Sum of Mulliken charges =  -0.00000   0.00000

 Dipole moment (field-independent basis, Debye):
    X=             -0.1617    Y=             -4.9262    Z=             -1.4893  Tot=              5.1489
 Quadrupole moment (field-independent basis, Debye-Ang):
   XX=            -60.7088   YY=            -85.6994   ZZ=            -85.2304
   XY=             -1.1302   XZ=              1.0015   YZ=             -0.2002

  Exact polarizability: 319.229  -5.578 232.047  10.182  38.603 114.764
 Approx polarizability: 353.042  -4.832 294.589  11.308  52.196 136.336

                      1                      2                      3
                      A                      A                      A
 Frequencies --     93.6382               130.6385               145.6459
 Red. masses --      4.6643                 3.8347                 7.0411
 Frc consts  --      0.0241                 0.0386                 0.0880
 IR Inten    --      4.9273                 0.0019                 0.6620

                      4                      5                      6
                      A                      A                      A
 Frequencies --    208.7319               267.3795               286.9392
 Red. masses --      4.6618                 4.8060                 9.4760
 Frc consts  --      0.1197                 0.2024                 0.4597
 IR Inten    --      0.4299                 0.0001                10.6443

                      7                      8                      9
                      A                      A                      A
 Frequencies --    405.3963               412.8089               432.5851
 Red. masses --      3.1804                 6.6107                 3.1613
 Frc consts  --      0.3080                 0.6637                 0.3485
 IR Inten    --      1.8510                 0.3890                 0.0001

                     10                     11                     12
                      A                      A                      A
 Frequencies --    452.1916               511.4433               562.9771
 Red. masses --      4.2530                 5.7191                 3.2893
 Frc consts  --      0.5124                 0.8814                 0.6142
 IR Inten    --      7.7576                 7.2247                 0.0005

                     13                     14                     15
                      A                      A                      A
 Frequencies --    566.2556               630.5393               663.9092
 Red. masses --      8.6792                 7.1036                 6.9410
 Frc consts  --      1.6397                 1.6640                 1.8026
 IR Inten    --      0.7155                 2.4892                11.6985

                     16                     17                     18
                      A                      A                      A
 Frequencies --    686.9777               734.3025               747.7284
 Red. masses --      4.4214                 5.7927                 1.4820
 Frc consts  --      1.2294                 1.8403                 0.4882
 IR Inten    --     21.9302                 0.1320               205.3603

                     19                     20                     21
                      A                      A                      A
 Frequencies --    752.4050               786.1608               787.1750
 Red. masses --      2.0056                 6.3158                 1.9580
 Frc consts  --      0.6689                 2.2999                 0.7148
 IR Inten    --      0.0293                 0.5415                 0.0030

                     22                     23                     24
                      A                      A                      A
 Frequencies --    823.8520               897.2608               900.3863
 Red. masses --      3.0481                 1.3690                 1.3855
 Frc consts  --      1.2189                 0.6494                 0.6618
 IR Inten    --     15.7453                 0.3080                 0.0093

                     25                     26                     27
                      A                      A                      A
 Frequencies --    925.4628               975.9735               977.2958
 Red. masses --      7.2428                 1.3998                 1.4224
 Frc consts  --      3.6549                 0.7856                 0.8004
 IR Inten    --    124.0344                 0.0015                 4.3979

                     28                     29                     30
                      A                      A                      A
 Frequencies --   1008.1871              1009.6053              1017.8374
 Red. masses --      1.3228                 1.3142                 5.6195
 Frc consts  --      0.7922                 0.7893                 3.4301
 IR Inten    --      0.0023                 0.0808                 3.0304

                     31                     32                     33
                      A                      A                      A
 Frequencies --   1037.9263              1052.1301              1098.9672
 Red. masses --      2.3035                 1.9467                 2.5064
 Frc consts  --      1.4621                 1.2697                 1.7835
 IR Inten    --      1.0556                 0.5725                 0.0110

                     34                     35                     36
                      A                      A                      A
 Frequencies --   1111.1910              1172.5462              1175.2254
 Red. masses --      1.8091                 2.3205                 1.1923
 Frc consts  --      1.3161                 1.8797                 0.9702
 IR Inten    --     61.8009                33.0880                 4.5507

                     37                     38                     39
                      A                      A                      A
 Frequencies --   1181.8046              1204.0703              1220.5966
 Red. masses --      1.1826                 2.6283                 2.5617
 Frc consts  --      0.9732                 2.2451                 2.2486
 IR Inten    --      0.0071               113.6730                 2.6380

                     40                     41                     42
                      A                      A                      A
 Frequencies --   1313.4124              1318.5453              1322.3043
 Red. masses --      1.7109                 1.8853                 3.5386
 Frc consts  --      1.7389                 1.9312                 3.6454
 IR Inten    --     15.4840                38.9645                60.2528

                     43                     44                     45
                      A                      A                      A
 Frequencies --   1400.3491              1470.6431              1480.0480
 Red. masses --      3.9504                 2.5037                 2.2257
 Frc consts  --      4.5642                 3.1904                 2.8726
 IR Inten    --      3.1077                 0.0953                74.2369

                     46                     47                     48
                      A                      A                      A
 Frequencies --   1498.2813              1502.8970              1621.7232
 Red. masses --      2.4857                 2.9402                 5.6287
 Frc consts  --      3.2876                 3.9127                 8.7219
 IR Inten    --      5.9790                 0.0009                91.9100

                     49                     50                     51
                      A                      A                      A
 Frequencies --   1627.6181              1628.1623              1642.2798
 Red. masses --      6.5129                 6.7252                 7.0070
 Frc consts  --     10.1655                10.5040                11.1346
 IR Inten    --     92.9960                21.6213               183.6392

                     52                     53                     54
                      A                      A                      A
 Frequencies --   1739.1945              3172.0040              3172.4925
 Red. masses --     12.6465                 1.0867                 1.0867
 Frc consts  --     22.5381                 6.4423                 6.4440
 IR Inten    --    723.3802                 4.4246                 0.0048

                     55                     56                     57
                      A                      A                      A
 Frequencies --   3179.4291              3180.2607              3186.7206
 Red. masses --      1.0892                 1.0895                 1.0936
 Frc consts  --      6.4874                 6.4926                 6.5434
 IR Inten    --      1.7035                 2.1047                 3.2704

                     58                     59                     60
                      A                      A                      A
 Frequencies --   3187.8031              3195.8151              3196.5101
 Red. masses --      1.0935                 1.0973                 1.0973
 Frc consts  --      6.5474                 6.6031                 6.6057
 IR Inten    --     41.1669                58.2422                 3.8787

 - Thermochemistry -
 -------------------
 Temperature   298.150 Kelvin.  Pressure   1.00000 Atm.
 Atom     1 has atomic number  8 and mass  15.99491

 Molecular mass:   180.05751 amu.
 Principal axes and moments of inertia in atomic units:
                           1         2         3
     Eigenvalues --  1245.984653092.333904338.31848
           X            0.99813   0.03149  -0.05240
           Y           -0.04527   0.95673  -0.28744
           Z            0.04108   0.28928   0.95636
 This molecule is an asymmetric top.
 Rotational symmetry number  1.
 Warning -- assumption of classical behavior for rotation
           may cause significant error
 Rotational temperatures (Kelvin)      0.06951     0.02801     0.01996
 Rotational constants (GHZ):           1.44845     0.58362     0.41600
 Zero-point vibrational energy     443172.4 (Joules/Mol)
                                  105.92075 (Kcal/Mol)
 Warning -- explicit consideration of  13 degrees of freedom as
           vibrations may cause significant error
 Vibrational temperatures:    134.72   187.96   209.55   300.32   384.70
          (Kelvin)            412.84   583.27   593.94   622.39   650.60
                              735.85   810.00   814.72   907.21   955.22
                              988.41  1056.50  1075.81  1082.54  1131.11
                             1132.57  1185.34  1290.96  1295.46  1331.53
                             1404.21  1406.11  1450.56  1452.60  1464.44
                             1493.34  1513.78  1581.17  1598.76  1687.03
                             1690.89  1700.35  1732.39  1756.17  1889.71
                             1897.09  1902.50  2014.79  2115.93  2129.46
                             2155.69  2162.33  2333.30  2341.78  2342.56
                             2362.87  2502.31  4563.81  4564.51  4574.49
                             4575.69  4584.98  4586.54  4598.07  4599.07

 Zero-point correction=                           0.168795 (Hartree/Particle)
 Thermal correction to Energy=                    0.178397
 Thermal correction to Enthalpy=                  0.179341
 Thermal correction to Gibbs Free Energy=         0.133611
 Sum of electronic and zero-point Energies=           -575.420402
 Sum of electronic and thermal Energies=              -575.410800
 Sum of electronic and thermal Enthalpies=            -575.409856
 Sum of electronic and thermal Free Energies=         -575.455587

                     E (Thermal)             CV                S
                      KCal/Mol        Cal/Mol-Kelvin    Cal/Mol-Kelvin
 Total                  111.946             39.715             96.248
 Electronic               0.000              0.000              0.000
 Translational            0.889              2.981             41.471
 Rotational               0.889              2.981             31.192
 Vibrational            110.169             33.753             23.586
 Vibration     1          0.603              1.954              3.583
 Vibration     2          0.612              1.923              2.937
 Vibration     3          0.617              1.907              2.728
 Vibration     4          0.642              1.827              2.055
 Vibration     5          0.672              1.733              1.613
 Vibration     6          0.684              1.698              1.492
 Vibration     7          0.770              1.458              0.943
 Vibration     8          0.777              1.442              0.917
 Vibration     9          0.793              1.399              0.850
 Vibration    10          0.811              1.356              0.789
 Vibration    11          0.867              1.225              0.630
 Vibration    12          0.919              1.111              0.518
 Vibration    13          0.922              1.104              0.511

 Optimization completed.
    -- Stationary point found.
 Normal termination of Gaussian 16 at Sun Feb 11 15:33:38 2024.
