 Gaussian 16, Revision A.03,
 Gaussian 16:  ES64L-G16RevA.03 25-Dec-2016

 ----------------------------------------------------------------------
 #P UB3LYP/6-311++G(d,p) nosym opt freq SCRF=(PCM,Solvent=n,n-DiMethylF
 ormamide)
 ----------------------------------------------------------------------

 -------
 Radical
 -------
 Symbolic Z-matrix:
 Charge = -1 Multiplicity = 2

 SCF Done:  E(UB3LYP) =  -650.155863899     A.U. after   19 cycles
 SCF Done:  E(UB3LYP) =  -650.156350866     A.U. after   15 cycles
 SCF Done:  E(UB3LYP) =  -650.156667486     A.U. after   15 cycles
 SCF Done:  E(UB3LYP) =  -650.156760228     A.U. after   14 cycles
 SCF Done:  E(UB3LYP) =  -650.156788809     A.U. after   13 cycles
 SCF Done:  E(UB3LYP) =  -650.156794136     A.U. after   13 cycles
 SCF Done:  E(UB3LYP) =  -650.156798667     A.U. after   11 cycles
 SCF Done:  E(UB3LYP) =  -650.156799302     A.U. after   11 cycles
 SCF Done:  E(UB3LYP) =  -650.156799353     A.U. after    8 cycles
 Optimization completed.
    -- Stationary point found.
 Normal termination of Gaussian 16 at Sat Feb 10 11:19:34 2024.

 ----------------------------------------------------------------------
 #P Geom=AllCheck Guess=TCheck SCRF=Check GenChk UB3LYP/6-311++G(d,p) F
 req
 ----------------------------------------------------------------------

 Structure from the checkpoint file:  "087-rad.chk"
 -------
 Radical
 -------
 Charge = -1 Multiplicity = 2

                          Input orientation:
 ---------------------------------------------------------------------
 Center     Atomic      Atomic             Coordinates (Angstroms)
 Number     Number       Type             X           Y           Z
 ---------------------------------------------------------------------
      1          6           0       -3.004464   -1.452487   -0.204114
      2          8           0       -2.237002   -0.564662    0.621936
      3          6           0       -0.892321   -0.517636    0.327241
      4          6           0       -0.366150    0.605933   -0.270804
      5          8           0       -1.215530    1.606724   -0.688019
      6          6           0       -1.160402    2.810882    0.090976
      7          6           0        1.057546    0.742026   -0.547220
      8          8           0        1.521621    1.772561   -1.122976
      9          6           0        1.908634   -0.367144   -0.147408
     10          6           0        1.363996   -1.478863    0.444606
     11          6           0       -0.041643   -1.629292    0.726323
     12          8           0       -0.512016   -2.658776    1.302913
     13          6           0        3.385165   -0.255731   -0.417733
     14          1           0       -2.614713   -2.470720   -0.146432
     15          1           0       -4.024915   -1.427366    0.178634
     16          1           0       -2.998221   -1.108196   -1.243762
     17          1           0       -1.485466    2.616022    1.118480
     18          1           0       -1.848216    3.514576   -0.378190
     19          1           0       -0.150915    3.226510    0.090692
     20          1           0        2.002078   -2.307077    0.740827
     21          1           0        3.814017    0.621490    0.077177
     22          1           0        3.914136   -1.144156   -0.066850
     23          1           0        3.584781   -0.134619   -1.487373
 ---------------------------------------------------------------------

 SCF Done:  E(UB3LYP) =  -650.156799353     A.U. after    2 cycles

 Alpha  occ. eigenvalues --  -19.13445 -19.13422 -19.07621 -19.07560 -10.21924
 Alpha  occ. eigenvalues --  -10.21841 -10.21422 -10.21317 -10.20842 -10.20811
 Alpha  occ. eigenvalues --  -10.17174 -10.15782 -10.15699  -1.05806  -1.03871
 Alpha  occ. eigenvalues --   -0.99297  -0.98993  -0.82360  -0.76505  -0.71057
 Alpha  occ. eigenvalues --   -0.70228  -0.66873  -0.64615  -0.58100  -0.56071
 Alpha  occ. eigenvalues --   -0.51060  -0.49173  -0.48924  -0.46753  -0.44471
 Alpha  occ. eigenvalues --   -0.44080  -0.43432  -0.42840  -0.41854  -0.40862
 Alpha  occ. eigenvalues --   -0.38972  -0.38364  -0.37454  -0.36967  -0.36381
 Alpha  occ. eigenvalues --   -0.34910  -0.34703  -0.28425  -0.28136  -0.27227
 Alpha  occ. eigenvalues --   -0.23906  -0.23756  -0.23316  -0.15987
 Alpha virt. eigenvalues --   -0.00641   0.00150   0.00849   0.01208   0.02112
 Alpha virt. eigenvalues --    0.02983   0.03131   0.03278   0.03481   0.04341
 Alpha virt. eigenvalues --    0.04872   0.05441   0.06498   0.06810   0.07260

  Beta  occ. eigenvalues --  -19.13432 -19.13411 -19.06940 -19.06883 -10.21768
  Beta  occ. eigenvalues --  -10.21668 -10.21338 -10.21216 -10.20835 -10.20805
  Beta  occ. eigenvalues --  -10.17041 -10.15792 -10.15609  -1.05710  -1.03762
  Beta  occ. eigenvalues --   -0.98131  -0.97825  -0.81791  -0.76316  -0.70698
  Beta  occ. eigenvalues --   -0.70105  -0.66475  -0.64075  -0.57778  -0.55734
  Beta  occ. eigenvalues --   -0.50943  -0.48930  -0.48707  -0.46422  -0.44316
  Beta  occ. eigenvalues --   -0.43958  -0.43158  -0.42723  -0.41311  -0.40171
  Beta  occ. eigenvalues --   -0.38751  -0.37445  -0.36864  -0.36583  -0.34917
  Beta  occ. eigenvalues --   -0.34303  -0.33612  -0.28190  -0.27965  -0.24281
  Beta  occ. eigenvalues --   -0.23286  -0.23206  -0.22595
  Beta virt. eigenvalues --   -0.08801  -0.00476   0.00615   0.01001   0.01796
  Beta virt. eigenvalues --    0.02199   0.03117   0.03268   0.03497   0.04440
  Beta virt. eigenvalues --    0.04893   0.05239   0.05541   0.06525   0.06870

 Mulliken charges and spin densities:
               1          2
     1  C   -0.271780   0.001273
     2  O   -0.199412  -0.001311
     3  C    0.238042   0.120774
     4  C   -0.234546   0.055208
     5  O   -0.188583  -0.001008
     6  C   -0.271143   0.001338
     7  C   -0.431381   0.088572
     8  O   -0.498683   0.249961
     9  C    1.126332   0.087581
    10  C   -0.704948   0.051050
    11  C   -0.244465   0.095622
    12  O   -0.516448   0.241850
    13  C   -0.378658   0.005591
    14  H    0.163011  -0.000708
    15  H    0.155988   0.000767
    16  H    0.149691   0.000541
    17  H    0.148674   0.000381
    18  H    0.156805   0.000850
    19  H    0.163257  -0.000442
    20  H    0.158023  -0.007321
    21  H    0.164358   0.004318
    22  H    0.151624  -0.000117
    23  H    0.164242   0.005228
 Sum of Mulliken charges =  -1.00000   1.00000

 Dipole moment (field-independent basis, Debye):
    X=             -0.7821    Y=              1.9735    Z=             -0.6075  Tot=              2.2081
 Quadrupole moment (field-independent basis, Debye-Ang):
   XX=            -83.5887   YY=           -101.0960   ZZ=            -90.9620
   XY=             -8.8168   XZ=              7.8847   YZ=             18.2033

  Exact polarizability: 207.832  28.053 235.947 -23.942 -54.412 142.288
 Approx polarizability: 211.815  37.209 261.390 -28.703 -65.554 162.680

                      1                      2                      3
                      A                      A                      A
 Frequencies --     65.2026                80.7060                88.3859
 Red. masses --      2.8893                 2.9924                 4.0589
 Frc consts  --      0.0072                 0.0115                 0.0187
 IR Inten    --     14.1294                11.5438                 8.6407

                      4                      5                      6
                      A                      A                      A
 Frequencies --    102.4683               148.1999               158.5887
 Red. masses --      4.3949                 1.1352                 1.1931
 Frc consts  --      0.0272                 0.0147                 0.0177
 IR Inten    --     13.3012                 0.3671                 1.8283

                      7                      8                      9
                      A                      A                      A
 Frequencies --    161.4131               176.9035               214.8721
 Red. masses --      1.2032                 2.1698                 3.3896
 Frc consts  --      0.0185                 0.0400                 0.0922
 IR Inten    --      1.7866                 6.2542                 0.8125

                     10                     11                     12
                      A                      A                      A
 Frequencies --    261.5807               291.9040               331.7203
 Red. masses --      4.1667                 3.0851                 8.4490
 Frc consts  --      0.1680                 0.1549                 0.5478
 IR Inten    --     11.0897                 4.0516                 2.3206

                     13                     14                     15
                      A                      A                      A
 Frequencies --    338.3443               370.6051               390.2188
 Red. masses --      7.5468                 8.1393                 5.7553
 Frc consts  --      0.5090                 0.6587                 0.5163
 IR Inten    --      3.7820                 9.1018                 6.9677

                     16                     17                     18
                      A                      A                      A
 Frequencies --    412.8303               461.2552               504.4240
 Red. masses --      7.1249                 7.2642                 6.0401
 Frc consts  --      0.7154                 0.9106                 0.9055
 IR Inten    --      1.0753                 5.8680                10.6098

                     19                     20                     21
                      A                      A                      A
 Frequencies --    559.0732               626.5014               686.0328
 Red. masses --      6.6735                 4.9197                 4.1070
 Frc consts  --      1.2290                 1.1377                 1.1389
 IR Inten    --     10.6956                 4.6592                 4.8936

                     22                     23                     24
                      A                      A                      A
 Frequencies --    700.0459               725.0985               786.5296
 Red. masses --      5.4855                 4.9207                 8.4217
 Frc consts  --      1.5839                 1.5243                 3.0696
 IR Inten    --     33.6533                 7.7978                 4.1164

                     25                     26                     27
                      A                      A                      A
 Frequencies --    865.9327               932.0105               938.2346
 Red. masses --      1.4999                 5.8861                 5.3955
 Frc consts  --      0.6626                 3.0125                 2.7984
 IR Inten    --     46.4451                67.1076                64.0423

                     28                     29                     30
                      A                      A                      A
 Frequencies --   1011.3843              1016.5793              1048.7854
 Red. masses --      4.7196                 2.0718                 1.4946
 Frc consts  --      2.8444                 1.2615                 0.9686
 IR Inten    --     68.8118                36.9664                 2.9437

                     31                     32                     33
                      A                      A                      A
 Frequencies --   1089.1022              1148.8652              1158.9201
 Red. masses --      4.7253                 3.6403                 1.2801
 Frc consts  --      3.3023                 2.8309                 1.0130
 IR Inten    --    294.0892               219.0479                18.5474

                     34                     35                     36
                      A                      A                      A
 Frequencies --   1162.6070              1192.6941              1204.9424
 Red. masses --      1.3289                 1.6876                 2.2523
 Frc consts  --      1.0583                 1.4144                 1.9267
 IR Inten    --      7.8008               111.6049                11.5988

                     37                     38                     39
                      A                      A                      A
 Frequencies --   1224.5813              1238.8531              1314.8522
 Red. masses --      1.7696                 3.8804                 2.5783
 Frc consts  --      1.5635                 3.5089                 2.6262
 IR Inten    --    191.7686               199.8403                54.0491

                     40                     41                     42
                      A                      A                      A
 Frequencies --   1398.1564              1417.1942              1453.9168
 Red. masses --      1.4032                 3.1786                 1.2192
 Frc consts  --      1.6161                 3.7613                 1.5184
 IR Inten    --     59.2327                23.3903                 4.9118

                     43                     44                     45
                      A                      A                      A
 Frequencies --   1461.9771              1463.2079              1470.2835
 Red. masses --      1.0642                 1.5321                 1.2744
 Frc consts  --      1.3402                 1.9326                 1.6232
 IR Inten    --     26.0892               377.1508                20.4902

                     46                     47                     48
                      A                      A                      A
 Frequencies --   1476.0777              1477.8934              1495.5873
 Red. masses --      1.0722                 1.0761                 1.1451
 Frc consts  --      1.3765                 1.3848                 1.5091
 IR Inten    --      3.9882                 1.1943                 2.2888

                     49                     50                     51
                      A                      A                      A
 Frequencies --   1497.4625              1501.7750              1503.0469
 Red. masses --      1.1575                 2.6517                 3.4544
 Frc consts  --      1.5293                 3.5235                 4.5980
 IR Inten    --      4.0253                51.0536              1023.3134

                     52                     53                     54
                      A                      A                      A
 Frequencies --   1538.9209              1637.8901              3011.4747
 Red. masses --      5.9264                 7.5877                 1.0355
 Frc consts  --      8.2694                11.9931                 5.5328
 IR Inten    --     67.8522                23.1382               145.1868

                     55                     56                     57
                      A                      A                      A
 Frequencies --   3012.1870              3017.5171              3060.5823
 Red. masses --      1.0359                 1.0365                 1.0994
 Frc consts  --      5.5375                 5.5606                 6.0676
 IR Inten    --     66.2451                59.8216                35.9355

                     58                     59                     60
                      A                      A                      A
 Frequencies --   3086.6685              3086.8224              3098.1377
 Red. masses --      1.0985                 1.0983                 1.1012
 Frc consts  --      6.1664                 6.1656                 6.2277
 IR Inten    --     95.6711                 1.3194                33.8154

                     61                     62                     63
                      A                      A                      A
 Frequencies --   3122.3710              3122.4971              3145.3508
 Red. masses --      1.1051                 1.1050                 1.0897
 Frc consts  --      6.3475                 6.3478                 6.3518
 IR Inten    --     23.8037                59.2002                35.6166

 - Thermochemistry -
 -------------------
 Temperature   298.150 Kelvin.  Pressure   1.00000 Atm.
 Atom     1 has atomic number  6 and mass  12.00000

 Molecular mass:   182.05791 amu.
 Principal axes and moments of inertia in atomic units:
                           1         2         3
     Eigenvalues --  1808.783052309.618923851.57302
           X            0.91170  -0.39972   0.09506
           Y            0.35790   0.88625   0.29407
           Z           -0.20179  -0.23408   0.95104
 This molecule is an asymmetric top.
 Rotational symmetry number  1.
 Warning -- assumption of classical behavior for rotation
           may cause significant error
 Rotational temperatures (Kelvin)      0.04789     0.03750     0.02249
 Rotational constants (GHZ):           0.99777     0.78140     0.46857
 Zero-point vibrational energy     459056.5 (Joules/Mol)
                                  109.71713 (Kcal/Mol)
 Warning -- explicit consideration of  19 degrees of freedom as
           vibrations may cause significant error
 Vibrational temperatures:     93.81   116.12   127.17   147.43   213.23
          (Kelvin)            228.17   232.24   254.52   309.15   376.36
                              419.98   477.27   486.80   533.22   561.44
                              593.97   663.64   725.75   804.38   901.40
                              987.05  1007.21  1043.26  1131.64  1245.88
                             1340.96  1349.91  1455.16  1462.63  1508.97
                             1566.98  1652.96  1667.43  1672.73  1716.02
                             1733.64  1761.90  1782.43  1891.78  2011.64
                             2039.03  2091.86  2103.46  2105.23  2115.41
                             2123.75  2126.36  2151.82  2154.51  2160.72
                             2162.55  2214.16  2356.56  4332.84  4333.87
                             4341.53  4403.50  4441.03  4441.25  4457.53
                             4492.40  4492.58  4525.46

 Zero-point correction=                           0.174845 (Hartree/Particle)
 Thermal correction to Energy=                    0.188099
 Thermal correction to Enthalpy=                  0.189044
 Thermal correction to Gibbs Free Energy=         0.134527
 Sum of electronic and zero-point Energies=           -649.981954
 Sum of electronic and thermal Energies=              -649.968700
 Sum of electronic and thermal Enthalpies=            -649.967756
 Sum of electronic and thermal Free Energies=         -650.022272

                     E (Thermal)             CV                S
                      KCal/Mol        Cal/Mol-Kelvin    Cal/Mol-Kelvin
 Total                  118.034             47.644            114.739
 Electronic               0.000              0.000              1.377
 Translational            0.889              2.981             41.504
 Rotational               0.889              2.981             31.154
 Vibrational            116.257             41.683             40.704
 Vibration     1          0.597              1.971              4.293
 Vibration     2          0.600              1.962              3.874
 Vibration     3          0.601              1.957              3.695
 Vibration     4          0.605              1.947              3.407
 Vibration     5          0.618              1.905              2.695
 Vibration     6          0.621              1.893              2.567
 Vibration     7          0.622              1.890              2.533
 Vibration     8          0.628              1.871              2.361
 Vibration     9          0.645              1.818              2.002
 Vibration    10          0.669              1.743              1.651
 Vibration    11          0.687              1.689              1.463
 Vibration    12          0.714              1.612              1.252
 Vibration    13          0.719              1.599              1.220
 Vibration    14          0.743              1.533              1.077
 Vibration    15          0.758              1.491              0.999
 Vibration    16          0.777              1.442              0.917
 Vibration    17          0.819              1.336              0.762
 Vibration    18          0.860              1.240              0.647
 Vibration    19          0.915              1.120              0.526

 Optimization completed.
    -- Stationary point found.
 Normal termination of Gaussian 16 at Sat Feb 10 11:34:39 2024.
