 Q-Chem 5.4, Q-Chem, Inc., Pleasanton, CA (2021)
 Q-Chem 5.4.0 for Intel X86 EM64T Linux

User input:
--------------------------------------------------------------
$molecule
0 1
C                 -1.6505370000      0.7864660000      1.6295100000
C                 -2.9003030000      1.0617410000      0.7802280000
C                 -2.8634130000      0.9932610000     -0.5856880000
C                 -1.6594400000      0.6621960000     -1.2942880000
C                 -0.4097990000      0.3864210000     -0.4449840000
C                 -0.4466880000      0.4549060000      0.9209320000
O                 -1.5434420000      0.5787070000     -2.5079730000
O                 -1.7667550000      0.8690730000      2.8432340000
Br                 1.1234540000      0.1074930000      1.9491680000
Br                -4.4337210000      1.3400110000     -1.6138960000
N                  0.6600740000      0.0868740000     -1.1851680000
N                 -3.9702650000      1.3609320000      1.5204270000
H                  0.5400020000      0.0734650000     -2.1897340000
H                  1.5502130000     -0.1170800000     -0.7591750000
H                 -3.8501610000      1.3744700000      2.5249880000
H                 -4.8604870000      1.5645520000      1.0944490000
$end

$rem
BASIS  =  6-311++G(d,p)
GUI  =  2
JOB_TYPE  =  SP
METHOD  =  B3LYP
SCF_CONVERGENCE  = 8
SOLVENT_METHOD = sm12
$end

$smx
solvent dimethylformamide
charges CM5
$end

--------------------------------------------------------------

             Standard Nuclear Orientation (Angstroms)
    I     Atom           X                Y                Z
 ----------------------------------------------------------------
    1      C      -1.6505370000     0.7864660000     1.6295100000
    2      C      -2.9003030000     1.0617410000     0.7802280000
    3      C      -2.8634130000     0.9932610000    -0.5856880000
    4      C      -1.6594400000     0.6621960000    -1.2942880000
    5      C      -0.4097990000     0.3864210000    -0.4449840000
    6      C      -0.4466880000     0.4549060000     0.9209320000
    7      O      -1.5434420000     0.5787070000    -2.5079730000
    8      O      -1.7667550000     0.8690730000     2.8432340000
    9      Br      1.1234540000     0.1074930000     1.9491680000
   10      Br     -4.4337210000     1.3400110000    -1.6138960000
   11      N       0.6600740000     0.0868740000    -1.1851680000
   12      N      -3.9702650000     1.3609320000     1.5204270000
   13      H       0.5400020000     0.0734650000    -2.1897340000
   14      H       1.5502130000    -0.1170800000    -0.7591750000
   15      H      -3.8501610000     1.3744700000     2.5249880000
   16      H      -4.8604870000     1.5645520000     1.0944490000
 ----------------------------------------------------------------

   15   -5639.4279193683      3.25e-09  Convergence criterion met
 Total energy in the final basis set =    -5639.4466235262

                    Orbital Energies (a.u.)
 --------------------------------------------------------------

 Alpha MOs
 -- Occupied --
********-482.8417 -62.4945 -62.4945 -56.3150 -56.3150 -56.3110 -56.3110
-56.3110 -56.3110 -19.1326 -19.1326 -14.3660 -14.3660 -10.2911 -10.2911
-10.2709 -10.2709 -10.2355 -10.2355  -8.7033  -8.7033  -6.5350  -6.5350
 -6.5215  -6.5215  -6.5215  -6.5215  -2.6460  -2.6460  -2.6418  -2.6418
 -2.6417  -2.6417  -2.6313  -2.6313  -2.6313  -2.6313  -1.0733  -1.0706
 -0.9694  -0.9681  -0.8618  -0.8331  -0.7908  -0.7351  -0.7059  -0.6408
 -0.6247  -0.6019  -0.5442  -0.5347  -0.5257  -0.4866  -0.4723  -0.4574
 -0.4543  -0.4338  -0.4289  -0.4021  -0.4005  -0.3664  -0.3246  -0.3183
 -0.3085  -0.3084  -0.2974  -0.2869  -0.2605  -0.2305

          Ground-State Mulliken Net Atomic Charges

     Atom                 Charge (a.u.)
  ----------------------------------------
      1 C                    -0.962864
      2 C                     0.083844
      3 C                     0.793536
      4 C                    -0.962852
      5 C                     0.083828
      6 C                     0.793546
      7 O                    -0.318957
      8 O                    -0.318958
      9 Br                   -0.148747
     10 Br                   -0.148745
     11 N                    -0.149768
     12 N                    -0.149771
     13 H                     0.351807
     14 H                     0.351147
     15 H                     0.351807
     16 H                     0.351147
  ----------------------------------------
  Sum of atomic charges =     0.000000

                    Cartesian Multipole Moments
 -----------------------------------------------------------------
    Charge (ESU x 10^10)
                 0.0000
    Dipole Moment (Debye)
         X       0.0002      Y       0.0006      Z      -0.0000
       Tot       0.0006
    Quadrupole Moments (Debye-Ang)
        XX     -76.4067     XY      -5.4313     YY     -94.3866
        XZ     -13.1884     YZ       2.7898     ZZ    -107.1425

 Total job time:  180.06s(wall), 1368.31s(cpu)
        *  Thank you very much for using Q-Chem.  Have a nice day.  *
