 Q-Chem 5.4, Q-Chem, Inc., Pleasanton, CA (2021)
 Q-Chem 5.4.0 for Intel X86 EM64T Linux

User input:
--------------------------------------------------------------
$molecule
0 1
C                  4.8777450000     -2.8724200000     -0.3477780000
C                  5.6114970000     -1.9790750000     -1.1187520000
C                  5.0317810000     -0.7801700000     -1.5424010000
C                  3.5574960000     -2.5730120000      0.0055280000
C                  2.9727510000     -1.3661290000     -0.4205050000
C                  3.7200200000     -0.4757700000     -1.1951090000
C                  2.7893980000     -3.5369100000      0.8281610000
C                  1.4070800000     -3.1982150000      1.1843520000
C                  0.8061480000     -1.9853670000      0.7614300000
C                  1.5632290000     -1.0120250000     -0.0619610000
C                  0.6637830000     -4.0982610000      1.9626870000
C                 -0.6681860000     -3.7948610000      2.3185560000
C                 -0.5072600000     -1.7056670000      1.1228300000
C                 -1.2422190000     -2.6039960000      1.8970620000
O                  3.3032990000     -4.6012020000      1.2044300000
O                  1.0676620000      0.0394200000     -0.4384030000
O                  1.1398780000     -5.2748620000      2.4145320000
H                  5.3068720000     -3.8069320000     -0.0087390000
H                  6.6341520000     -2.2133470000     -1.3911660000
H                  5.6058820000     -0.0844690000     -2.1438260000
H                  3.2520160000      0.4476440000     -1.5129370000
H                  2.0732920000     -5.3492650000      2.0900800000
O                 -1.3746840000     -4.6699310000      3.0690640000
H                 -0.9482210000     -0.7747050000      0.7903800000
H                 -2.2656930000     -2.3917320000      2.1818260000
H                 -0.8094750000     -5.4323110000      3.2617280000
$end

$rem
BASIS  =  6-311++G(d,p)
GUI  =  2
JOB_TYPE  =  SP
METHOD  =  B3LYP
SCF_CONVERGENCE  = 8
SOLVENT_METHOD = sm12
$end

$smx
solvent dimethylformamide
charges CM5
$end

--------------------------------------------------------------

             Standard Nuclear Orientation (Angstroms)
    I     Atom           X                Y                Z
 ----------------------------------------------------------------
    1      C       4.8777450000    -2.8724200000    -0.3477780000
    2      C       5.6114970000    -1.9790750000    -1.1187520000
    3      C       5.0317810000    -0.7801700000    -1.5424010000
    4      C       3.5574960000    -2.5730120000     0.0055280000
    5      C       2.9727510000    -1.3661290000    -0.4205050000
    6      C       3.7200200000    -0.4757700000    -1.1951090000
    7      C       2.7893980000    -3.5369100000     0.8281610000
    8      C       1.4070800000    -3.1982150000     1.1843520000
    9      C       0.8061480000    -1.9853670000     0.7614300000
   10      C       1.5632290000    -1.0120250000    -0.0619610000
   11      C       0.6637830000    -4.0982610000     1.9626870000
   12      C      -0.6681860000    -3.7948610000     2.3185560000
   13      C      -0.5072600000    -1.7056670000     1.1228300000
   14      C      -1.2422190000    -2.6039960000     1.8970620000
   15      O       3.3032990000    -4.6012020000     1.2044300000
   16      O       1.0676620000     0.0394200000    -0.4384030000
   17      O       1.1398780000    -5.2748620000     2.4145320000
   18      H       5.3068720000    -3.8069320000    -0.0087390000
   19      H       6.6341520000    -2.2133470000    -1.3911660000
   20      H       5.6058820000    -0.0844690000    -2.1438260000
   21      H       3.2520160000     0.4476440000    -1.5129370000
   22      H       2.0732920000    -5.3492650000     2.0900800000
   23      O      -1.3746840000    -4.6699310000     3.0690640000
   24      H      -0.9482210000    -0.7747050000     0.7903800000
   25      H      -2.2656930000    -2.3917320000     2.1818260000
   26      H      -0.8094750000    -5.4323110000     3.2617280000
 ----------------------------------------------------------------

   15    -839.4640753362      4.79e-09  Convergence criterion met
 Total energy in the final basis set =     -839.4887774520

                    Orbital Energies (a.u.)
 --------------------------------------------------------------

 Alpha MOs
 -- Occupied --
-19.1781 -19.1755 -19.1439 -19.1243 -10.2931 -10.2787 -10.2710 -10.2648
-10.2143 -10.2112 -10.2095 -10.2067 -10.2010 -10.1992 -10.1991 -10.1987
-10.1975 -10.1969  -1.1101  -1.0852  -1.0648  -1.0589  -0.8960  -0.8820
 -0.8157  -0.7807  -0.7760  -0.7712  -0.6987  -0.6789  -0.6593  -0.6338
 -0.6018  -0.5859  -0.5662  -0.5498  -0.5324  -0.5159  -0.4983  -0.4816
 -0.4750  -0.4653  -0.4620  -0.4520  -0.4476  -0.4440  -0.4339  -0.4229
 -0.4228  -0.3983  -0.3965  -0.3878  -0.3817  -0.3812  -0.3683  -0.3508
 -0.2976  -0.2898  -0.2790  -0.2758  -0.2724  -0.2438

          Ground-State Mulliken Net Atomic Charges

     Atom                 Charge (a.u.)
  ----------------------------------------
      1 C                     0.410661
      2 C                     0.384204
      3 C                     0.438941
      4 C                     0.018766
      5 C                    -0.700342
      6 C                     0.163269
      7 C                    -0.895001
      8 C                     0.319105
      9 C                    -0.015107
     10 C                    -1.254167
     11 C                    -0.212382
     12 C                    -0.328744
     13 C                     0.151880
     14 C                     0.461096
     15 O                    -0.281462
     16 O                    -0.287132
     17 O                    -0.352553
     18 H                     0.219730
     19 H                     0.329124
     20 H                     0.321992
     21 H                     0.181809
     22 H                     0.344406
     23 O                    -0.241326
     24 H                     0.206686
     25 H                     0.312255
     26 H                     0.304290
  ----------------------------------------
  Sum of atomic charges =     0.000000

                    Cartesian Multipole Moments
 -----------------------------------------------------------------
    Charge (ESU x 10^10)
                 0.0000
    Dipole Moment (Debye)
         X       2.5905      Y      -0.3145      Z      -0.8392
       Tot       2.7411
    Quadrupole Moments (Debye-Ang)
        XX     -79.2835     XY      -1.6390     YY    -106.0092
        XZ      -9.1978     YZ       1.1240     ZZ    -102.1356

 Total job time:  516.36s(wall), 4020.92s(cpu)
        *  Thank you very much for using Q-Chem.  Have a nice day.  *
