 Q-Chem 5.4, Q-Chem, Inc., Pleasanton, CA (2021)
 Q-Chem 5.4.0 for Intel X86 EM64T Linux

User input:
--------------------------------------------------------------
$molecule
-2 1
C                 -3.6299360000      0.1992280000      0.8407020000
C                 -3.6585520000     -0.1736490000     -0.4977660000
C                 -2.4414620000     -0.3646650000     -1.1931290000
C                 -1.1808610000     -0.1915480000     -0.5814160000
N                 -0.0298940000     -0.3860980000     -1.2887150000
C                  1.1512380000     -0.1996120000     -0.6286890000
C                  2.3836170000     -0.3815610000     -1.2916780000
C                  3.6300360000     -0.1992740000     -0.6470030000
C                  3.6584170000      0.1736740000      0.6915320000
C                  2.4414410000      0.3646680000      1.3868130000
C                  1.1808310000      0.1915210000      0.7750850000
N                  0.0298660000      0.3860930000      1.4824630000
C                 -1.1512450000      0.1996040000      0.8224340000
C                 -2.3836770000      0.3815510000      1.4855060000
H                 -4.5557910000      0.3516580000      1.3950280000
H                 -4.6070810000     -0.3196140000     -1.0141010000
H                 -2.4434900000     -0.6569870000     -2.2420920000
H                  2.3413530000     -0.6737240000     -2.3397650000
H                  4.5559330000     -0.3516240000     -1.2010990000
H                  4.6069370000      0.3196580000      1.2079950000
H                  2.4435360000      0.6570050000      2.4357870000
H                 -2.3412140000      0.6736960000      2.5335620000
$end
$rem
MAX_SCF_CYCLES=200
BASIS  =  6-311++G(d,p)
GUI  =  2
JOB_TYPE  =  SP
METHOD  =  B3LYP
SOLVENT_METHOD = PCM
$end
$pcm
theory = CPCM
$end
$solvent
dielectric 37.219
opticaldielectric 1.43
$end

--------------------------------------------------------------

             Standard Nuclear Orientation (Angstroms)
    I     Atom           X                Y                Z
 ----------------------------------------------------------------
    1      C      -3.6299360000     0.1992280000     0.8407020000
    2      C      -3.6585520000    -0.1736490000    -0.4977660000
    3      C      -2.4414620000    -0.3646650000    -1.1931290000
    4      C      -1.1808610000    -0.1915480000    -0.5814160000
    5      N      -0.0298940000    -0.3860980000    -1.2887150000
    6      C       1.1512380000    -0.1996120000    -0.6286890000
    7      C       2.3836170000    -0.3815610000    -1.2916780000
    8      C       3.6300360000    -0.1992740000    -0.6470030000
    9      C       3.6584170000     0.1736740000     0.6915320000
   10      C       2.4414410000     0.3646680000     1.3868130000
   11      C       1.1808310000     0.1915210000     0.7750850000
   12      N       0.0298660000     0.3860930000     1.4824630000
   13      C      -1.1512450000     0.1996040000     0.8224340000
   14      C      -2.3836770000     0.3815510000     1.4855060000
   15      H      -4.5557910000     0.3516580000     1.3950280000
   16      H      -4.6070810000    -0.3196140000    -1.0141010000
   17      H      -2.4434900000    -0.6569870000    -2.2420920000
   18      H       2.3413530000    -0.6737240000    -2.3397650000
   19      H       4.5559330000    -0.3516240000    -1.2010990000
   20      H       4.6069370000     0.3196580000     1.2079950000
   21      H       2.4435360000     0.6570050000     2.4357870000
   22      H      -2.3412140000     0.6736960000     2.5335620000
 ----------------------------------------------------------------

    9    -571.9550808847      1.56e-06  Convergence criterion met
 Total energy in the final basis set =     -571.9550808847

                    Orbital Energies (a.u.)
 --------------------------------------------------------------

 Alpha MOs
 -- Occupied --
-14.2325 -14.2324 -10.1638 -10.1638 -10.1634 -10.1634 -10.1333 -10.1333
-10.1327 -10.1327 -10.1232 -10.1232 -10.1232 -10.1232  -0.9030  -0.8331
 -0.8083  -0.7792  -0.7082  -0.7062  -0.6780  -0.6357  -0.5837  -0.5569
 -0.5496  -0.5152  -0.4949  -0.4462  -0.4397  -0.4291  -0.4144  -0.3897
 -0.3818  -0.3799  -0.3772  -0.3434  -0.3326  -0.3290  -0.3135  -0.3086
 -0.2907  -0.2807  -0.2497  -0.2203  -0.2166  -0.1958  -0.1738  -0.0924

          Ground-State Mulliken Net Atomic Charges

     Atom                 Charge (a.u.)
  ----------------------------------------
      1 C                    -0.364476
      2 C                    -0.363805
      3 C                    -0.327872
      4 C                     0.107967
      5 N                    -0.392225
      6 C                     0.111320
      7 C                    -0.330955
      8 C                    -0.363938
      9 C                    -0.363439
     10 C                    -0.328274
     11 C                     0.107392
     12 N                    -0.392216
     13 C                     0.111441
     14 C                    -0.330520
     15 H                     0.150345
     16 H                     0.150377
     17 H                     0.129504
     18 H                     0.129519
     19 H                     0.150403
     20 H                     0.150396
     21 H                     0.129526
     22 H                     0.129529
  ----------------------------------------
  Sum of atomic charges =    -2.000000

                    Cartesian Multipole Moments
 -----------------------------------------------------------------
    Charge (ESU x 10^10)
                -9.6064
    Dipole Moment (Debye)
         X       0.0019      Y       0.0002      Z      -0.9299
       Tot       0.9299
    Quadrupole Moments (Debye-Ang)
        XX    -129.6831     XY       0.0419     YY     -98.6299
        XZ       0.3935     YZ      -3.4233     ZZ    -109.9682

 Total job time:  33.41s(wall), 190.83s(cpu)
        *  Thank you very much for using Q-Chem.  Have a nice day.  *
