 Gaussian 16, Revision A.03,
 Gaussian 16:  ES64L-G16RevA.03 25-Dec-2016

 --------------------------------------
 #P UB3LYP/6-311++G(d,p) nosym opt freq
 --------------------------------------

 -------
 Reduced
 -------
 Symbolic Z-matrix:
 Charge = -2 Multiplicity = 1

 SCF Done:  E(UB3LYP) =  -571.681394312     A.U. after   31 cycles
 Optimization completed.
    -- Stationary point found.
 Normal termination of Gaussian 16 at Tue Jan  9 20:32:17 2024.

 ----------------------------------------------------------------------
 #P Geom=AllCheck Guess=TCheck SCRF=Check GenChk UB3LYP/6-311++G(d,p) F
 req
 ----------------------------------------------------------------------

 Structure from the checkpoint file:  "349-an.chk"
 -------
 Reduced
 -------
 Charge = -2 Multiplicity = 1

                          Input orientation:
 ---------------------------------------------------------------------
 Center     Atomic      Atomic             Coordinates (Angstroms)
 Number     Number       Type             X           Y           Z
 ---------------------------------------------------------------------
      1          6           0       -3.629936    0.199228    0.840702
      2          6           0       -3.658552   -0.173649   -0.497766
      3          6           0       -2.441462   -0.364665   -1.193129
      4          6           0       -1.180861   -0.191548   -0.581416
      5          7           0       -0.029894   -0.386098   -1.288715
      6          6           0        1.151238   -0.199612   -0.628689
      7          6           0        2.383617   -0.381561   -1.291678
      8          6           0        3.630036   -0.199274   -0.647003
      9          6           0        3.658417    0.173674    0.691532
     10          6           0        2.441441    0.364668    1.386813
     11          6           0        1.180831    0.191521    0.775085
     12          7           0        0.029866    0.386093    1.482463
     13          6           0       -1.151245    0.199604    0.822434
     14          6           0       -2.383677    0.381551    1.485506
     15          1           0       -4.555791    0.351658    1.395028
     16          1           0       -4.607081   -0.319614   -1.014101
     17          1           0       -2.443490   -0.656987   -2.242092
     18          1           0        2.341353   -0.673724   -2.339765
     19          1           0        4.555933   -0.351624   -1.201099
     20          1           0        4.606937    0.319658    1.207995
     21          1           0        2.443536    0.657005    2.435787
     22          1           0       -2.341214    0.673696    2.533562
 ---------------------------------------------------------------------

 SCF Done:  E(UB3LYP) =  -571.681394312     A.U. after    1 cycles

 Alpha  occ. eigenvalues --  -13.97596 -13.97593  -9.91034  -9.91033  -9.90998
 Alpha  occ. eigenvalues --   -9.90998  -9.89268  -9.89267  -9.89212  -9.89211
 Alpha  occ. eigenvalues --   -9.87390  -9.87388  -9.87384  -9.87384  -0.64513
 Alpha  occ. eigenvalues --   -0.57422  -0.55849  -0.53230  -0.45781  -0.45719
 Alpha  occ. eigenvalues --   -0.42977  -0.38764  -0.33517  -0.30366  -0.30160
 Alpha  occ. eigenvalues --   -0.27115  -0.24625  -0.20179  -0.19510  -0.18293
 Alpha  occ. eigenvalues --   -0.16854  -0.14153  -0.13232  -0.12752  -0.12227
 Alpha  occ. eigenvalues --   -0.10352  -0.08818  -0.07659  -0.06776  -0.06275
 Alpha  occ. eigenvalues --   -0.03113  -0.02945   0.01664   0.03250   0.03536
 Alpha  occ. eigenvalues --    0.06727   0.07931   0.16250
 Alpha virt. eigenvalues --    0.17240   0.17326   0.18641   0.18823   0.20249
 Alpha virt. eigenvalues --    0.21089   0.21350   0.23142   0.25648   0.26525
 Alpha virt. eigenvalues --    0.27622   0.27786   0.27817   0.28502   0.28950

  Beta  occ. eigenvalues --  -13.97596 -13.97593  -9.91034  -9.91033  -9.90998
  Beta  occ. eigenvalues --   -9.90998  -9.89268  -9.89267  -9.89212  -9.89211
  Beta  occ. eigenvalues --   -9.87390  -9.87388  -9.87384  -9.87384  -0.64513
  Beta  occ. eigenvalues --   -0.57422  -0.55849  -0.53230  -0.45781  -0.45719
  Beta  occ. eigenvalues --   -0.42977  -0.38764  -0.33517  -0.30366  -0.30160
  Beta  occ. eigenvalues --   -0.27115  -0.24625  -0.20179  -0.19510  -0.18293
  Beta  occ. eigenvalues --   -0.16854  -0.14153  -0.13232  -0.12752  -0.12227
  Beta  occ. eigenvalues --   -0.10352  -0.08818  -0.07659  -0.06776  -0.06275
  Beta  occ. eigenvalues --   -0.03113  -0.02945   0.01664   0.03250   0.03536
  Beta  occ. eigenvalues --    0.06727   0.07931   0.16250
  Beta virt. eigenvalues --    0.17240   0.17326   0.18641   0.18823   0.20249
  Beta virt. eigenvalues --    0.21089   0.21350   0.23142   0.25648   0.26525
  Beta virt. eigenvalues --    0.27622   0.27786   0.27817   0.28502   0.28950

 Mulliken charges and spin densities:
               1          2
     1  C   -0.301226  -0.000000
     2  C   -0.299866  -0.000000
     3  C   -0.247854   0.000000
     4  C    0.029515  -0.000000
     5  N   -0.140840   0.000000
     6  C    0.032325  -0.000000
     7  C   -0.248875   0.000000
     8  C   -0.301385  -0.000000
     9  C   -0.299669   0.000000
    10  C   -0.247752   0.000000
    11  C    0.029542  -0.000000
    12  N   -0.140807   0.000000
    13  C    0.032280  -0.000000
    14  C   -0.248669   0.000000
    15  H    0.051539   0.000000
    16  H    0.051562  -0.000000
    17  H    0.036751   0.000000
    18  H    0.036772   0.000000
    19  H    0.051548  -0.000000
    20  H    0.051555  -0.000000
    21  H    0.036772   0.000000
    22  H    0.036782  -0.000000
 Sum of Mulliken charges =  -2.00000  -0.00000

 Dipole moment (field-independent basis, Debye):
    X=              0.0011    Y=              0.0002    Z=             -0.9300  Tot=              0.9300
 Quadrupole moment (field-independent basis, Debye-Ang):
   XX=           -158.1731   YY=           -100.4785   ZZ=           -113.6271
   XY=              0.1223   XZ=              0.9014   YZ=             -3.9403

  Exact polarizability: 437.846  -0.599 121.978  -4.673  26.674 210.817
 Approx polarizability: 747.753  -1.154 223.673  -8.369  39.657 354.852

                      1                      2                      3
                      A                      A                      A
 Frequencies --     69.2922                82.7150               167.7106
 Red. masses --      4.6280                 5.9767                11.7027
 Frc consts  --      0.0131                 0.0241                 0.1939
 IR Inten    --      0.0038                 2.5759                 0.0003

                      4                      5                      6
                      A                      A                      A
 Frequencies --    236.0522               247.8979               252.9508
 Red. masses --      5.3114                 4.6984                 6.9568
 Frc consts  --      0.1744                 0.1701                 0.2623
 IR Inten    --      0.0000                 7.0148                29.6287

                      7                      8                      9
                      A                      A                      A
 Frequencies --    330.2641               378.3622               412.7601
 Red. masses --      4.8985                 3.9938                 6.7021
 Frc consts  --      0.3148                 0.3369                 0.6728
 IR Inten    --      0.0136                 0.0008                 0.0000

                     10                     11                     12
                      A                      A                      A
 Frequencies --    440.9487               441.7512               460.6544
 Red. masses --      3.4866                 4.9800                 2.9942
 Frc consts  --      0.3994                 0.5726                 0.3744
 IR Inten    --      0.0000                 0.0000                 0.0200

                     13                     14                     15
                      A                      A                      A
 Frequencies --    543.4769               598.4033               602.7089
 Red. masses --      8.3765                 9.0681                 1.4564
 Frc consts  --      1.4577                 1.9132                 0.3117
 IR Inten    --      0.0000                 0.0000                 0.0081

                     16                     17                     18
                      A                      A                      A
 Frequencies --    603.6666               606.9432               622.3345
 Red. masses --      2.5735                 7.0779                 1.1955
 Frc consts  --      0.5526                 1.5362                 0.2728
 IR Inten    --      0.0262                 4.0468               147.9004

                     19                     20                     21
                      A                      A                      A
 Frequencies --    628.3707               637.3155               666.7213
 Red. masses --      1.2162                 2.0943                 5.9368
 Frc consts  --      0.2829                 0.5012                 1.5549
 IR Inten    --      0.0115                 0.0591                 8.4241

                     22                     23                     24
                      A                      A                      A
 Frequencies --    714.0852               714.5200               716.7557
 Red. masses --      1.4248                 6.6438                 1.2312
 Frc consts  --      0.4281                 1.9985                 0.3727
 IR Inten    --    422.2299                 0.0001                 0.0024

                     25                     26                     27
                      A                      A                      A
 Frequencies --    722.4235               740.5492               754.4178
 Red. masses --      1.3093                 1.0538                 3.7309
 Frc consts  --      0.4026                 0.3405                 1.2511
 IR Inten    --      0.0222                 0.0071                 0.0001

                     28                     29                     30
                      A                      A                      A
 Frequencies --    818.1953               876.7745               888.2969
 Red. masses --      6.0804                 5.3094                 6.0619
 Frc consts  --      2.3983                 2.4047                 2.8182
 IR Inten    --    181.6225                 0.0000                17.8678

                     31                     32                     33
                      A                      A                      A
 Frequencies --   1031.1926              1032.7112              1068.7607
 Red. masses --      2.1740                 1.8719                 1.9321
 Frc consts  --      1.3621                 1.1763                 1.3003
 IR Inten    --      0.0004                58.1299                 0.0001

                     34                     35                     36
                      A                      A                      A
 Frequencies --   1094.2917              1136.0201              1141.1359
 Red. masses --      1.4566                 1.0926                 1.0666
 Frc consts  --      1.0277                 0.8308                 0.8183
 IR Inten    --     46.3349                 1.2352                 0.0002

                     37                     38                     39
                      A                      A                      A
 Frequencies --   1182.6953              1221.8807              1239.8138
 Red. masses --      2.9378                 3.3001                 9.7928
 Frc consts  --      2.4212                 2.9029                 8.8689
 IR Inten    --      0.0001                 0.0001                 0.2229

                     40                     41                     42
                      A                      A                      A
 Frequencies --   1273.0560              1280.8948              1319.6464
 Red. masses --      1.5689                 3.0000                 9.4444
 Frc consts  --      1.4981                 2.9000                 9.6903
 IR Inten    --      0.1819                 0.0004               326.1242

                     43                     44                     45
                      A                      A                      A
 Frequencies --   1362.4748              1367.4436              1386.4131
 Red. masses --      3.0670                 6.3351                 1.8013
 Frc consts  --      3.3544                 6.9795                 2.0399
 IR Inten    --    868.3570                 0.0019                 0.0000

                     46                     47                     48
                      A                      A                      A
 Frequencies --   1440.4773              1455.6499              1487.5942
 Red. masses --      2.2486                 6.0873                 3.7335
 Frc consts  --      2.7489                 7.5996                 4.8678
 IR Inten    --      4.7753               951.7055                 0.0034

                     49                     50                     51
                      A                      A                      A
 Frequencies --   1487.9632              1539.8876              1559.7754
 Red. masses --      3.8107                 4.2947                 5.8964
 Frc consts  --      4.9709                 6.0001                 8.4521
 IR Inten    --      0.0055               185.5075                 0.0011

                     52                     53                     54
                      A                      A                      A
 Frequencies --   1587.7612              3071.1843              3072.0917
 Red. masses --      6.3665                 1.0792                 1.0801
 Frc consts  --      9.4563                 5.9974                 6.0059
 IR Inten    --    101.6329                 0.0922                 5.4613

                     55                     56                     57
                      A                      A                      A
 Frequencies --   3091.5172              3091.7540              3108.1306
 Red. masses --      1.0865                 1.0865                 1.0891
 Frc consts  --      6.1181                 6.1189                 6.1989
 IR Inten    --    169.9984                 0.2186                 2.8119

                     58                     59                     60
                      A                      A                      A
 Frequencies --   3109.0989              3119.3004              3120.6313
 Red. masses --      1.0892                 1.0945                 1.0940
 Frc consts  --      6.2032                 6.2747                 6.2772
 IR Inten    --    354.4550               218.1731                 0.0142

 - Thermochemistry -
 -------------------
 Temperature   298.150 Kelvin.  Pressure   1.00000 Atm.
 Atom     1 has atomic number  6 and mass  12.00000

 Molecular mass:   180.06875 amu.
 Principal axes and moments of inertia in atomic units:
                           1         2         3
     Eigenvalues --   823.289663893.395194716.68485
           X            0.99979   0.02062  -0.00211
           Y           -0.00350   0.26834   0.96332
           Z           -0.02043   0.96310  -0.26835
 This molecule is an asymmetric top.
 Rotational symmetry number  1.
 Warning -- assumption of classical behavior for rotation
           may cause significant error
 Rotational temperatures (Kelvin)      0.10520     0.02225     0.01836
 Rotational constants (GHZ):           2.19211     0.46354     0.38263
 Zero-point vibrational energy     415454.5 (Joules/Mol)
                                   99.29601 (Kcal/Mol)
 Warning -- explicit consideration of  17 degrees of freedom as
           vibrations may cause significant error
 Vibrational temperatures:     99.70   119.01   241.30   339.63   356.67
          (Kelvin)            363.94   475.18   544.38   593.87   634.43
                              635.58   662.78   781.94   860.97   867.16
                              868.54   873.26   895.40   904.09   916.95
                              959.26  1027.41  1028.03  1031.25  1039.41
                             1065.49  1085.44  1177.20  1261.48  1278.06
                             1483.66  1485.84  1537.71  1574.44  1634.48
                             1641.84  1701.63  1758.01  1783.82  1831.64
                             1842.92  1898.68  1960.30  1967.45  1994.74
                             2072.53  2094.36  2140.32  2140.85  2215.55
                             2244.17  2284.43  4418.75  4420.05  4448.00
                             4448.34  4471.91  4473.30  4487.98  4489.89

 Zero-point correction=                           0.158238 (Hartree/Particle)
 Thermal correction to Energy=                    0.169028
 Thermal correction to Enthalpy=                  0.169972
 Thermal correction to Gibbs Free Energy=         0.122112
 Sum of electronic and zero-point Energies=           -571.523156
 Sum of electronic and thermal Energies=              -571.512366
 Sum of electronic and thermal Enthalpies=            -571.511422
 Sum of electronic and thermal Free Energies=         -571.559282

                     E (Thermal)             CV                S
                      KCal/Mol        Cal/Mol-Kelvin    Cal/Mol-Kelvin
 Total                  106.067             44.846            100.730
 Electronic               0.000              0.000              0.000
 Translational            0.889              2.981             41.471
 Rotational               0.889              2.981             31.092
 Vibrational            104.289             38.885             28.167
 Vibration     1          0.598              1.969              4.173
 Vibration     2          0.600              1.961              3.825
 Vibration     3          0.624              1.882              2.461
 Vibration     4          0.655              1.786              1.832
 Vibration     5          0.662              1.766              1.745
 Vibration     6          0.664              1.758              1.710
 Vibration     7          0.713              1.615              1.259
 Vibration     8          0.749              1.516              1.046
 Vibration     9          0.777              1.443              0.917
 Vibration    10          0.801              1.381              0.824
 Vibration    11          0.802              1.379              0.821
 Vibration    12          0.818              1.337              0.764
 Vibration    13          0.899              1.154              0.558
 Vibration    14          0.956              1.035              0.452
 Vibration    15          0.961              1.026              0.445
 Vibration    16          0.962              1.024              0.443
 Vibration    17          0.966              1.017              0.438

 Optimization completed.
    -- Stationary point found.
 Normal termination of Gaussian 16 at Tue Jan  9 20:56:02 2024.
