 Q-Chem 5.4, Q-Chem, Inc., Pleasanton, CA (2021)
 Q-Chem 5.4.0 for Intel X86 EM64T Linux

User input:
--------------------------------------------------------------
$molecule
-2 1
C                 -3.2356780000      2.9975680000      0.0196060000
O                 -1.9182260000      2.5163310000      0.0138370000
C                 -1.7121940000      1.1549160000     -0.0380470000
C                 -2.7760820000      0.2792570000     -0.0378640000
C                 -2.5543890000     -1.1203970000     -0.0762360000
C                 -1.2735670000     -1.6259920000     -0.0270030000
O                 -1.0480660000     -2.9842910000     -0.0796470000
C                 -2.1519880000     -3.8479150000     -0.1328730000
C                 -0.1235890000     -0.7610900000      0.0539740000
C                  1.2122200000     -1.3134040000      0.2460000000
O                  1.4720830000     -2.5355310000      0.4725870000
C                  2.3085650000     -0.3488120000      0.1595880000
C                  3.6376390000     -0.8159370000      0.2907660000
C                  4.7221410000      0.0360810000      0.2078740000
C                  4.5083900000      1.4205010000     -0.0118840000
C                  3.2187180000      1.8979130000     -0.1452370000
C                  2.0936940000      1.0435580000     -0.0663520000
C                  0.7582790000      1.6245250000     -0.2044550000
O                  0.6386080000      2.8688510000     -0.4275070000
C                 -0.3495120000      0.6865630000     -0.0653400000
H                 -3.1590730000      4.0868610000      0.0749250000
H                 -3.8165860000      2.6403380000      0.8852140000
H                 -3.7865460000      2.7262390000     -0.8940910000
H                 -3.7978610000      0.6360760000     -0.0282110000
H                 -3.4154580000     -1.7742940000     -0.1258550000
H                 -2.7948520000     -3.7638000000      0.7568020000
H                 -1.7414780000     -4.8603320000     -0.1770860000
H                 -2.7804400000     -3.6829540000     -1.0229300000
H                  3.7609510000     -1.8808700000      0.4580710000
H                  5.7340800000     -0.3518180000      0.3093890000
H                  5.3551220000      2.1016720000     -0.0738400000
H                  3.0150940000      2.9501840000     -0.3141740000
$end
$rem
MAX_SCF_CYCLES=200
BASIS  =  6-311++G(d,p)
GUI  =  2
JOB_TYPE  =  SP
METHOD  =  B3LYP
SOLVENT_METHOD = PCM
$end
$pcm
theory = CPCM
$end
$solvent
dielectric 37.219
opticaldielectric 1.43
$end

--------------------------------------------------------------

             Standard Nuclear Orientation (Angstroms)
    I     Atom           X                Y                Z
 ----------------------------------------------------------------
    1      C      -3.2356780000     2.9975680000     0.0196060000
    2      O      -1.9182260000     2.5163310000     0.0138370000
    3      C      -1.7121940000     1.1549160000    -0.0380470000
    4      C      -2.7760820000     0.2792570000    -0.0378640000
    5      C      -2.5543890000    -1.1203970000    -0.0762360000
    6      C      -1.2735670000    -1.6259920000    -0.0270030000
    7      O      -1.0480660000    -2.9842910000    -0.0796470000
    8      C      -2.1519880000    -3.8479150000    -0.1328730000
    9      C      -0.1235890000    -0.7610900000     0.0539740000
   10      C       1.2122200000    -1.3134040000     0.2460000000
   11      O       1.4720830000    -2.5355310000     0.4725870000
   12      C       2.3085650000    -0.3488120000     0.1595880000
   13      C       3.6376390000    -0.8159370000     0.2907660000
   14      C       4.7221410000     0.0360810000     0.2078740000
   15      C       4.5083900000     1.4205010000    -0.0118840000
   16      C       3.2187180000     1.8979130000    -0.1452370000
   17      C       2.0936940000     1.0435580000    -0.0663520000
   18      C       0.7582790000     1.6245250000    -0.2044550000
   19      O       0.6386080000     2.8688510000    -0.4275070000
   20      C      -0.3495120000     0.6865630000    -0.0653400000
   21      H      -3.1590730000     4.0868610000     0.0749250000
   22      H      -3.8165860000     2.6403380000     0.8852140000
   23      H      -3.7865460000     2.7262390000    -0.8940910000
   24      H      -3.7978610000     0.6360760000    -0.0282110000
   25      H      -3.4154580000    -1.7742940000    -0.1258550000
   26      H      -2.7948520000    -3.7638000000     0.7568020000
   27      H      -1.7414780000    -4.8603320000    -0.1770860000
   28      H      -2.7804400000    -3.6829540000    -1.0229300000
   29      H       3.7609510000    -1.8808700000     0.4580710000
   30      H       5.7340800000    -0.3518180000     0.3093890000
   31      H       5.3551220000     2.1016720000    -0.0738400000
   32      H       3.0150940000     2.9501840000    -0.3141740000
 ----------------------------------------------------------------

    9    -918.2822511112      6.13e-06  Convergence criterion met
 Total energy in the final basis set =     -918.2822511112

                    Orbital Energies (a.u.)
 --------------------------------------------------------------

 Alpha MOs
 -- Occupied --
-19.1284 -19.1284 -19.0155 -19.0154 -10.2049 -10.2049 -10.2028 -10.2028
-10.1769 -10.1769 -10.1490 -10.1486 -10.1448 -10.1447 -10.1421 -10.1418
-10.1389 -10.1384 -10.1343 -10.1339  -1.0466  -1.0459  -0.9447  -0.9418
 -0.8265  -0.8173  -0.7498  -0.7381  -0.7213  -0.7147  -0.6883  -0.6582
 -0.6338  -0.6013  -0.5895  -0.5536  -0.5341  -0.5153  -0.5050  -0.4884
 -0.4705  -0.4520  -0.4497  -0.4483  -0.4322  -0.4292  -0.4179  -0.4010
 -0.3986  -0.3848  -0.3828  -0.3747  -0.3724  -0.3576  -0.3502  -0.3479
 -0.3376  -0.3231  -0.3174  -0.3119  -0.3098  -0.3080  -0.3047  -0.2720
 -0.2290  -0.2250  -0.2162  -0.1952  -0.1885  -0.1867  -0.1001

          Ground-State Mulliken Net Atomic Charges

     Atom                 Charge (a.u.)
  ----------------------------------------
      1 C                    -0.309334
      2 O                    -0.170870
      3 C                    -0.159170
      4 C                    -0.450349
      5 C                    -0.458015
      6 C                    -0.165188
      7 O                    -0.170154
      8 C                    -0.311472
      9 C                     0.186590
     10 C                    -0.064408
     11 O                    -0.669148
     12 C                     0.121218
     13 C                     0.096568
     14 C                    -0.585768
     15 C                    -0.585982
     16 C                     0.097588
     17 C                     0.121975
     18 C                    -0.056495
     19 O                    -0.669092
     20 C                     0.191122
     21 H                     0.196959
     22 H                     0.145084
     23 H                     0.155156
     24 H                     0.192171
     25 H                     0.191651
     26 H                     0.155335
     27 H                     0.196814
     28 H                     0.145255
     29 H                     0.145403
     30 H                     0.170517
     31 H                     0.170595
     32 H                     0.145441
  ----------------------------------------
  Sum of atomic charges =    -2.000000

                    Cartesian Multipole Moments
 -----------------------------------------------------------------
    Charge (ESU x 10^10)
                -9.6064
    Dipole Moment (Debye)
         X     -12.0135      Y      -1.8903      Z      -0.2529
       Tot      12.1640
    Quadrupole Moments (Debye-Ang)
        XX    -140.1704     XY       5.1975     YY    -173.4333
        XZ      -1.5387     YZ       8.4711     ZZ    -130.7170

 Total job time:  227.44s(wall), 477.02s(cpu)
        *  Thank you very much for using Q-Chem.  Have a nice day.  *
