 Gaussian 16, Revision A.03,
 Gaussian 16:  ES64L-G16RevA.03 25-Dec-2016

 ----------------------------------------------------------------
 #P UB3LYP/6-311++G(d,p) SCRF=(PCM,Solvent=n,n-DiMethylFormamide)
 ----------------------------------------------------------------

 -------
 Reduced
 -------
 Symbolic Z-matrix:
 Charge = -2 Multiplicity = 1

                         Standard orientation:
 ---------------------------------------------------------------------
 Center     Atomic      Atomic             Coordinates (Angstroms)
 Number     Number       Type             X           Y           Z
 ---------------------------------------------------------------------
      1          6           0       -2.655121   -1.437563   -1.260538
      2          6           0       -2.563631   -0.541474    0.000143
      3          6           0       -2.653664   -1.436842    1.261430
      4          6           0       -3.796060    0.385120    0.000417
      5          6           0       -1.217882    0.220916   -0.000618
      6          6           0       -1.191584    1.626247   -0.000287
      7          6           0       -0.000033    2.412212   -0.000402
      8          8           0       -0.000037    3.716292    0.000058
      9          6           0        1.191529    1.626254   -0.000316
     10          6           0        1.217823    0.220914   -0.000648
     11          6           0       -0.000024   -0.549317   -0.001026
     12          8           0       -0.000024   -1.871875   -0.000692
     13          6           0        2.563630   -0.541450    0.000088
     14          6           0        2.655009   -1.437555   -1.260573
     15          6           0        3.796017    0.385183    0.000348
     16          6           0        2.653980   -1.436767    1.261378
     17          1           0       -3.576699   -2.043549   -1.249798
     18          1           0       -2.666214   -0.814683   -2.162988
     19          1           0       -1.780510   -2.091753   -1.286862
     20          1           0       -1.778703   -2.090638    1.287147
     21          1           0       -3.574991   -2.043250    1.251930
     22          1           0       -2.664137   -0.813458    2.163528
     23          1           0       -3.817846    1.030112   -0.883677
     24          1           0       -3.816813    1.031059    0.883829
     25          1           0       -4.710690   -0.225071    0.001267
     26          1           0       -2.117455    2.195652    0.000136
     27          1           0        2.117371    2.195690   -0.000023
     28          1           0        3.576532   -2.043629   -1.249886
     29          1           0        2.666077   -0.814695   -2.163045
     30          1           0        1.780300   -2.091639   -1.286756
     31          1           0        3.816899    1.030864    0.883941
     32          1           0        4.710645   -0.224999    0.000913
     33          1           0        3.817698    1.030425   -0.883549
     34          1           0        3.576045   -2.042061    1.252342
     35          1           0        2.663204   -0.813339    2.163458
     36          1           0        1.779830   -2.091632    1.286782
 ---------------------------------------------------------------------

 SCF Done:  E(UB3LYP) =  -696.398357203     A.U. after   16 cycles

 The electronic state is 1-A.
 Alpha  occ. eigenvalues --  -19.00510 -18.99089 -10.15643 -10.15643 -10.15391
 Alpha  occ. eigenvalues --  -10.15117 -10.13670 -10.13670 -10.12704 -10.12703
 Alpha  occ. eigenvalues --  -10.12703 -10.12702 -10.11923 -10.11922 -10.10573
 Alpha  occ. eigenvalues --  -10.10573  -0.91290  -0.90157  -0.79366  -0.79122
 Alpha  occ. eigenvalues --   -0.74522  -0.67594  -0.66103  -0.66092  -0.65555
 Alpha  occ. eigenvalues --   -0.65508  -0.62954  -0.56687  -0.54176  -0.49086
 Alpha  occ. eigenvalues --   -0.48587  -0.43422  -0.43309  -0.42273  -0.41242
 Alpha  occ. eigenvalues --   -0.41121  -0.40782  -0.40553  -0.38797  -0.37738
 Alpha  occ. eigenvalues --   -0.36473  -0.36048  -0.35297  -0.34894  -0.34390
 Alpha  occ. eigenvalues --   -0.34000  -0.32842  -0.32789  -0.31853  -0.30463
 Alpha  occ. eigenvalues --   -0.30415  -0.29898  -0.29865  -0.28676  -0.28394
 Alpha  occ. eigenvalues --   -0.27908  -0.20663  -0.19477  -0.18446  -0.16759
 Alpha  occ. eigenvalues --   -0.10564
 Alpha virt. eigenvalues --   -0.00113   0.00722   0.01609   0.01876   0.02563
 Alpha virt. eigenvalues --    0.02786   0.03056   0.03466   0.03987   0.04045
 Alpha virt. eigenvalues --    0.04475   0.04688   0.05464   0.06193   0.06348

  Beta  occ. eigenvalues --  -19.00510 -18.99089 -10.15643 -10.15643 -10.15391
  Beta  occ. eigenvalues --  -10.15117 -10.13670 -10.13670 -10.12704 -10.12703
  Beta  occ. eigenvalues --  -10.12703 -10.12702 -10.11923 -10.11922 -10.10573
  Beta  occ. eigenvalues --  -10.10573  -0.91290  -0.90157  -0.79366  -0.79122
  Beta  occ. eigenvalues --   -0.74522  -0.67594  -0.66103  -0.66092  -0.65555
  Beta  occ. eigenvalues --   -0.65508  -0.62954  -0.56687  -0.54176  -0.49086
  Beta  occ. eigenvalues --   -0.48587  -0.43422  -0.43309  -0.42273  -0.41242
  Beta  occ. eigenvalues --   -0.41121  -0.40782  -0.40553  -0.38797  -0.37738
  Beta  occ. eigenvalues --   -0.36473  -0.36048  -0.35297  -0.34894  -0.34390
  Beta  occ. eigenvalues --   -0.34000  -0.32842  -0.32789  -0.31853  -0.30463
  Beta  occ. eigenvalues --   -0.30415  -0.29898  -0.29865  -0.28676  -0.28394
  Beta  occ. eigenvalues --   -0.27908  -0.20663  -0.19477  -0.18446  -0.16759
  Beta  occ. eigenvalues --   -0.10564
  Beta virt. eigenvalues --   -0.00113   0.00722   0.01609   0.01876   0.02563
  Beta virt. eigenvalues --    0.02786   0.03056   0.03466   0.03987   0.04045
  Beta virt. eigenvalues --    0.04475   0.04688   0.05464   0.06193   0.06348

 Mulliken charges and spin densities:
               1          2
     1  C   -0.691951   0.000000
     2  C    0.865340  -0.000000
     3  C   -0.691943   0.000000
     4  C   -0.488451  -0.000000
     5  C    0.426097  -0.000000
     6  C   -0.351164   0.000000
     7  C   -0.701884   0.000000
     8  O   -0.760596  -0.000000
     9  C   -0.351171  -0.000000
    10  C    0.426224  -0.000000
    11  C   -0.750712   0.000000
    12  O   -0.619235  -0.000000
    13  C    0.865282  -0.000000
    14  C   -0.691933  -0.000000
    15  C   -0.488263  -0.000000
    16  C   -0.691978   0.000000
    17  H    0.126026  -0.000000
    18  H    0.116467   0.000000
    19  H    0.170699  -0.000000
    20  H    0.170708  -0.000000
    21  H    0.125939  -0.000000
    22  H    0.116455   0.000000
    23  H    0.120096   0.000000
    24  H    0.120087   0.000000
    25  H    0.153334   0.000000
    26  H    0.128373  -0.000000
    27  H    0.128381  -0.000000
    28  H    0.126034  -0.000000
    29  H    0.116462   0.000000
    30  H    0.170720  -0.000000
    31  H    0.120094   0.000000
    32  H    0.153313   0.000000
    33  H    0.120092   0.000000
    34  H    0.126001  -0.000000
    35  H    0.116498   0.000000
    36  H    0.170561  -0.000000
 Sum of Mulliken charges =  -2.00000  -0.00000

 Dipole moment (field-independent basis, Debye):
    X=              0.0007    Y=             -9.7165    Z=              0.0043  Tot=              9.7165
 Quadrupole moment (field-independent basis, Debye-Ang):
   XX=           -123.5592   YY=           -185.3121   ZZ=           -114.7700
   XY=             -0.0001   XZ=              0.0009   YZ=             -0.0038

 Normal termination of Gaussian 16 at Sun Jan 21 07:45:10 2024.
