 Gaussian 16, Revision A.03,
 Gaussian 16:  ES64L-G16RevA.03 25-Dec-2016

 ----------------------------------------------------------------------
 #P UB3LYP/6-311++G(d,p) nosym opt freq SCRF=(PCM,Solvent=n,n-DiMethylF
 ormamide)
 ----------------------------------------------------------------------

 -------
 Reduced
 -------
 Symbolic Z-matrix:
 Charge = -3 Multiplicity = 1

 SCF Done:  E(UB3LYP) =  -1158.97571326     A.U. after   17 cycles
 SCF Done:  E(UB3LYP) =  -1158.97852581     A.U. after   14 cycles
 SCF Done:  E(UB3LYP) =  -1158.97886746     A.U. after   13 cycles
 SCF Done:  E(UB3LYP) =  -1158.97892110     A.U. after   13 cycles
 SCF Done:  E(UB3LYP) =  -1158.97896860     A.U. after   12 cycles
 SCF Done:  E(UB3LYP) =  -1158.97897623     A.U. after   12 cycles
 SCF Done:  E(UB3LYP) =  -1158.97897943     A.U. after   11 cycles
 SCF Done:  E(UB3LYP) =  -1158.97897991     A.U. after   10 cycles
 SCF Done:  E(UB3LYP) =  -1158.97898001     A.U. after    9 cycles
 Optimization completed.
    -- Stationary point found.
 Normal termination of Gaussian 16 at Sun Feb 11 16:47:32 2024.

 ----------------------------------------------------------------------
 #P Geom=AllCheck Guess=TCheck SCRF=Check GenChk UB3LYP/6-311++G(d,p) F
 req
 ----------------------------------------------------------------------

 Structure from the checkpoint file:  "326-an.chk"
 -------
 Reduced
 -------
 Charge = -3 Multiplicity = 1

                          Input orientation:
 ---------------------------------------------------------------------
 Center     Atomic      Atomic             Coordinates (Angstroms)
 Number     Number       Type             X           Y           Z
 ---------------------------------------------------------------------
      1          6           0       -1.827097    2.788587   -0.795866
      2          6           0       -2.916206    1.994412   -0.517452
      3          6           0       -2.713666    0.666092   -0.060748
      4          6           0       -0.486633    2.330308   -0.647199
      5          6           0       -0.282990    0.969682   -0.186399
      6          6           0       -1.435049    0.178658    0.097246
      7          6           0        0.601353    3.235387   -0.965047
      8          6           0        1.961621    2.728303   -0.824605
      9          6           0        2.109234    1.389744   -0.372700
     10          6           0        1.055930    0.526887   -0.055194
     11          8           0        0.367386    4.443589   -1.360587
     12          8           0        3.003702    3.464879   -1.101375
     13          1           0       -1.961989    3.806047   -1.144859
     14          1           0       -3.923870    2.378211   -0.645183
     15          1           0       -3.565659    0.032134    0.164723
     16          1           0       -1.293637   -0.835093    0.449458
     17          1           0        3.123994    1.020764   -0.268574
     18         16           0        1.456090   -1.141955    0.480648
     19          8           0        2.950985   -1.237122    0.523212
     20          8           0        0.872848   -2.099926   -0.520897
     21          8           0        0.853004   -1.350989    1.841670
 ---------------------------------------------------------------------

 SCF Done:  E(UB3LYP) =  -1158.97898001     A.U. after    2 cycles

 Alpha  occ. eigenvalues --  -89.01986 -19.06652 -19.06485 -19.06476 -19.01956
 Alpha  occ. eigenvalues --  -19.01191 -10.16933 -10.16331 -10.15172 -10.15020
 Alpha  occ. eigenvalues --  -10.14690 -10.14617 -10.14513 -10.14252 -10.13678
 Alpha  occ. eigenvalues --  -10.12771  -8.07883  -6.04185  -6.04160  -6.04002
 Alpha  occ. eigenvalues --   -1.07879  -0.94326  -0.93985  -0.93929  -0.90654
 Alpha  occ. eigenvalues --   -0.83082  -0.77663  -0.72558  -0.69658  -0.66521
 Alpha  occ. eigenvalues --   -0.59357  -0.58578  -0.55918  -0.52262  -0.47958
 Alpha  occ. eigenvalues --   -0.47117  -0.45392  -0.42913  -0.42709  -0.41608
 Alpha  occ. eigenvalues --   -0.40626  -0.39684  -0.37908  -0.37224  -0.35761
 Alpha  occ. eigenvalues --   -0.34400  -0.32805  -0.31892  -0.31809  -0.31103
 Alpha  occ. eigenvalues --   -0.30581  -0.29969  -0.27285  -0.27027  -0.26470
 Alpha  occ. eigenvalues --   -0.25293  -0.23243  -0.22586  -0.20189  -0.19086
 Alpha  occ. eigenvalues --   -0.18326  -0.11915
 Alpha virt. eigenvalues --   -0.01072   0.00553   0.01742   0.02112   0.02258
 Alpha virt. eigenvalues --    0.03690   0.04036   0.04909   0.05424   0.05522
 Alpha virt. eigenvalues --    0.06454   0.06712   0.06886   0.08380   0.08740

  Beta  occ. eigenvalues --  -89.01986 -19.06652 -19.06485 -19.06476 -19.01956
  Beta  occ. eigenvalues --  -19.01191 -10.16933 -10.16331 -10.15172 -10.15020
  Beta  occ. eigenvalues --  -10.14690 -10.14617 -10.14513 -10.14252 -10.13678
  Beta  occ. eigenvalues --  -10.12771  -8.07883  -6.04185  -6.04160  -6.04002
  Beta  occ. eigenvalues --   -1.07879  -0.94326  -0.93985  -0.93929  -0.90654
  Beta  occ. eigenvalues --   -0.83082  -0.77663  -0.72558  -0.69658  -0.66521
  Beta  occ. eigenvalues --   -0.59357  -0.58578  -0.55918  -0.52262  -0.47958
  Beta  occ. eigenvalues --   -0.47117  -0.45392  -0.42913  -0.42709  -0.41608
  Beta  occ. eigenvalues --   -0.40626  -0.39684  -0.37908  -0.37224  -0.35761
  Beta  occ. eigenvalues --   -0.34400  -0.32805  -0.31892  -0.31809  -0.31103
  Beta  occ. eigenvalues --   -0.30581  -0.29969  -0.27285  -0.27027  -0.26470
  Beta  occ. eigenvalues --   -0.25293  -0.23243  -0.22586  -0.20189  -0.19086
  Beta  occ. eigenvalues --   -0.18326  -0.11915
  Beta virt. eigenvalues --   -0.01072   0.00553   0.01742   0.02112   0.02258
  Beta virt. eigenvalues --    0.03690   0.04036   0.04909   0.05424   0.05522
  Beta virt. eigenvalues --    0.06454   0.06712   0.06886   0.08380   0.08740

 Mulliken charges and spin densities:
               1          2
     1  C    0.103021   0.000000
     2  C   -0.502294   0.000000
     3  C   -0.866241   0.000000
     4  C    0.605878  -0.000000
     5  C    0.877631  -0.000000
     6  C   -0.575919   0.000000
     7  C   -0.675026   0.000000
     8  C   -0.037803  -0.000000
     9  C    0.219960  -0.000000
    10  C   -0.878921  -0.000000
    11  O   -0.670863  -0.000000
    12  O   -0.738645   0.000000
    13  H    0.143489   0.000000
    14  H    0.155062   0.000000
    15  H    0.159268  -0.000000
    16  H    0.135598   0.000000
    17  H    0.200699  -0.000000
    18  S    0.629591  -0.000000
    19  O   -0.399079  -0.000000
    20  O   -0.441051  -0.000000
    21  O   -0.444354  -0.000000
 Sum of Mulliken charges =  -3.00000  -0.00000

 Dipole moment (field-independent basis, Debye):
    X=            -19.7319    Y=            -19.3344    Z=              5.0856  Tot=             28.0897
 Quadrupole moment (field-independent basis, Debye-Ang):
   XX=           -170.3838   YY=           -242.8379   ZZ=           -133.5477
   XY=            -27.3158   XZ=              7.7466   YZ=             38.8183

  Exact polarizability: 376.720  12.303 316.628  -7.297 -54.491 174.209
 Approx polarizability: 428.862  18.251 353.297  -9.795 -61.244 194.116

                      1                      2                      3
                      A                      A                      A
 Frequencies --     57.0219                91.9145               122.5453
 Red. masses --     14.1200                 7.6488                 8.3239
 Frc consts  --      0.0271                 0.0381                 0.0736
 IR Inten    --      6.2800                 5.0273                 0.0497

                      4                      5                      6
                      A                      A                      A
 Frequencies --    140.6600               150.5080               231.3345
 Red. masses --      4.8341                 8.9076                 6.2091
 Frc consts  --      0.0564                 0.1189                 0.1958
 IR Inten    --      4.8791                11.0027                 0.2551

                      7                      8                      9
                      A                      A                      A
 Frequencies --    241.1008               284.4563               287.5447
 Red. masses --     12.1456                 7.7483                 9.8901
 Frc consts  --      0.4160                 0.3694                 0.4818
 IR Inten    --      5.0274                 3.1317                 0.5357

                     10                     11                     12
                      A                      A                      A
 Frequencies --    324.7621               367.2591               394.3559
 Red. masses --      9.4412                14.3048                 8.1364
 Frc consts  --      0.5867                 1.1368                 0.7455
 IR Inten    --      9.4522                 4.7032                 1.1482

                     13                     14                     15
                      A                      A                      A
 Frequencies --    431.8422               439.2484               482.3230
 Red. masses --      3.4701                 9.2509                 8.0442
 Frc consts  --      0.3813                 1.0516                 1.1026
 IR Inten    --      2.9780                51.4334                35.3229

                     16                     17                     18
                      A                      A                      A
 Frequencies --    495.8892               509.7300               522.3413
 Red. masses --     15.4045                10.9489                 3.5197
 Frc consts  --      2.2319                 1.6761                 0.5658
 IR Inten    --     52.2530                62.1324                 9.9121

                     19                     20                     21
                      A                      A                      A
 Frequencies --    581.0688               595.9862               632.3423
 Red. masses --     13.0189                 4.8276                 8.4133
 Frc consts  --      2.5899                 1.0103                 1.9821
 IR Inten    --    314.7847                 1.6888               197.8389

                     22                     23                     24
                      A                      A                      A
 Frequencies --    661.5114               716.9357               717.7328
 Red. masses --      6.5559                 4.2755                 5.4506
 Frc consts  --      1.6903                 1.2948                 1.6543
 IR Inten    --     29.0011                14.3856                14.7750

                     25                     26                     27
                      A                      A                      A
 Frequencies --    743.2642               777.7351               783.9352
 Red. masses --      1.6429                 4.4299                 6.5141
 Frc consts  --      0.5347                 1.5787                 2.3586
 IR Inten    --    112.4531                 5.0324                11.9842

                     28                     29                     30
                      A                      A                      A
 Frequencies --    837.4092               867.9125               914.1218
 Red. masses --      1.4846                 1.4001                 7.2871
 Frc consts  --      0.6134                 0.6214                 3.5877
 IR Inten    --      1.4484                37.8467                83.6996

                     31                     32                     33
                      A                      A                      A
 Frequencies --    953.0885               967.5194               971.0536
 Red. masses --      1.3420                 9.8287                 1.2646
 Frc consts  --      0.7182                 5.4208                 0.7026
 IR Inten    --      0.8265               679.1471                 1.4505

                     34                     35                     36
                      A                      A                      A
 Frequencies --    989.6999              1032.9707              1062.9545
 Red. masses --      7.7716                 2.1327                19.4613
 Frc consts  --      4.4851                 1.3408                12.9554
 IR Inten    --    138.1621                31.4748               626.2109

                     37                     38                     39
                      A                      A                      A
 Frequencies --   1081.9461              1119.3244              1148.2116
 Red. masses --     17.5579                 2.0327                 1.3658
 Frc consts  --     12.1097                 1.5005                 1.0609
 IR Inten    --    505.9676               131.5776               129.0329

                     40                     41                     42
                      A                      A                      A
 Frequencies --   1179.8613              1229.5870              1257.5118
 Red. masses --      1.4235                 2.1253                 3.9022
 Frc consts  --      1.1676                 1.8932                 3.6356
 IR Inten    --     83.7441                76.2125                53.4647

                     43                     44                     45
                      A                      A                      A
 Frequencies --   1281.3652              1308.7641              1344.1177
 Red. masses --      3.3627                 4.7938                 6.4724
 Frc consts  --      3.2530                 4.8379                 6.8896
 IR Inten    --    441.1034              1587.6895               140.4755

                     46                     47                     48
                      A                      A                      A
 Frequencies --   1403.2801              1409.6266              1464.1176
 Red. masses --      2.5354                 6.6333                 2.7927
 Frc consts  --      2.9417                 7.7659                 3.5272
 IR Inten    --    241.3705               864.0433               205.4241

                     49                     50                     51
                      A                      A                      A
 Frequencies --   1499.5125              1533.7789              1546.4564
 Red. masses --      2.9734                 7.7680                 5.9266
 Frc consts  --      3.9392                10.7667                 8.3508
 IR Inten    --    207.4333               408.8811                76.7927

                     52                     53                     54
                      A                      A                      A
 Frequencies --   1618.5218              3139.9902              3156.5487
 Red. masses --      5.2480                 1.0850                 1.0904
 Frc consts  --      8.0999                 6.3028                 6.4011
 IR Inten    --      1.7186                22.2006                47.0238

                     55                     56                     57
                      A                      A                      A
 Frequencies --   3158.9370              3174.8258              3192.2518
 Red. masses --      1.0876                 1.0923                 1.0919
 Frc consts  --      6.3947                 6.4868                 6.5560
 IR Inten    --     31.2789                49.8965                23.2404

 - Thermochemistry -
 -------------------
 Temperature   298.150 Kelvin.  Pressure   1.00000 Atm.
 Atom     1 has atomic number  6 and mass  12.00000

 Molecular mass:   236.98577 amu.
 Principal axes and moments of inertia in atomic units:
                           1         2         3
     Eigenvalues --  2614.303244116.674426379.98378
           X           -0.35631   0.93425   0.01475
           Y            0.88756   0.33349   0.31783
           Z           -0.29202  -0.12633   0.94803
 This molecule is an asymmetric top.
 Rotational symmetry number  1.
 Warning -- assumption of classical behavior for rotation
           may cause significant error
 Rotational temperatures (Kelvin)      0.03313     0.02104     0.01358
 Rotational constants (GHZ):           0.69033     0.43840     0.28288
 Zero-point vibrational energy     344707.6 (Joules/Mol)
                                   82.38710 (Kcal/Mol)
 Warning -- explicit consideration of  20 degrees of freedom as
           vibrations may cause significant error
 Vibrational temperatures:     82.04   132.24   176.32   202.38   216.55
          (Kelvin)            332.84   346.89   409.27   413.71   467.26
                              528.40   567.39   621.32   631.98   693.96
                              713.47   733.39   751.53   836.03   857.49
                              909.80   951.77  1031.51  1032.66  1069.39
                             1118.99  1127.91  1204.85  1248.73  1315.22
                             1371.28  1392.04  1397.13  1423.96  1486.21
                             1529.35  1556.68  1610.46  1652.02  1697.56
                             1769.10  1809.28  1843.60  1883.02  1933.89
                             2019.01  2028.14  2106.54  2157.46  2206.77
                             2225.01  2328.69  4517.75  4541.57  4545.01
                             4567.87  4592.94

 Zero-point correction=                           0.131292 (Hartree/Particle)
 Thermal correction to Energy=                    0.143742
 Thermal correction to Enthalpy=                  0.144686
 Thermal correction to Gibbs Free Energy=         0.092247
 Sum of electronic and zero-point Energies=          -1158.847688
 Sum of electronic and thermal Energies=             -1158.835238
 Sum of electronic and thermal Enthalpies=           -1158.834294
 Sum of electronic and thermal Free Energies=        -1158.886733

                     E (Thermal)             CV                S
                      KCal/Mol        Cal/Mol-Kelvin    Cal/Mol-Kelvin
 Total                   90.199             48.974            110.367
 Electronic               0.000              0.000              0.000
 Translational            0.889              2.981             42.290
 Rotational               0.889              2.981             32.596
 Vibrational             88.422             43.013             35.482
 Vibration     1          0.596              1.975              4.558
 Vibration     2          0.602              1.955              3.619
 Vibration     3          0.610              1.930              3.060
 Vibration     4          0.615              1.913              2.795
 Vibration     5          0.618              1.902              2.666
 Vibration     6          0.653              1.793              1.869
 Vibration     7          0.658              1.777              1.795
 Vibration     8          0.683              1.703              1.507
 Vibration     9          0.685              1.697              1.488
 Vibration    10          0.709              1.626              1.286
 Vibration    11          0.740              1.540              1.091
 Vibration    12          0.761              1.482              0.984
 Vibration    13          0.793              1.401              0.853
 Vibration    14          0.799              1.385              0.829
 Vibration    15          0.839              1.289              0.704
 Vibration    16          0.851              1.259              0.668
 Vibration    17          0.865              1.228              0.634
 Vibration    18          0.877              1.201              0.605
 Vibration    19          0.938              1.072              0.483
 Vibration    20          0.954              1.040              0.457

 Optimization completed.
    -- Stationary point found.
 Normal termination of Gaussian 16 at Sun Feb 11 17:14:33 2024.
