 Q-Chem 5.4, Q-Chem, Inc., Pleasanton, CA (2021)
 Q-Chem 5.4.0 for Intel X86 EM64T Linux

User input:
--------------------------------------------------------------
$molecule
-2 1
O                  1.6785220000      2.5044150000      0.4037070000
C                  1.4094960000      1.2579520000      0.2094230000
C                  0.0512110000      0.7205330000      0.2067770000
C                 -1.0310470000      1.6009060000      0.4267980000
C                 -2.3520640000      1.1817160000      0.4419720000
C                 -2.6511660000     -0.1945770000      0.2280050000
C                 -1.6251620000     -1.0925180000      0.0085650000
C                 -0.2600860000     -0.6952830000     -0.0132080000
C                  0.7834000000     -1.6335380000     -0.2406280000
O                  0.6857830000     -2.9366790000     -0.4552060000
C                  2.0784900000     -1.0793800000     -0.2310420000
O                  3.0875940000     -2.0142270000     -0.4553700000
C                  2.4005720000      0.2622720000     -0.0241960000
O                  3.7586810000      0.6136500000     -0.0528400000
H                 -0.7712050000      2.6440350000      0.5867760000
H                 -3.1551020000      1.8970320000      0.6157870000
H                 -3.6858420000     -0.5373150000      0.2374550000
H                 -1.8312950000     -2.1468320000     -0.1569420000
H                  2.5020060000     -2.8172160000     -0.5534390000
H                  4.2141350000     -0.2200000000     -0.2232610000
$end
$rem
MAX_SCF_CYCLES=200
BASIS  =  6-311++G(d,p)
GUI  =  2
JOB_TYPE  =  SP
METHOD  =  B3LYP
SOLVENT_METHOD = PCM
$end
$pcm
theory = CPCM
$end
$solvent
dielectric 37.219
opticaldielectric 1.43
$end

--------------------------------------------------------------

             Standard Nuclear Orientation (Angstroms)
    I     Atom           X                Y                Z
 ----------------------------------------------------------------
    1      O       1.6785220000     2.5044150000     0.4037070000
    2      C       1.4094960000     1.2579520000     0.2094230000
    3      C       0.0512110000     0.7205330000     0.2067770000
    4      C      -1.0310470000     1.6009060000     0.4267980000
    5      C      -2.3520640000     1.1817160000     0.4419720000
    6      C      -2.6511660000    -0.1945770000     0.2280050000
    7      C      -1.6251620000    -1.0925180000     0.0085650000
    8      C      -0.2600860000    -0.6952830000    -0.0132080000
    9      C       0.7834000000    -1.6335380000    -0.2406280000
   10      O       0.6857830000    -2.9366790000    -0.4552060000
   11      C       2.0784900000    -1.0793800000    -0.2310420000
   12      O       3.0875940000    -2.0142270000    -0.4553700000
   13      C       2.4005720000     0.2622720000    -0.0241960000
   14      O       3.7586810000     0.6136500000    -0.0528400000
   15      H      -0.7712050000     2.6440350000     0.5867760000
   16      H      -3.1551020000     1.8970320000     0.6157870000
   17      H      -3.6858420000    -0.5373150000     0.2374550000
   18      H      -1.8312950000    -2.1468320000    -0.1569420000
   19      H       2.5020060000    -2.8172160000    -0.5534390000
   20      H       4.2141350000    -0.2200000000    -0.2232610000
 ----------------------------------------------------------------

    9    -686.0265636563      3.77e-06  Convergence criterion met
 Total energy in the final basis set =     -686.0265636563

                    Orbital Energies (a.u.)
 --------------------------------------------------------------

 Alpha MOs
 -- Occupied --
-19.1276 -19.1216 -19.0356 -19.0255 -10.1862 -10.1838 -10.1806 -10.1713
-10.1495 -10.1477 -10.1470 -10.1463 -10.1434 -10.1407  -1.0418  -1.0172
 -0.9391  -0.9298  -0.8255  -0.7675  -0.7251  -0.6987  -0.6508  -0.5921
 -0.5860  -0.5449  -0.5240  -0.4920  -0.4740  -0.4473  -0.4270  -0.4080
 -0.4058  -0.3980  -0.3863  -0.3760  -0.3631  -0.3538  -0.3522  -0.3440
 -0.3255  -0.3081  -0.3063  -0.3012  -0.2322  -0.2282  -0.2243  -0.2069
 -0.1884  -0.1187

          Ground-State Mulliken Net Atomic Charges

     Atom                 Charge (a.u.)
  ----------------------------------------
      1 O                    -0.723703
      2 C                    -0.539251
      3 C                     0.461717
      4 C                     0.087629
      5 C                    -0.520520
      6 C                    -0.381156
      7 C                    -0.100322
      8 C                     0.491759
      9 C                    -0.863611
     10 O                    -0.754376
     11 C                     0.134680
     12 O                    -0.400393
     13 C                     0.253049
     14 O                    -0.389165
     15 H                     0.142281
     16 H                     0.170334
     17 H                     0.177582
     18 H                     0.143666
     19 H                     0.299732
     20 H                     0.310070
  ----------------------------------------
  Sum of atomic charges =    -2.000000

                    Cartesian Multipole Moments
 -----------------------------------------------------------------
    Charge (ESU x 10^10)
                -9.6064
    Dipole Moment (Debye)
         X     -10.8216      Y      -0.6545      Z      -0.2484
       Tot      10.8443
    Quadrupole Moments (Debye-Ang)
        XX    -118.3779     XY     -12.4369     YY    -141.7129
        XZ      -1.2859     YZ      -7.8037     ZZ     -92.5578

 Total job time:  296.13s(wall), 182.06s(cpu)
        *  Thank you very much for using Q-Chem.  Have a nice day.  *
