 Gaussian 16, Revision A.03,
 Gaussian 16:  ES64L-G16RevA.03 25-Dec-2016

 ----------------------------------------------------------------------
 #P UB3LYP/6-311++G(d,p) nosym opt freq SCRF=(PCM,Solvent=n,n-DiMethylF
 ormamide)
 ----------------------------------------------------------------------

 --------
 Oxidized
 --------
 Symbolic Z-matrix:
 Charge =  0 Multiplicity = 1

 SCF Done:  E(UB3LYP) =  -692.583139480     A.U. after   14 cycles
 SCF Done:  E(UB3LYP) =  -692.583241772     A.U. after   10 cycles
 SCF Done:  E(UB3LYP) =  -692.583254189     A.U. after   10 cycles
 SCF Done:  E(UB3LYP) =  -692.583254641     A.U. after    8 cycles
 SCF Done:  E(UB3LYP) =  -692.583255170     A.U. after    8 cycles
 SCF Done:  E(UB3LYP) =  -692.583255204     A.U. after    8 cycles
 Optimization completed.
    -- Stationary point found.
 Normal termination of Gaussian 16 at Sun Feb 11 00:18:21 2024.

 ----------------------------------------------------------------------
 #P Geom=AllCheck Guess=TCheck SCRF=Check GenChk UB3LYP/6-311++G(d,p) F
 req
 ----------------------------------------------------------------------

 Structure from the checkpoint file:  "256.chk"
 --------
 Oxidized
 --------
 Charge =  0 Multiplicity = 1

                          Input orientation:
 ---------------------------------------------------------------------
 Center     Atomic      Atomic             Coordinates (Angstroms)
 Number     Number       Type             X           Y           Z
 ---------------------------------------------------------------------
      1          6           0       -1.553476    2.788761   -0.057652
      2          6           0       -2.821198    2.205847   -0.025389
      3          6           0       -2.926934    0.797185    0.044443
      4          6           0       -0.391391    2.016498   -0.023542
      5          6           0       -0.496126    0.621720    0.044484
      6          6           0       -1.760459    0.031616    0.077750
      7          6           0        0.942337    2.668061   -0.059376
      8          6           0        2.159814    1.802966   -0.021846
      9          6           0        2.058270    0.451576    0.043459
     10          6           0        0.725221   -0.221839    0.080518
     11          8           0        1.048001    3.889131   -0.117196
     12          8           0        0.647144   -1.444941    0.139710
     13          6           0        3.493106    2.494844   -0.060219
     14          6           0        3.273047   -0.431911    0.082495
     15          1           0       -1.456966    3.866711   -0.110642
     16          6           0       -4.053440    3.071651   -0.065600
     17          6           0       -4.274489    0.124703    0.083327
     18          1           0        3.367478    3.574481   -0.103743
     19          1           0        4.072493    2.173961   -0.931666
     20          1           0        4.086515    2.245588    0.824917
     21          1           0        3.892002   -0.203183    0.955799
     22          1           0        3.898971   -0.272203   -0.800894
     23          1           0        2.987241   -1.480719    0.123224
     24          1           0       -1.825881   -1.048646    0.130660
     25          1           0       -3.789527    4.128576   -0.113414
     26          1           0       -4.677343    2.915595    0.820058
     27          1           0       -4.675180    2.835999   -0.935178
     28          1           0       -4.855425    0.450877    0.951875
     29          1           0       -4.170698   -0.959672    0.132015
     30          1           0       -4.866974    0.371201   -0.803384
 ---------------------------------------------------------------------

 SCF Done:  E(UB3LYP) =  -692.583255204     A.U. after    1 cycles

 Alpha  occ. eigenvalues --  -19.13069 -19.13067 -10.27944 -10.27944 -10.21120
 Alpha  occ. eigenvalues --  -10.21049 -10.20338 -10.20291 -10.20117 -10.20065
 Alpha  occ. eigenvalues --  -10.19130 -10.19128 -10.17337 -10.17336 -10.17252
 Alpha  occ. eigenvalues --  -10.17250  -1.06255  -1.06065  -0.89035  -0.85331
 Alpha  occ. eigenvalues --   -0.80746  -0.78578  -0.74823  -0.72392  -0.72301
 Alpha  occ. eigenvalues --   -0.67660  -0.65968  -0.62057  -0.59569  -0.58090
 Alpha  occ. eigenvalues --   -0.54063  -0.50355  -0.50099  -0.47029  -0.46406
 Alpha  occ. eigenvalues --   -0.45597  -0.44778  -0.44729  -0.44551  -0.42296
 Alpha  occ. eigenvalues --   -0.42028  -0.41512  -0.41207  -0.40834  -0.39969
 Alpha  occ. eigenvalues --   -0.39806  -0.39759  -0.38631  -0.38284  -0.36192
 Alpha  occ. eigenvalues --   -0.35903  -0.35719  -0.28767  -0.28401  -0.27189
 Alpha  occ. eigenvalues --   -0.27044  -0.25960
 Alpha virt. eigenvalues --   -0.12163  -0.05038  -0.02616  -0.01013  -0.00275
 Alpha virt. eigenvalues --    0.00876   0.01889   0.01988   0.02291   0.03306
 Alpha virt. eigenvalues --    0.03381   0.03499   0.04092   0.04384   0.04814

  Beta  occ. eigenvalues --  -19.13069 -19.13067 -10.27944 -10.27944 -10.21120
  Beta  occ. eigenvalues --  -10.21049 -10.20338 -10.20291 -10.20117 -10.20065
  Beta  occ. eigenvalues --  -10.19130 -10.19128 -10.17337 -10.17336 -10.17252
  Beta  occ. eigenvalues --  -10.17250  -1.06255  -1.06065  -0.89035  -0.85331
  Beta  occ. eigenvalues --   -0.80746  -0.78578  -0.74823  -0.72392  -0.72301
  Beta  occ. eigenvalues --   -0.67660  -0.65968  -0.62057  -0.59569  -0.58090
  Beta  occ. eigenvalues --   -0.54063  -0.50355  -0.50099  -0.47029  -0.46406
  Beta  occ. eigenvalues --   -0.45597  -0.44778  -0.44729  -0.44551  -0.42296
  Beta  occ. eigenvalues --   -0.42028  -0.41512  -0.41207  -0.40834  -0.39969
  Beta  occ. eigenvalues --   -0.39806  -0.39759  -0.38631  -0.38284  -0.36192
  Beta  occ. eigenvalues --   -0.35903  -0.35719  -0.28767  -0.28401  -0.27189
  Beta  occ. eigenvalues --   -0.27044  -0.25960
  Beta virt. eigenvalues --   -0.12163  -0.05038  -0.02616  -0.01013  -0.00275
  Beta virt. eigenvalues --    0.00876   0.01889   0.01988   0.02291   0.03306
  Beta virt. eigenvalues --    0.03381   0.03499   0.04092   0.04384   0.04814

 Mulliken charges and spin densities:
               1          2
     1  C   -0.228801  -0.000000
     2  C    0.286738  -0.000000
     3  C    0.286648  -0.000000
     4  C    0.129730   0.000000
     5  C    0.129586   0.000000
     6  C   -0.228309  -0.000000
     7  C   -0.672939   0.000000
     8  C    0.445936  -0.000000
     9  C    0.446135   0.000000
    10  C   -0.671546   0.000000
    11  O   -0.292683  -0.000000
    12  O   -0.292947   0.000000
    13  C   -0.407388   0.000000
    14  C   -0.406961   0.000000
    15  H    0.145689   0.000000
    16  C   -0.474512  -0.000000
    17  C   -0.474268   0.000000
    18  H    0.197870   0.000000
    19  H    0.174745  -0.000000
    20  H    0.173303  -0.000000
    21  H    0.174983   0.000000
    22  H    0.173095   0.000000
    23  H    0.197971  -0.000000
    24  H    0.145096  -0.000000
    25  H    0.184547   0.000000
    26  H    0.167957  -0.000000
    27  H    0.168913  -0.000000
    28  H    0.168884  -0.000000
    29  H    0.184585   0.000000
    30  H    0.167945  -0.000000
 Sum of Mulliken charges =  -0.00000  -0.00000

 Dipole moment (field-independent basis, Debye):
    X=             -2.0675    Y=              0.1572    Z=             -0.0040  Tot=              2.0734
 Quadrupole moment (field-independent basis, Debye-Ang):
   XX=            -67.2203   YY=           -111.6039   ZZ=            -95.1802
   XY=             -6.0428   XZ=              0.0459   YZ=              0.7942

  Exact polarizability: 309.295  -1.301 291.773  -0.546  -7.843 131.407
 Approx polarizability: 317.502   4.526 377.233  -0.751 -10.848 155.137

                      1                      2                      3
                      A                      A                      A
 Frequencies --     18.7555                42.5319                72.8123
 Red. masses --      1.0813                 5.1752                 3.6226
 Frc consts  --      0.0002                 0.0055                 0.0113
 IR Inten    --      0.0050                13.5753                 0.0020

                      4                      5                      6
                      A                      A                      A
 Frequencies --     90.8578               104.7144               118.8594
 Red. masses --      1.0890                 3.1031                 3.4497
 Frc consts  --      0.0053                 0.0200                 0.0287
 IR Inten    --      0.0598                 0.0011                 0.9803

                      7                      8                      9
                      A                      A                      A
 Frequencies --    128.1466               168.4403               184.6911
 Red. masses --      1.0429                 1.1301                 4.0659
 Frc consts  --      0.0101                 0.0189                 0.0817
 IR Inten    --      0.0036                 1.6520                 1.3699

                     10                     11                     12
                      A                      A                      A
 Frequencies --    217.7987               244.9582               293.9427
 Red. masses --      3.5264                 3.2586                 2.7269
 Frc consts  --      0.0986                 0.1152                 0.1388
 IR Inten    --      0.0027                 1.7332                 1.2690

                     13                     14                     15
                      A                      A                      A
 Frequencies --    316.4966               329.5368               342.3735
 Red. masses --      2.6334                 3.8394                 4.2547
 Frc consts  --      0.1554                 0.2457                 0.2938
 IR Inten    --      0.0135                 2.0403                 5.2954

                     16                     17                     18
                      A                      A                      A
 Frequencies --    353.7145               377.8787               424.1420
 Red. masses --      5.2322                 5.3231                 8.1130
 Frc consts  --      0.3857                 0.4478                 0.8599
 IR Inten    --      2.4623                 0.0269                56.1375

                     19                     20                     21
                      A                      A                      A
 Frequencies --    442.5071               461.6496               464.3886
 Red. masses --      2.8374                 3.7280                 4.2998
 Frc consts  --      0.3274                 0.4681                 0.5463
 IR Inten    --      6.9169                 0.0020                 0.0048

                     22                     23                     24
                      A                      A                      A
 Frequencies --    497.2566               570.0935               584.6499
 Red. masses --      9.9701                 4.3033                 4.3373
 Frc consts  --      1.4525                 0.8240                 0.8735
 IR Inten    --      0.2882                 1.5040                 0.0004

                     25                     26                     27
                      A                      A                      A
 Frequencies --    669.9400               672.8684               704.3737
 Red. masses --      4.5930                 5.9287                 3.6076
 Frc consts  --      1.2146                 1.5815                 1.0546
 IR Inten    --      2.9721                 9.2411                 0.0005

                     28                     29                     30
                      A                      A                      A
 Frequencies --    737.3192               743.1214               760.6070
 Red. masses --      5.2540                 3.8177                 4.6077
 Frc consts  --      1.6829                 1.2421                 1.5706
 IR Inten    --     42.9082                 0.1865                 6.8889

                     31                     32                     33
                      A                      A                      A
 Frequencies --    786.6138               906.9284               924.9153
 Red. masses --      6.0946                 3.4337                 1.3430
 Frc consts  --      2.2219                 1.6640                 0.6769
 IR Inten    --      0.0010                10.2380                 0.3053

                     34                     35                     36
                      A                      A                      A
 Frequencies --    925.2297               928.5054              1009.3574
 Red. masses --      1.3601                 2.7600                 1.3979
 Frc consts  --      0.6860                 1.4020                 0.8391
 IR Inten    --     17.0907                45.3135                89.6189

                     37                     38                     39
                      A                      A                      A
 Frequencies --   1019.2175              1034.5264              1035.1902
 Red. masses --      1.4670                 1.6117                 1.5524
 Frc consts  --      0.8979                 1.0163                 0.9802
 IR Inten    --      0.9612                80.7288                10.1770

                     40                     41                     42
                      A                      A                      A
 Frequencies --   1045.4195              1054.5525              1067.7575
 Red. masses --      1.4730                 1.5563                 1.6416
 Frc consts  --      0.9485                 1.0197                 1.1027
 IR Inten    --     15.0833                 0.0062                 0.0081

                     43                     44                     45
                      A                      A                      A
 Frequencies --   1103.6073              1125.5114              1164.4786
 Red. masses --      5.9056                 2.2971                 2.1271
 Frc consts  --      4.2379                 1.7145                 1.6994
 IR Inten    --     17.3099                 0.0002                23.6426

                     46                     47                     48
                      A                      A                      A
 Frequencies --   1207.5645              1233.4116              1271.2329
 Red. masses --      5.0339                 3.0292                 1.3138
 Frc consts  --      4.3249                 2.7152                 1.2509
 IR Inten    --      4.4908                29.4410                18.5459

                     49                     50                     51
                      A                      A                      A
 Frequencies --   1306.8108              1317.0176              1353.4853
 Red. masses --      4.5255                 8.4477                 6.4373
 Frc consts  --      4.5535                 8.6332                 6.9480
 IR Inten    --    143.9821               763.7247                26.2041

                     52                     53                     54
                      A                      A                      A
 Frequencies --   1394.1448              1399.1657              1406.7026
 Red. masses --      1.3041                 1.2001                 1.2598
 Frc consts  --      1.4934                 1.3842                 1.4688
 IR Inten    --     22.7220                36.3922                 0.4988

                     55                     56                     57
                      A                      A                      A
 Frequencies --   1414.9118              1424.9903              1468.4410
 Red. masses --      1.2535                 3.3521                 1.0438
 Frc consts  --      1.4785                 4.0104                 1.3261
 IR Inten    --     11.5479                 3.5111                 0.0144

                     58                     59                     60
                      A                      A                      A
 Frequencies --   1468.7369              1473.4875              1475.1632
 Red. masses --      1.0723                 1.1070                 1.0433
 Frc consts  --      1.3628                 1.4160                 1.3377
 IR Inten    --      0.3204                57.4234                 0.0218

                     61                     62                     63
                      A                      A                      A
 Frequencies --   1481.1811              1485.7380              1488.0129
 Red. masses --      1.0424                 1.1354                 1.2804
 Frc consts  --      1.3474                 1.4767                 1.6704
 IR Inten    --     29.2647                 2.5058                14.0059

                     64                     65                     66
                      A                      A                      A
 Frequencies --   1488.8931              1519.2861              1595.4323
 Red. masses --      1.0443                 3.0354                 8.4286
 Frc consts  --      1.3640                 4.1280                12.6404
 IR Inten    --     34.1076                 0.0049                14.1076

                     67                     68                     69
                      A                      A                      A
 Frequencies --   1620.1967              1650.9998              1680.5675
 Red. masses --      6.4586                 9.4162                12.1096
 Frc consts  --      9.9890                15.1224                20.1508
 IR Inten    --    580.1148               102.7426                34.5388

                     70                     71                     72
                      A                      A                      A
 Frequencies --   1681.8814              3023.9611              3024.8153
 Red. masses --     11.0716                 1.0381                 1.0387
 Frc consts  --     18.4524                 5.5929                 5.5991
 IR Inten    --    755.9084                58.3447                11.6164

                     73                     74                     75
                      A                      A                      A
 Frequencies --   3025.5640              3029.7922              3067.6712
 Red. masses --      1.0401                 1.0411                 1.0993
 Frc consts  --      5.6099                 5.6308                 6.0950
 IR Inten    --     34.5531                 0.7740                32.4161

                     76                     77                     78
                      A                      A                      A
 Frequencies --   3068.5287              3071.8157              3076.0009
 Red. masses --      1.0995                 1.0997                 1.0996
 Frc consts  --      6.0996                 6.1137                 6.1299
 IR Inten    --     38.9677                 0.2085                 0.0514

                     79                     80                     81
                      A                      A                      A
 Frequencies --   3113.7253              3114.7945              3143.0808
 Red. masses --      1.1004                 1.0999                 1.0967
 Frc consts  --      6.2856                 6.2871                 6.3836
 IR Inten    --     49.8119                 6.2870                 7.7183

                     82                     83                     84
                      A                      A                      A
 Frequencies --   3144.0465              3186.3156              3188.6397
 Red. masses --      1.0968                 1.0903                 1.0904
 Frc consts  --      6.3877                 6.5217                 6.5319
 IR Inten    --     14.6315                 7.1609                 5.9971

 - Thermochemistry -
 -------------------
 Temperature   298.150 Kelvin.  Pressure   1.00000 Atm.
 Atom     1 has atomic number  6 and mass  12.00000

 Molecular mass:   214.09938 amu.
 Principal axes and moments of inertia in atomic units:
                           1         2         3
     Eigenvalues --  1863.702364721.701716540.93124
           X            0.99719   0.07480   0.00333
           Y           -0.07487   0.99602   0.04845
           Z            0.00030  -0.04857   0.99882
 This molecule is an asymmetric top.
 Rotational symmetry number  1.
 Warning -- assumption of classical behavior for rotation
           may cause significant error
 Rotational temperatures (Kelvin)      0.04647     0.01834     0.01324
 Rotational constants (GHZ):           0.96836     0.38222     0.27592
 Zero-point vibrational energy     633168.1 (Joules/Mol)
                                  151.33081 (Kcal/Mol)
 Warning -- explicit consideration of  24 degrees of freedom as
           vibrations may cause significant error
 Vibrational temperatures:     26.99    61.19   104.76   130.72   150.66
          (Kelvin)            171.01   184.37   242.35   265.73   313.36
                              352.44   422.92   455.37   474.13   492.60
                              508.92   543.68   610.25   636.67   664.21
                              668.15   715.44   820.24   841.18   963.89
                              968.11  1013.44  1060.84  1069.19  1094.34
                             1131.76  1304.87  1330.75  1331.20  1335.91
                             1452.24  1466.43  1488.45  1489.41  1504.13
                             1517.27  1536.26  1587.84  1619.36  1675.42
                             1737.42  1774.60  1829.02  1880.21  1894.89
                             1947.36  2005.86  2013.09  2023.93  2035.74
                             2050.24  2112.76  2113.18  2120.02  2122.43
                             2131.09  2137.65  2140.92  2142.19  2185.91
                             2295.47  2331.10  2375.42  2417.96  2419.85
                             4350.81  4352.03  4353.11  4359.20  4413.69
                             4414.93  4419.66  4425.68  4479.96  4481.49
                             4522.19  4523.58  4584.40  4587.74

 Zero-point correction=                           0.241161 (Hartree/Particle)
 Thermal correction to Energy=                    0.256911
 Thermal correction to Enthalpy=                  0.257855
 Thermal correction to Gibbs Free Energy=         0.197095
 Sum of electronic and zero-point Energies=           -692.342094
 Sum of electronic and thermal Energies=              -692.326345
 Sum of electronic and thermal Enthalpies=            -692.325400
 Sum of electronic and thermal Free Energies=         -692.386160

                     E (Thermal)             CV                S
                      KCal/Mol        Cal/Mol-Kelvin    Cal/Mol-Kelvin
 Total                  161.214             58.396            127.880
 Electronic               0.000              0.000              0.000
 Translational            0.889              2.981             41.987
 Rotational               0.889              2.981             32.420
 Vibrational            159.436             52.434             53.472
 Vibration     1          0.593              1.986              6.762
 Vibration     2          0.595              1.980              5.138
 Vibration     3          0.599              1.967              4.076
 Vibration     4          0.602              1.956              3.642
 Vibration     5          0.605              1.945              3.365
 Vibration     6          0.609              1.934              3.119
 Vibration     7          0.611              1.925              2.974
 Vibration     8          0.625              1.881              2.453
 Vibration     9          0.631              1.861              2.280
 Vibration    10          0.646              1.814              1.977
 Vibration    11          0.660              1.771              1.767
 Vibration    12          0.689              1.685              1.451
 Vibration    13          0.703              1.642              1.328
 Vibration    14          0.712              1.616              1.262
 Vibration    15          0.722              1.591              1.201
 Vibration    16          0.730              1.568              1.150
 Vibration    17          0.748              1.517              1.048
 Vibration    18          0.786              1.418              0.878
 Vibration    19          0.802              1.377              0.819
 Vibration    20          0.819              1.335              0.761
 Vibration    21          0.822              1.329              0.753
 Vibration    22          0.853              1.256              0.665
 Vibration    23          0.926              1.096              0.504
 Vibration    24          0.942              1.065              0.477

                           ! Non-Optimized Parameters !
 Normal termination of Gaussian 16 at Sun Feb 11 01:10:39 2024.
