 Gaussian 16, Revision A.03,
 Gaussian 16:  ES64L-G16RevA.03 25-Dec-2016

 ----------------------------------------------------------------------
 #P UB3LYP/6-311++G(d,p) nosym opt freq SCRF=(PCM,Solvent=n,n-DiMethylF
 ormamide)
 ----------------------------------------------------------------------

 --------
 Oxidized
 --------
 Symbolic Z-matrix:
 Charge =  0 Multiplicity = 1

 SCF Done:  E(UB3LYP) =  -5682.34262292     A.U. after   15 cycles
 SCF Done:  E(UB3LYP) =  -5682.34271102     A.U. after   11 cycles
 SCF Done:  E(UB3LYP) =  -5682.34267551     A.U. after   11 cycles
 SCF Done:  E(UB3LYP) =  -5682.34268797     A.U. after   11 cycles
 SCF Done:  E(UB3LYP) =  -5682.34271958     A.U. after   12 cycles
 SCF Done:  E(UB3LYP) =  -5682.34272217     A.U. after    9 cycles
 Optimization completed.
    -- Stationary point found.
 Normal termination of Gaussian 16 at Sat Feb 10 23:45:05 2024.

 ----------------------------------------------------------------------
 #P Geom=AllCheck Guess=TCheck SCRF=Check GenChk UB3LYP/6-311++G(d,p) F
 req
 ----------------------------------------------------------------------

 Structure from the checkpoint file:  "233.chk"
 --------
 Oxidized
 --------
 Charge =  0 Multiplicity = 1

                          Input orientation:
 ---------------------------------------------------------------------
 Center     Atomic      Atomic             Coordinates (Angstroms)
 Number     Number       Type             X           Y           Z
 ---------------------------------------------------------------------
      1          6           0        5.935902   -5.224641    1.104866
      2          6           0        6.835004   -5.082778    0.051877
      3          6           0        6.625193   -4.104767   -0.921969
      4          6           0        4.820178   -4.388362    1.188739
      5          6           0        4.608958   -3.405467    0.209461
      6          6           0        5.515805   -3.267722   -0.844124
      7          6           0        3.872987   -4.559320    2.319480
      8          6           0        2.682767   -3.640253    2.361939
      9          6           0        2.479143   -2.696322    1.420299
     10          6           0        3.430601   -2.503916    0.270933
     11          8           0        4.038610   -5.402608    3.180222
     12          8           0        3.230397   -1.642763   -0.564419
     13          1           0        6.087185   -5.978854    1.866155
     14          1           0        5.341584   -2.505870   -1.592798
     15         35           0        1.515482   -3.915197    3.825284
     16         35           0        0.998121   -1.519241    1.434300
     17          1           0        7.698585   -5.733880   -0.010251
     18          1           0        7.325840   -3.995734   -1.740985
 ---------------------------------------------------------------------

 SCF Done:  E(UB3LYP) =  -5682.34272217     A.U. after    1 cycles

 Alpha  occ. eigenvalues -- -482.85734-482.85734 -62.50999 -62.50999 -56.33052
 Alpha  occ. eigenvalues --  -56.33051 -56.32662 -56.32662 -56.32607 -56.32606
 Alpha  occ. eigenvalues --  -19.15052 -19.15049 -10.30586 -10.30584 -10.27818
 Alpha  occ. eigenvalues --  -10.27743 -10.22106 -10.22055 -10.20718 -10.20715
 Alpha  occ. eigenvalues --  -10.20568 -10.20516  -8.71968  -8.71967  -6.55158
 Alpha  occ. eigenvalues --   -6.55158  -6.53855  -6.53854  -6.53694  -6.53693
 Alpha  occ. eigenvalues --   -2.66248  -2.66247  -2.65901  -2.65900  -2.65779
 Alpha  occ. eigenvalues --   -2.65778  -2.64740  -2.64739  -2.64738  -2.64737
 Alpha  occ. eigenvalues --   -1.08705  -1.08513  -0.90852  -0.88841  -0.82529
 Alpha  occ. eigenvalues --   -0.81376  -0.78909  -0.75992  -0.70514  -0.65698
 Alpha  occ. eigenvalues --   -0.64081  -0.60320  -0.56742  -0.53520  -0.51305
 Alpha  occ. eigenvalues --   -0.48732  -0.47694  -0.47382  -0.46683  -0.46034
 Alpha  occ. eigenvalues --   -0.44238  -0.43716  -0.43231  -0.39873  -0.39285
 Alpha  occ. eigenvalues --   -0.37985  -0.37129  -0.32953  -0.32901  -0.30719
 Alpha  occ. eigenvalues --   -0.30670  -0.29812  -0.28871  -0.28723  -0.27668
 Alpha virt. eigenvalues --   -0.14140  -0.06702  -0.05419  -0.04815  -0.00635
 Alpha virt. eigenvalues --   -0.00399   0.00632   0.01135   0.01272   0.02771
 Alpha virt. eigenvalues --    0.03356   0.03698   0.03968   0.04611   0.05117

  Beta  occ. eigenvalues -- -482.85734-482.85734 -62.50999 -62.50999 -56.33052
  Beta  occ. eigenvalues --  -56.33051 -56.32662 -56.32662 -56.32607 -56.32606
  Beta  occ. eigenvalues --  -19.15052 -19.15049 -10.30586 -10.30584 -10.27818
  Beta  occ. eigenvalues --  -10.27743 -10.22106 -10.22055 -10.20718 -10.20715
  Beta  occ. eigenvalues --  -10.20568 -10.20516  -8.71968  -8.71967  -6.55158
  Beta  occ. eigenvalues --   -6.55158  -6.53855  -6.53854  -6.53694  -6.53693
  Beta  occ. eigenvalues --   -2.66248  -2.66247  -2.65901  -2.65900  -2.65779
  Beta  occ. eigenvalues --   -2.65778  -2.64740  -2.64739  -2.64738  -2.64737
  Beta  occ. eigenvalues --   -1.08705  -1.08513  -0.90852  -0.88841  -0.82529
  Beta  occ. eigenvalues --   -0.81376  -0.78909  -0.75992  -0.70514  -0.65698
  Beta  occ. eigenvalues --   -0.64081  -0.60320  -0.56742  -0.53520  -0.51305
  Beta  occ. eigenvalues --   -0.48732  -0.47694  -0.47382  -0.46683  -0.46034
  Beta  occ. eigenvalues --   -0.44238  -0.43716  -0.43231  -0.39873  -0.39285
  Beta  occ. eigenvalues --   -0.37985  -0.37129  -0.32953  -0.32901  -0.30719
  Beta  occ. eigenvalues --   -0.30670  -0.29812  -0.28871  -0.28723  -0.27668
  Beta virt. eigenvalues --   -0.14140  -0.06702  -0.05419  -0.04815  -0.00635
  Beta virt. eigenvalues --   -0.00399   0.00632   0.01135   0.01272   0.02771
  Beta virt. eigenvalues --    0.03356   0.03698   0.03968   0.04611   0.05117

 Mulliken charges and spin densities:
               1          2
     1  C    0.252969  -0.000000
     2  C   -0.345634   0.000000
     3  C   -0.345680  -0.000000
     4  C    0.439947   0.000000
     5  C    0.440449  -0.000000
     6  C    0.252272  -0.000000
     7  C   -1.017314  -0.000000
     8  C    0.487043   0.000000
     9  C    0.487885  -0.000000
    10  C   -1.018177   0.000000
    11  O   -0.203979  -0.000000
    12  O   -0.204259  -0.000000
    13  H    0.189317   0.000000
    14  H    0.189249   0.000000
    15  Br  -0.020333  -0.000000
    16  Br  -0.020512  -0.000000
    17  H    0.218372   0.000000
    18  H    0.218387  -0.000000
 Sum of Mulliken charges =  -0.00000   0.00000

 Dipole moment (field-independent basis, Debye):
    X=              3.6138    Y=             -1.2613    Z=             -2.0429  Tot=              4.3387
 Quadrupole moment (field-independent basis, Debye-Ang):
   XX=            -63.9549   YY=           -101.1977   ZZ=           -112.3671
   XY=            -21.1164   XZ=            -12.7090   YZ=             15.2660

  Exact polarizability: 243.785 -63.728 215.163 -53.255 -64.552 239.932
 Approx polarizability: 266.835 -71.850 271.985 -46.053-100.391 296.669

                      1                      2                      3
                      A                      A                      A
 Frequencies --     35.2669                48.7327               111.3751
 Red. masses --     10.4331                14.6105                 4.8013
 Frc consts  --      0.0076                 0.0204                 0.0351
 IR Inten    --      7.6830                 0.0013                 0.0004

                      4                      5                      6
                      A                      A                      A
 Frequencies --    134.7404               157.6411               168.6175
 Red. masses --     56.6146                 8.2159                13.0860
 Frc consts  --      0.6056                 0.1203                 0.2192
 IR Inten    --      0.3144                 3.2089                 2.0015

                      7                      8                      9
                      A                      A                      A
 Frequencies --    245.9376               254.8076               260.8220
 Red. masses --      9.4274                 7.5268                15.0747
 Frc consts  --      0.3360                 0.2879                 0.6042
 IR Inten    --      1.1927                 1.2233                 0.2900

                     10                     11                     12
                      A                      A                      A
 Frequencies --    316.0837               391.3981               413.4443
 Red. masses --     11.5272                11.3098                 7.4674
 Frc consts  --      0.6785                 1.0208                 0.7521
 IR Inten    --      0.3133                26.2544                 0.0001

                     13                     14                     15
                      A                      A                      A
 Frequencies --    426.1629               473.2058               504.8333
 Red. masses --      3.2985                13.6266                 5.3893
 Frc consts  --      0.3530                 1.7978                 0.8092
 IR Inten    --      1.1663                32.3484                 0.0008

                     16                     17                     18
                      A                      A                      A
 Frequencies --    524.9480               633.3086               695.0728
 Red. masses --      8.3199                 7.8176                 5.0261
 Frc consts  --      1.3508                 1.8474                 1.4307
 IR Inten    --      1.2150                71.6771                 0.0211

                     19                     20                     21
                      A                      A                      A
 Frequencies --    698.1222               720.9462               768.5643
 Red. masses --      8.6287                 2.6091                 8.2648
 Frc consts  --      2.4777                 0.7990                 2.8764
 IR Inten    --      0.2075               106.4654               131.9434

                     22                     23                     24
                      A                      A                      A
 Frequencies --    788.6598               806.7744               820.3480
 Red. masses --      6.3394                 1.7980                10.7643
 Frc consts  --      2.3232                 0.6895                 4.2681
 IR Inten    --      0.0059                26.4705                62.7281

                     25                     26                     27
                      A                      A                      A
 Frequencies --    853.9064               914.2499              1003.0636
 Red. masses --      7.4583                 1.3823                 1.3870
 Frc consts  --      3.2041                 0.6808                 0.8222
 IR Inten    --     25.2852                 0.0004                 1.9976

                     28                     29                     30
                      A                      A                      A
 Frequencies --   1026.8571              1041.0514              1087.0125
 Red. masses --      1.3432                 4.0241                 2.4640
 Frc consts  --      0.8345                 2.5696                 1.7154
 IR Inten    --      0.0001                32.1947                31.8586

                     31                     32                     33
                      A                      A                      A
 Frequencies --   1089.6203              1126.0601              1185.0538
 Red. masses --      8.0594                 2.0087                 1.1121
 Frc consts  --      5.6377                 1.5007                 0.9202
 IR Inten    --    284.6894               172.1232                11.3668

                     34                     35                     36
                      A                      A                      A
 Frequencies --   1237.4506              1265.7605              1302.2079
 Red. masses --      2.3096                 5.0201                 2.0256
 Frc consts  --      2.0837                 4.7388                 2.0237
 IR Inten    --     74.2513               755.3747                 3.3114

                     37                     38                     39
                      A                      A                      A
 Frequencies --   1362.5625              1480.0617              1506.7533
 Red. masses --      7.9368                 2.2829                 2.6295
 Frc consts  --      8.6818                 2.9464                 3.5173
 IR Inten    --      7.4550                 0.0567                19.9348

                     40                     41                     42
                      A                      A                      A
 Frequencies --   1577.5093              1618.6330              1621.0518
 Red. masses --     10.1250                 5.7340                 7.2802
 Frc consts  --     14.8454                 8.8512                11.2717
 IR Inten    --    260.8851               192.4810                30.2659

                     43                     44                     45
                      A                      A                      A
 Frequencies --   1711.2568              1711.9978              3184.0775
 Red. masses --     13.0045                12.5570                 1.0879
 Frc consts  --     22.4374                21.6842                 6.4981
 IR Inten    --     18.1052               929.3099                 2.9320

                     46                     47                     48
                      A                      A                      A
 Frequencies --   3196.0076              3208.0832              3210.8935
 Red. masses --      1.0918                 1.0928                 1.0957
 Frc consts  --      6.5704                 6.6266                 6.6557
 IR Inten    --      7.8800                 1.1833                15.2645

 - Thermochemistry -
 -------------------
 Temperature   298.150 Kelvin.  Pressure   1.00000 Atm.
 Atom     1 has atomic number  6 and mass  12.00000

 Molecular mass:   313.85780 amu.
 Principal axes and moments of inertia in atomic units:
                           1         2         3
     Eigenvalues --  3005.168275825.400398830.53688
           X            0.83628  -0.15087   0.52713
           Y           -0.28612   0.70004   0.65428
           Z           -0.46773  -0.69799   0.54226
 This molecule is an asymmetric top.
 Rotational symmetry number  1.
 Warning -- assumption of classical behavior for rotation
           may cause significant error
 Rotational temperatures (Kelvin)      0.02882     0.01487     0.00981
 Rotational constants (GHZ):           0.60055     0.30981     0.20438
 Zero-point vibrational energy     292612.5 (Joules/Mol)
                                   69.93607 (Kcal/Mol)
 Warning -- explicit consideration of  16 degrees of freedom as
           vibrations may cause significant error
 Vibrational temperatures:     50.74    70.12   160.24   193.86   226.81
          (Kelvin)            242.60   353.85   366.61   375.26   454.77
                              563.13   594.85   613.15   680.84   726.34
                              755.28   911.19  1000.05  1004.44  1037.28
                             1105.79  1134.71  1160.77  1180.30  1228.58
                             1315.40  1443.18  1477.42  1497.84  1563.97
                             1567.72  1620.15  1705.03  1780.42  1821.15
                             1873.59  1960.42  2129.48  2167.88  2269.68
                             2328.85  2332.33  2462.12  2463.18  4581.18
                             4598.34  4615.72  4619.76

 Zero-point correction=                           0.111450 (Hartree/Particle)
 Thermal correction to Energy=                    0.123200
 Thermal correction to Enthalpy=                  0.124144
 Thermal correction to Gibbs Free Energy=         0.070761
 Sum of electronic and zero-point Energies=          -5682.231272
 Sum of electronic and thermal Energies=             -5682.219523
 Sum of electronic and thermal Enthalpies=           -5682.218578
 Sum of electronic and thermal Free Energies=        -5682.271962

                     E (Thermal)             CV                S
                      KCal/Mol        Cal/Mol-Kelvin    Cal/Mol-Kelvin
 Total                   77.309             42.759            112.354
 Electronic               0.000              0.000              0.000
 Translational            0.889              2.981             43.127
 Rotational               0.889              2.981             33.402
 Vibrational             75.531             36.797             35.825
 Vibration     1          0.594              1.982              5.509
 Vibration     2          0.595              1.978              4.868
 Vibration     3          0.607              1.940              3.245
 Vibration     4          0.613              1.919              2.877
 Vibration     5          0.621              1.894              2.578
 Vibration     6          0.625              1.881              2.451
 Vibration     7          0.660              1.770              1.760
 Vibration     8          0.665              1.755              1.697
 Vibration     9          0.669              1.744              1.656
 Vibration    10          0.703              1.643              1.330
 Vibration    11          0.759              1.489              0.995
 Vibration    12          0.777              1.441              0.915
 Vibration    13          0.788              1.413              0.871
 Vibration    14          0.830              1.309              0.729
 Vibration    15          0.860              1.239              0.646
 Vibration    16          0.880              1.195              0.599

                           ! Non-Optimized Parameters !
 Normal termination of Gaussian 16 at Sun Feb 11 00:13:24 2024.
