 Gaussian 16, Revision A.03,
 Gaussian 16:  ES64L-G16RevA.03 25-Dec-2016

 ----------------------------------------------------------------
 #P UB3LYP/6-311++G(d,p) SCRF=(PCM,Solvent=n,n-DiMethylFormamide)
 ----------------------------------------------------------------

 -------
 Reduced
 -------
 Symbolic Z-matrix:
 Charge = -2 Multiplicity = 1

                         Standard orientation:
 ---------------------------------------------------------------------
 Center     Atomic      Atomic             Coordinates (Angstroms)
 Number     Number       Type             X           Y           Z
 ---------------------------------------------------------------------
      1          6           0        3.562961   -1.119323    0.903490
      2          6           0        2.849651   -0.764288   -0.419818
      3          6           0        1.435039   -0.267312   -0.241325
      4          6           0        1.148808    1.121406   -0.148430
      5          6           0        2.261402    2.145599   -0.186463
      6          6           0       -0.176457    1.638780   -0.016555
      7          8           0       -0.450929    2.900689    0.068918
      8          6           0       -1.231839    0.633410    0.019918
      9          6           0       -2.580600    1.036740    0.156835
     10          6           0       -3.620809    0.124309    0.191341
     11          6           0       -3.340963   -1.261811    0.085714
     12          6           0       -2.028413   -1.684097   -0.040990
     13          6           0       -0.947444   -0.774822   -0.073763
     14          6           0        0.416979   -1.275615   -0.204817
     15          8           0        0.665805   -2.537138   -0.293781
     16          1           0        4.591770   -1.473560    0.725155
     17          1           0        3.009793   -1.908412    1.420099
     18          1           0        3.621745   -0.250485    1.568438
     19          1           0        3.460620   -0.028327   -0.959245
     20          1           0        2.808208   -1.677562   -1.025183
     21          1           0        1.825634    3.125717    0.022738
     22          1           0        3.055249    1.941828    0.548875
     23          1           0        2.755697    2.196786   -1.168793
     24          1           0       -2.759181    2.105170    0.232615
     25          1           0       -4.649302    0.467925    0.295252
     26          1           0       -4.152643   -1.987739    0.107284
     27          1           0       -1.776484   -2.737600   -0.119151
 ---------------------------------------------------------------------

 SCF Done:  E(UB3LYP) =  -653.477618108     A.U. after   18 cycles

 The electronic state is 1-A.
 Alpha  occ. eigenvalues --  -19.00772 -19.00673 -10.15906 -10.15840 -10.14515
 Alpha  occ. eigenvalues --  -10.14468 -10.14094 -10.14047 -10.14020 -10.13666
 Alpha  occ. eigenvalues --  -10.13036 -10.12882 -10.12838 -10.11949 -10.11625
 Alpha  occ. eigenvalues --   -0.92586  -0.92149  -0.81872  -0.77602  -0.73250
 Alpha  occ. eigenvalues --   -0.71611  -0.71069  -0.65935  -0.62095  -0.60103
 Alpha  occ. eigenvalues --   -0.56045  -0.54487  -0.51159  -0.47450  -0.45532
 Alpha  occ. eigenvalues --   -0.42690  -0.42334  -0.40643  -0.39541  -0.38956
 Alpha  occ. eigenvalues --   -0.38474  -0.36929  -0.36219  -0.35776  -0.34595
 Alpha  occ. eigenvalues --   -0.34433  -0.33880  -0.32764  -0.31505  -0.30530
 Alpha  occ. eigenvalues --   -0.30200  -0.29409  -0.29046  -0.22372  -0.21580
 Alpha  occ. eigenvalues --   -0.19568  -0.19147  -0.18246  -0.10183
 Alpha virt. eigenvalues --   -0.00259   0.00075   0.00715   0.01345   0.01774
 Alpha virt. eigenvalues --    0.02450   0.02752   0.02830   0.04571   0.05006
 Alpha virt. eigenvalues --    0.05231   0.05350   0.05721   0.06809   0.07280

  Beta  occ. eigenvalues --  -19.00772 -19.00673 -10.15906 -10.15840 -10.14515
  Beta  occ. eigenvalues --  -10.14468 -10.14094 -10.14047 -10.14020 -10.13666
  Beta  occ. eigenvalues --  -10.13036 -10.12882 -10.12838 -10.11949 -10.11625
  Beta  occ. eigenvalues --   -0.92586  -0.92149  -0.81872  -0.77602  -0.73250
  Beta  occ. eigenvalues --   -0.71611  -0.71069  -0.65935  -0.62095  -0.60103
  Beta  occ. eigenvalues --   -0.56045  -0.54487  -0.51159  -0.47450  -0.45532
  Beta  occ. eigenvalues --   -0.42690  -0.42334  -0.40643  -0.39541  -0.38956
  Beta  occ. eigenvalues --   -0.38474  -0.36929  -0.36219  -0.35776  -0.34595
  Beta  occ. eigenvalues --   -0.34433  -0.33880  -0.32764  -0.31505  -0.30530
  Beta  occ. eigenvalues --   -0.30200  -0.29409  -0.29046  -0.22372  -0.21580
  Beta  occ. eigenvalues --   -0.19568  -0.19147  -0.18246  -0.10183
  Beta virt. eigenvalues --   -0.00259   0.00075   0.00715   0.01345   0.01774
  Beta virt. eigenvalues --    0.02450   0.02752   0.02830   0.04571   0.05006
  Beta virt. eigenvalues --    0.05231   0.05350   0.05721   0.06809   0.07280

 Mulliken charges and spin densities:
               1          2
     1  C   -0.667540  -0.000000
     2  C   -0.368878   0.000000
     3  C    0.782506  -0.000000
     4  C    0.561278  -0.000000
     5  C   -0.530880   0.000000
     6  C   -0.598920   0.000000
     7  O   -0.701207  -0.000000
     8  C    0.262453  -0.000000
     9  C    0.027891  -0.000000
    10  C   -0.483449   0.000000
    11  C   -0.458424   0.000000
    12  C   -0.047746  -0.000000
    13  C    0.034249   0.000000
    14  C   -0.822895   0.000000
    15  O   -0.680745  -0.000000
    16  H    0.111760   0.000000
    17  H    0.164412  -0.000000
    18  H    0.114558  -0.000000
    19  H    0.131916  -0.000000
    20  H    0.149016   0.000000
    21  H    0.162337  -0.000000
    22  H    0.134164  -0.000000
    23  H    0.136168   0.000000
    24  H    0.145320   0.000000
    25  H    0.148605   0.000000
    26  H    0.149452  -0.000000
    27  H    0.144600   0.000000
 Sum of Mulliken charges =  -2.00000  -0.00000

 Dipole moment (field-independent basis, Debye):
    X=              1.3857    Y=             -1.2924    Z=              0.7382  Tot=              2.0336
 Quadrupole moment (field-independent basis, Debye-Ang):
   XX=           -114.5872   YY=           -156.0097   ZZ=           -102.3354
   XY=              9.7635   XZ=              0.3678   YZ=             -3.1181

 Normal termination of Gaussian 16 at Sun Jan 21 08:50:44 2024.
