 Q-Chem 5.4, Q-Chem, Inc., Pleasanton, CA (2021)
 Q-Chem 5.4.0 for Intel X86 EM64T Linux

User input:
--------------------------------------------------------------
$molecule
-1 2
C                  5.8522400000     -5.5618090000      0.8701150000
C                  6.3495060000     -5.5484900000     -0.4210040000
C                  5.9090050000     -4.5692090000     -1.3335070000
C                  4.9059520000     -4.6073810000      1.2940020000
C                  4.4630730000     -3.6222520000      0.3755200000
C                  4.9802390000     -3.6241980000     -0.9352940000
C                  4.3957640000     -4.6468210000      2.6729030000
C                  3.4233470000     -3.6346110000      3.0376710000
C                  2.9967140000     -2.6633310000      2.1376960000
C                  3.4773560000     -2.6075070000      0.7729220000
O                  4.7966590000     -5.5269820000      3.4855460000
O                  3.0752320000     -1.7316360000     -0.0444630000
H                  7.0785290000     -6.2913860000     -0.7320830000
C                  1.9822880000     -1.6086340000      2.5192580000
H                  6.2987270000     -4.5575410000     -2.3474790000
C                  2.9062230000     -3.6852630000      4.4572280000
C                  0.5398220000     -1.9800420000      2.1221890000
C                 -0.4810580000     -0.8895570000      2.4646390000
C                 -1.9191410000     -1.2416930000      2.0668810000
C                 -2.9339090000     -0.1450840000      2.4076220000
H                  6.1727170000     -6.3025130000      1.5938590000
H                  4.6217510000     -2.8591450000     -1.6146400000
H                  2.2450640000     -0.6824900000      1.9985380000
H                  2.0192630000     -1.4092820000      3.5953460000
H                  3.2779360000     -4.5906610000      4.9376560000
H                  1.8114850000     -3.6844220000      4.4981730000
H                  3.2496640000     -2.8247120000      5.0462870000
H                  0.2538940000     -2.9169400000      2.6172160000
H                  0.5232380000     -2.1736080000      1.0449360000
H                 -0.1884720000      0.0440700000      1.9659260000
H                 -0.4477500000     -0.6816840000      3.5436480000
H                 -2.2121730000     -2.1756830000      2.5627390000
H                 -1.9523520000     -1.4474510000      0.9901090000
H                 -2.9469110000      0.0603680000      3.4835240000
H                 -3.9496190000     -0.4267080000      2.1108810000
H                 -2.6866130000      0.7922300000      1.8980000000
$end
$rem
MAX_SCF_CYCLES=200
BASIS  =  6-311++G(d,p)
GUI  =  2
JOB_TYPE  =  SP
METHOD  =  B3LYP
SOLVENT_METHOD = COSMO
$end
$solvent
dielectric 37.219
opticaldielectric 1.43
$end

--------------------------------------------------------------

             Standard Nuclear Orientation (Angstroms)
    I     Atom           X                Y                Z
 ----------------------------------------------------------------
    1      C       3.9217609946    -0.3231376801    -0.5279948327
    2      C       4.6364566009     0.8600616662    -0.5887290061
    3      C       4.0018700196     2.0806646760    -0.2835695456
    4      C       2.5603216976    -0.3315997726    -0.1640093819
    5      C       1.9222822072     0.8967730685     0.1429693009
    6      C       2.6657914138     2.0919096463     0.0755866545
    7      C       1.8269148819    -1.6052546064    -0.1080354265
    8      C       0.4291577652    -1.5367498729     0.2724928169
    9      C      -0.1928137796    -0.3314741594     0.5820366874
   10      C       0.5044411366     0.9364140150     0.5269342243
   11      O       2.4032161422    -2.6955903160    -0.3815929711
   12      O      -0.0696773314     2.0297667566     0.7951500426
   13      H       5.6853922389     0.8494476879    -0.8711480500
   14      C      -1.6505910302    -0.2614109351     0.9782841647
   15      H       4.5618863719     3.0103505341    -0.3307340088
   16      C      -0.3141474285    -2.8519343405     0.3264570447
   17      C      -2.5867263044     0.0663522130    -0.2017742752
   18      C      -4.0582403967     0.1858445893     0.2093137449
   19      C      -4.9999652030     0.5206980113    -0.9531497939
   20      C      -6.4689421244     0.6435579760    -0.5343156320
   21      H       4.3831860098    -1.2770089546    -0.7568394259
   22      H       2.1500888365     3.0149641780     0.3150692426
   23      H      -1.7607419285     0.5324621585     1.7236535657
   24      H      -1.9701801952    -1.2010783935     1.4408439853
   25      H       0.3281295192    -3.6384860561    -0.0704609281
   26      H      -1.2434802731    -2.8250844446    -0.2529806448
   27      H      -0.5854528916    -3.1240228779     1.3549760883
   28      H      -2.4847113491    -0.7058511380    -0.9750008576
   29      H      -2.2525718769     1.0079145838    -0.6490079634
   30      H      -4.1521966224     0.9599641379     0.9825483478
   31      H      -4.3857661920    -0.7533738885     0.6774766797
   32      H      -4.9055344093    -0.2508501401    -1.7276667430
   33      H      -4.6739191714     1.4585535755    -1.4189804403
   34      H      -6.8334405511    -0.2908517506    -0.0939021337
   35      H      -7.1142517183     0.8834013873    -1.3858347267
   36      H      -6.6001689864     1.4318509072     0.2145509746
 ----------------------------------------------------------------

   10    -771.2832951419      6.74e-06  Convergence criterion met
 Total energy in the final basis set =     -771.2832951419
    4    -771.3650369481      8.39e-06  Convergence criterion met
 Total energy in the final basis set =     -771.3650369481

                    Orbital Energies (a.u.)
 --------------------------------------------------------------

 Alpha MOs
 -- Occupied --
-19.0755 -19.0743 -10.2188 -10.2175 -10.1710 -10.1705 -10.1698 -10.1692
-10.1675 -10.1675 -10.1675 -10.1638 -10.1568 -10.1544 -10.1541 -10.1539
-10.1507 -10.1500  -1.0002  -0.9972  -0.8558  -0.8182  -0.7915  -0.7583
 -0.7477  -0.7410  -0.7021  -0.6670  -0.6518  -0.6122  -0.5927  -0.5756
 -0.5689  -0.5486  -0.5130  -0.4872  -0.4689  -0.4627  -0.4479  -0.4322
 -0.4243  -0.4234  -0.4180  -0.4133  -0.4100  -0.4001  -0.3945  -0.3841
 -0.3790  -0.3727  -0.3700  -0.3609  -0.3520  -0.3472  -0.3404  -0.3352
 -0.3251  -0.3214  -0.3148  -0.3142  -0.2672  -0.2554  -0.2465  -0.2382
 -0.2339  -0.1503

 Beta MOs
 -- Occupied --
-19.0694 -19.0683 -10.2170 -10.2158 -10.1706 -10.1701 -10.1692 -10.1687
-10.1675 -10.1674 -10.1662 -10.1625 -10.1568 -10.1543 -10.1541 -10.1540
-10.1507 -10.1501  -0.9895  -0.9864  -0.8537  -0.8149  -0.7904  -0.7567
 -0.7459  -0.7395  -0.6993  -0.6655  -0.6455  -0.6111  -0.5913  -0.5736
 -0.5683  -0.5459  -0.5110  -0.4849  -0.4681  -0.4605  -0.4470  -0.4292
 -0.4227  -0.4188  -0.4164  -0.4086  -0.4070  -0.3972  -0.3878  -0.3830
 -0.3773  -0.3696  -0.3600  -0.3548  -0.3467  -0.3407  -0.3345  -0.3341
 -0.3243  -0.3208  -0.3144  -0.3123  -0.2489  -0.2457  -0.2409  -0.2295
 -0.2277

          Ground-State Mulliken Net Atomic Charges

     Atom                 Charge (a.u.)    Spin (a.u.)
  --------------------------------------------------------
      1 C                     0.190768       0.034264
      2 C                    -0.471790       0.026651
      3 C                    -0.460132       0.027549
      4 C                     0.229275       0.011105
      5 C                    -0.197872       0.016301
      6 C                     0.088288       0.035736
      7 C                    -0.759648       0.106642
      8 C                     0.930900       0.091211
      9 C                     1.045399       0.081045
     10 C                    -0.965862       0.109687
     11 O                    -0.514495       0.220329
     12 O                    -0.493114       0.220030
     13 H                     0.198527      -0.002332
     14 C                    -0.372564       0.013669
     15 H                     0.197733      -0.002187
     16 C                    -0.530435      -0.002757
     17 C                    -0.576432       0.002112
     18 C                    -0.185477       0.004646
     19 C                    -0.187774      -0.000423
     20 C                    -0.681262       0.000115
     21 H                     0.178647      -0.002100
     22 H                     0.178995      -0.002370
     23 H                     0.200660       0.003099
     24 H                     0.178689       0.000614
     25 H                     0.180670      -0.001540
     26 H                     0.166823       0.004369
     27 H                     0.185166       0.006130
     28 H                     0.126990      -0.000616
     29 H                     0.175480      -0.000966
     30 H                     0.117091       0.000214
     31 H                     0.112972      -0.000295
     32 H                     0.137512       0.000123
     33 H                     0.133875      -0.000082
     34 H                     0.146105      -0.000005
     35 H                     0.149986       0.000042
     36 H                     0.146298      -0.000011
  --------------------------------------------------------
  Sum of atomic charges =    -1.000008

                    Cartesian Multipole Moments
 -----------------------------------------------------------------
    Charge (ESU x 10^10)
                -4.8032
    Dipole Moment (Debye)
         X      -6.4191      Y       1.2491      Z      -0.8976
       Tot       6.6008
    Quadrupole Moments (Debye-Ang)
        XX    -126.6357     XY      19.1489     YY    -139.7685
        XZ       1.4415     YZ      -7.0857     ZZ    -117.2536

 Total job time:  112.56s(wall), 847.26s(cpu)
        *  Thank you very much for using Q-Chem.  Have a nice day.  *
