 Gaussian 16, Revision A.03,
 Gaussian 16:  ES64L-G16RevA.03 25-Dec-2016

 --------------------------------------
 #P UB3LYP/6-311++G(d,p) nosym opt freq
 --------------------------------------

 -------
 Radical
 -------
 Symbolic Z-matrix:
 Charge = -1 Multiplicity = 2

 SCF Done:  E(UB3LYP) =  -771.283284708     A.U. after   22 cycles
 Optimization completed.
    -- Stationary point found.
 Normal termination of Gaussian 16 at Sun Jan  7 20:30:38 2024.

 ----------------------------------------------------------------------
 #P Geom=AllCheck Guess=TCheck SCRF=Check GenChk UB3LYP/6-311++G(d,p) F
 req
 ----------------------------------------------------------------------

 Structure from the checkpoint file:  "248-rad.chk"
 -------
 Radical
 -------
 Charge = -1 Multiplicity = 2

                          Input orientation:
 ---------------------------------------------------------------------
 Center     Atomic      Atomic             Coordinates (Angstroms)
 Number     Number       Type             X           Y           Z
 ---------------------------------------------------------------------
      1          6           0        5.852240   -5.561809    0.870115
      2          6           0        6.349506   -5.548490   -0.421004
      3          6           0        5.909005   -4.569209   -1.333507
      4          6           0        4.905952   -4.607381    1.294002
      5          6           0        4.463073   -3.622252    0.375520
      6          6           0        4.980239   -3.624198   -0.935294
      7          6           0        4.395764   -4.646821    2.672903
      8          6           0        3.423347   -3.634611    3.037671
      9          6           0        2.996714   -2.663331    2.137696
     10          6           0        3.477356   -2.607507    0.772922
     11          8           0        4.796659   -5.526982    3.485546
     12          8           0        3.075232   -1.731636   -0.044463
     13          1           0        7.078529   -6.291386   -0.732083
     14          6           0        1.982288   -1.608634    2.519258
     15          1           0        6.298727   -4.557541   -2.347479
     16          6           0        2.906223   -3.685263    4.457228
     17          6           0        0.539822   -1.980042    2.122189
     18          6           0       -0.481058   -0.889557    2.464639
     19          6           0       -1.919141   -1.241693    2.066881
     20          6           0       -2.933909   -0.145084    2.407622
     21          1           0        6.172717   -6.302513    1.593859
     22          1           0        4.621751   -2.859145   -1.614640
     23          1           0        2.245064   -0.682490    1.998538
     24          1           0        2.019263   -1.409282    3.595346
     25          1           0        3.277936   -4.590661    4.937656
     26          1           0        1.811485   -3.684422    4.498173
     27          1           0        3.249664   -2.824712    5.046287
     28          1           0        0.253894   -2.916940    2.617216
     29          1           0        0.523238   -2.173608    1.044936
     30          1           0       -0.188472    0.044070    1.965926
     31          1           0       -0.447750   -0.681684    3.543648
     32          1           0       -2.212173   -2.175683    2.562739
     33          1           0       -1.952352   -1.447451    0.990109
     34          1           0       -2.946911    0.060368    3.483524
     35          1           0       -3.949619   -0.426708    2.110881
     36          1           0       -2.686613    0.792230    1.898000
 ---------------------------------------------------------------------

 SCF Done:  E(UB3LYP) =  -771.283284708     A.U. after    2 cycles

 Alpha  occ. eigenvalues --  -18.93808 -18.93785 -10.08524 -10.08509 -10.08469
 Alpha  occ. eigenvalues --  -10.08209 -10.06923 -10.05417 -10.05369 -10.05320
 Alpha  occ. eigenvalues --  -10.04579 -10.04564 -10.04419 -10.04328 -10.04277
 Alpha  occ. eigenvalues --  -10.04122 -10.03779 -10.03724  -0.86279  -0.85994
 Alpha  occ. eigenvalues --   -0.73139  -0.71309  -0.69150  -0.65399  -0.62932
 Alpha  occ. eigenvalues --   -0.62405  -0.59760  -0.56049  -0.53054  -0.51234
 Alpha  occ. eigenvalues --   -0.48529  -0.47296  -0.45733  -0.42452  -0.39318
 Alpha  occ. eigenvalues --   -0.38229  -0.36855  -0.34789  -0.34126  -0.33450
 Alpha  occ. eigenvalues --   -0.32178  -0.31959  -0.30031  -0.29945  -0.29252
 Alpha  occ. eigenvalues --   -0.28155  -0.27678  -0.27360  -0.27203  -0.26322
 Alpha  occ. eigenvalues --   -0.25736  -0.24785  -0.24364  -0.23886  -0.23193
 Alpha  occ. eigenvalues --   -0.22920  -0.22130  -0.21665  -0.20769  -0.20487
 Alpha  occ. eigenvalues --   -0.13669  -0.12987  -0.11534  -0.10851  -0.09842
 Alpha  occ. eigenvalues --   -0.01713
 Alpha virt. eigenvalues --    0.06011   0.08397   0.08448   0.08510   0.09242
 Alpha virt. eigenvalues --    0.09443   0.10294   0.10467   0.10915   0.11285
 Alpha virt. eigenvalues --    0.11991   0.12031   0.13072   0.13372   0.13613

  Beta  occ. eigenvalues --  -18.93147 -18.93141 -10.08523 -10.08378 -10.08333
  Beta  occ. eigenvalues --  -10.08209 -10.06921 -10.05404 -10.05332 -10.05282
  Beta  occ. eigenvalues --  -10.04586 -10.04572 -10.04430 -10.04261 -10.04210
  Beta  occ. eigenvalues --  -10.03970 -10.03738 -10.03643  -0.85166  -0.84845
  Beta  occ. eigenvalues --   -0.72945  -0.71274  -0.68816  -0.65239  -0.62753
  Beta  occ. eigenvalues --   -0.62254  -0.59559  -0.55883  -0.52479  -0.51050
  Beta  occ. eigenvalues --   -0.48486  -0.47190  -0.45432  -0.42215  -0.39214
  Beta  occ. eigenvalues --   -0.38141  -0.36650  -0.34747  -0.34006  -0.33294
  Beta  occ. eigenvalues --   -0.32085  -0.31831  -0.29988  -0.29537  -0.29059
  Beta  occ. eigenvalues --   -0.27924  -0.27584  -0.26854  -0.26740  -0.26002
  Beta  occ. eigenvalues --   -0.25370  -0.24718  -0.24151  -0.23447  -0.23102
  Beta  occ. eigenvalues --   -0.22016  -0.21022  -0.20889  -0.20309  -0.20210
  Beta  occ. eigenvalues --   -0.12363  -0.11546  -0.10283  -0.10112  -0.09235
  Beta virt. eigenvalues --    0.04910   0.06009   0.08403   0.08445   0.08505
  Beta virt. eigenvalues --    0.09348   0.09939   0.10320   0.10482   0.11275
  Beta virt. eigenvalues --    0.11853   0.11998   0.12105   0.13077   0.13437

 Mulliken charges and spin densities:
               1          2
     1  C    0.168390   0.023469
     2  C   -0.382277   0.028992
     3  C   -0.356654   0.028992
     4  C    0.367993   0.024344
     5  C   -0.097764   0.028787
     6  C    0.067376   0.026477
     7  C   -1.015902   0.063981
     8  C    1.090480   0.107249
     9  C    1.181790   0.090687
    10  C   -1.195433   0.074177
    11  O   -0.385184   0.246458
    12  O   -0.369240   0.239683
    13  H    0.118326  -0.002553
    14  C   -0.470593   0.010060
    15  H    0.117618  -0.002404
    16  C   -0.564635  -0.003197
    17  C   -0.583186   0.002097
    18  C   -0.154316   0.005821
    19  C   -0.158123  -0.001224
    20  C   -0.642874   0.000154
    21  H    0.158929  -0.002059
    22  H    0.159743  -0.002273
    23  H    0.218224   0.003175
    24  H    0.148538   0.000568
    25  H    0.196476  -0.002012
    26  H    0.129436   0.005659
    27  H    0.138112   0.006870
    28  H    0.099113  -0.001324
    29  H    0.184710  -0.001180
    30  H    0.106454   0.000660
    31  H    0.086974  -0.000398
    32  H    0.121905   0.000295
    33  H    0.127515  -0.000112
    34  H    0.129040  -0.000013
    35  H    0.125997   0.000090
    36  H    0.133044   0.000001
 Sum of Mulliken charges =  -1.00000   1.00000

 Dipole moment (field-independent basis, Debye):
    X=            -18.7644    Y=             17.5298    Z=             -7.4879  Tot=             26.7482
 Quadrupole moment (field-independent basis, Debye-Ang):
   XX=           -203.2341   YY=           -198.0244   ZZ=           -143.0338
   XY=             80.7912   XZ=            -31.7865   YZ=             38.7110

  Exact polarizability: 229.196 -73.907 210.958 -40.784  -5.325 242.590
 Approx polarizability: 298.975 -93.687 344.098 -34.292 -46.772 394.313

                      1                      2                      3
                      A                      A                      A
 Frequencies --     26.9535                36.4192                53.9233
 Red. masses --      4.3659                 5.0983                 1.6379
 Frc consts  --      0.0019                 0.0040                 0.0028
 IR Inten    --      0.3198                 1.0157                 0.2030

                      4                      5                      6
                      A                      A                      A
 Frequencies --     80.4852               100.5617               104.8281
 Red. masses --      4.7901                 2.6607                 1.4503
 Frc consts  --      0.0183                 0.0159                 0.0094
 IR Inten    --      7.8299                 0.7752                 0.0701

                      7                      8                      9
                      A                      A                      A
 Frequencies --    119.7290               142.1608               144.5945
 Red. masses --      1.8176                 1.8100                 4.0963
 Frc consts  --      0.0154                 0.0216                 0.0505
 IR Inten    --      0.1101                 0.0644                 0.0352

                     10                     11                     12
                      A                      A                      A
 Frequencies --    162.1535               191.1251               242.7099
 Red. masses --      4.2905                 5.7365                 1.1212
 Frc consts  --      0.0665                 0.1235                 0.0389
 IR Inten    --      1.1410                 0.6957                 0.0181

                     13                     14                     15
                      A                      A                      A
 Frequencies --    255.0970               283.2239               333.0011
 Red. masses --      4.2101                 4.2526                 2.7985
 Frc consts  --      0.1614                 0.2010                 0.1828
 IR Inten    --      4.0564                 0.4665                 0.2721

                     16                     17                     18
                      A                      A                      A
 Frequencies --    342.6472               349.1764               388.1368
 Red. masses --      3.1113                 3.7452                 8.4777
 Frc consts  --      0.2152                 0.2690                 0.7525
 IR Inten    --      0.3653                 0.4699                11.3082

                     19                     20                     21
                      A                      A                      A
 Frequencies --    404.7853               427.8766               435.3529
 Red. masses --      4.1249                 6.2313                 4.1784
 Frc consts  --      0.3982                 0.6722                 0.4666
 IR Inten    --      0.3589                 2.7610                 1.4690

                     22                     23                     24
                      A                      A                      A
 Frequencies --    452.4892               481.9896               524.1209
 Red. masses --      3.8166                 5.4403                 6.8040
 Frc consts  --      0.4604                 0.7446                 1.1012
 IR Inten    --      1.5396                 1.2712                 0.6321

                     25                     26                     27
                      A                      A                      A
 Frequencies --    562.5865               636.6865               675.3302
 Red. masses --      4.8817                 5.0567                 5.7054
 Frc consts  --      0.9103                 1.2077                 1.5331
 IR Inten    --      3.9544                17.9815                 1.8819

                     28                     29                     30
                      A                      A                      A
 Frequencies --    676.5260               691.5106               718.1604
 Red. masses --      3.3811                 3.5614                 2.9874
 Frc consts  --      0.9118                 1.0034                 0.9078
 IR Inten    --      1.0113                21.2672                35.1719

                     31                     32                     33
                      A                      A                      A
 Frequencies --    730.7967               754.9504               779.0500
 Red. masses --      1.1035                 1.2478                 1.8907
 Frc consts  --      0.3472                 0.4190                 0.6761
 IR Inten    --      3.0982                 0.6445                22.6177

                     34                     35                     36
                      A                      A                      A
 Frequencies --    799.1501               819.0651               860.4178
 Red. masses --      4.5772                 2.0154                 1.7806
 Frc consts  --      1.7223                 0.7966                 0.7767
 IR Inten    --      0.1062                 1.4637                 2.9047

                     37                     38                     39
                      A                      A                      A
 Frequencies --    870.9732               889.3987               919.9971
 Red. masses --      1.4788                 2.1220                 2.6847
 Frc consts  --      0.6610                 0.9890                 1.3388
 IR Inten    --      0.0004                 1.6808                 8.1872

                     40                     41                     42
                      A                      A                      A
 Frequencies --    976.8650               978.2813               980.4339
 Red. masses --      1.5046                 1.3656                 1.2581
 Frc consts  --      0.8460                 0.7700                 0.7125
 IR Inten    --      1.0646                 2.7862                 0.0423

                     43                     44                     45
                      A                      A                      A
 Frequencies --    989.2322              1001.0205              1029.8881
 Red. masses --      2.8409                 3.5559                 2.8791
 Frc consts  --      1.6379                 2.0994                 1.7993
 IR Inten    --      5.8697                 0.6003                 0.4413

                     46                     47                     48
                      A                      A                      A
 Frequencies --   1037.1015              1043.7083              1060.0543
 Red. masses --      2.0642                 1.5285                 2.3491
 Frc consts  --      1.3081                 0.9810                 1.5552
 IR Inten    --     21.9812                 1.5770                 1.0906

                     49                     50                     51
                      A                      A                      A
 Frequencies --   1062.2221              1105.1083              1124.1174
 Red. masses --      1.7583                 2.1060                 2.3114
 Frc consts  --      1.1689                 1.5154                 1.7209
 IR Inten    --      2.6882                 4.3370                 8.1559

                     52                     53                     54
                      A                      A                      A
 Frequencies --   1139.3067              1145.2959              1182.3258
 Red. masses --      1.8469                 1.4539                 2.5881
 Frc consts  --      1.4125                 1.1236                 2.1316
 IR Inten    --     26.9217                 4.6733                 0.5660

                     55                     56                     57
                      A                      A                      A
 Frequencies --   1209.7622              1227.1745              1241.4918
 Red. masses --      2.0755                 1.8352                 2.6509
 Frc consts  --      1.7897                 1.6283                 2.4073
 IR Inten    --      0.1661                12.7292                18.8303

                     58                     59                     60
                      A                      A                      A
 Frequencies --   1259.3267              1273.0343              1297.8021
 Red. masses --      1.2904                 2.0061                 1.2932
 Frc consts  --      1.2057                 1.9155                 1.2833
 IR Inten    --      0.2440                29.8583                 0.3088

                     61                     62                     63
                      A                      A                      A
 Frequencies --   1326.3467              1328.6791              1333.1369
 Red. masses --      1.0478                 1.2740                 1.2238
 Frc consts  --      1.0861                 1.3251                 1.2815
 IR Inten    --      1.5868                 3.7880                 2.3034

                     64                     65                     66
                      A                      A                      A
 Frequencies --   1357.2478              1371.1670              1378.0117
 Red. masses --     10.2618                 1.4322                 1.3466
 Frc consts  --     11.1376                 1.5864                 1.5066
 IR Inten    --      8.7477                 4.3838                11.1123

                     67                     68                     69
                      A                      A                      A
 Frequencies --   1388.0210              1404.2531              1405.3260
 Red. masses --      1.5771                 1.4435                 2.1077
 Frc consts  --      1.7902                 1.6771                 2.4526
 IR Inten    --      2.0576                13.0694                52.5715

                     70                     71                     72
                      A                      A                      A
 Frequencies --   1455.4653              1471.0755              1477.8256
 Red. masses --      1.6901                 2.6538                 1.2967
 Frc consts  --      2.1095                 3.3836                 1.6686
 IR Inten    --    134.0613                48.6654                 2.3770

                     73                     74                     75
                      A                      A                      A
 Frequencies --   1482.5499              1485.4153              1489.0970
 Red. masses --      1.1634                 1.5389                 1.0765
 Frc consts  --      1.5066                 2.0006                 1.4064
 IR Inten    --      3.9688                 1.6705                 0.8045

                     76                     77                     78
                      A                      A                      A
 Frequencies --   1496.8471              1499.1714              1502.3325
 Red. masses --      1.0406                 1.0776                 1.1065
 Frc consts  --      1.3737                 1.4269                 1.4713
 IR Inten    --      6.4671                 1.1490                 5.2990

                     79                     80                     81
                      A                      A                      A
 Frequencies --   1510.3864              1511.0245              1521.4477
 Red. masses --      1.0942                 3.7440                 4.9416
 Frc consts  --      1.4707                 5.0364                 6.7395
 IR Inten    --      8.7209                 7.2116               413.9614

                     82                     83                     84
                      A                      A                      A
 Frequencies --   1544.2258              1612.8620              1625.8346
 Red. masses --      5.2265                 8.1046                 5.9903
 Frc consts  --      7.3432                12.4215                 9.3294
 IR Inten    --     32.3917                 3.6372                 5.6957

                     85                     86                     87
                      A                      A                      A
 Frequencies --   2980.3470              2990.5200              2998.3593
 Red. masses --      1.0604                 1.0465                 1.0666
 Frc consts  --      5.5495                 5.5142                 5.6494
 IR Inten    --     22.7351                87.1343                 4.0170

                     88                     89                     90
                      A                      A                      A
 Frequencies --   3000.0191              3006.9789              3010.2719
 Red. masses --      1.0760                 1.0354                 1.0768
 Frc consts  --      5.7057                 5.5158                 5.7491
 IR Inten    --     23.6971                61.1878                22.8869

                     91                     92                     93
                      A                      A                      A
 Frequencies --   3020.3892              3031.4572              3033.6821
 Red. masses --      1.0634                 1.0995                 1.0918
 Frc consts  --      5.7157                 5.9534                 5.9200
 IR Inten    --    106.3981                21.6662                51.7088

                     94                     95                     96
                      A                      A                      A
 Frequencies --   3049.5985              3065.1882              3067.5036
 Red. masses --      1.0959                 1.1009                 1.1030
 Frc consts  --      6.0049                 6.0940                 6.1147
 IR Inten    --      4.6168                59.2877                11.5410

                     97                     98                     99
                      A                      A                      A
 Frequencies --   3070.8300              3110.2833              3130.1942
 Red. masses --      1.1031                 1.0948                 1.0846
 Frc consts  --      6.1288                 6.2400                 6.2610
 IR Inten    --    115.9429                 7.5645                16.4527

                    100                    101                    102
                      A                      A                      A
 Frequencies --   3149.8214              3180.2514              3182.8330
 Red. masses --      1.0913                 1.0912                 1.0926
 Frc consts  --      6.3793                 6.5024                 6.5215
 IR Inten    --     56.0770                12.1312                27.8353

 - Thermochemistry -
 -------------------
 Temperature   298.150 Kelvin.  Pressure   1.00000 Atm.
 Atom     1 has atomic number  6 and mass  12.00000

 Molecular mass:   242.13068 amu.
 Principal axes and moments of inertia in atomic units:
                           1         2         3
     Eigenvalues --  2228.851058893.43910**********
           X            0.83855   0.05045   0.54249
           Y           -0.49224  -0.35666   0.79404
           Z           -0.23354   0.93287   0.27424
 This molecule is an asymmetric top.
 Rotational symmetry number  1.
 Warning -- assumption of classical behavior for rotation
           may cause significant error
 Rotational temperatures (Kelvin)      0.03886     0.00974     0.00819
 Rotational constants (GHZ):           0.80972     0.20293     0.17063
 Zero-point vibrational energy     782883.9 (Joules/Mol)
                                  187.11375 (Kcal/Mol)
 Warning -- explicit consideration of  25 degrees of freedom as
           vibrations may cause significant error
 Vibrational temperatures:     38.78    52.40    77.58   115.80   144.69
          (Kelvin)            150.82   172.26   204.54   208.04   233.30
                              274.99   349.21   367.03   407.50   479.11
                              492.99   502.39   558.44   582.40   615.62
                              626.38   651.03   693.48   754.09   809.44
                              916.05   971.65   973.37   994.93  1033.27
                             1051.45  1086.21  1120.88  1149.80  1178.45
                             1237.95  1253.14  1279.65  1323.67  1405.49
                             1407.53  1410.63  1423.28  1440.25  1481.78
                             1492.16  1501.66  1525.18  1528.30  1590.00
                             1617.35  1639.21  1647.83  1701.10  1740.58
                             1765.63  1786.23  1811.89  1831.61  1867.25
                             1908.32  1911.67  1918.09  1952.78  1972.80
                             1982.65  1997.05  2020.41  2021.95  2094.09
                             2116.55  2126.26  2133.06  2137.18  2142.48
                             2153.63  2156.97  2161.52  2173.11  2174.03
                             2189.02  2221.80  2320.55  2339.21  4288.05
                             4302.69  4313.97  4316.36  4326.37  4331.11
                             4345.67  4361.59  4364.79  4387.69  4410.12
                             4413.45  4418.24  4475.00  4503.65  4531.89
                             4575.67  4579.39

 Zero-point correction=                           0.298185 (Hartree/Particle)
 Thermal correction to Energy=                    0.315586
 Thermal correction to Enthalpy=                  0.316530
 Thermal correction to Gibbs Free Energy=         0.251136
 Sum of electronic and zero-point Energies=           -770.985100
 Sum of electronic and thermal Energies=              -770.967699
 Sum of electronic and thermal Enthalpies=            -770.966755
 Sum of electronic and thermal Free Energies=         -771.032149

                     E (Thermal)             CV                S
                      KCal/Mol        Cal/Mol-Kelvin    Cal/Mol-Kelvin
 Total                  198.033             65.937            137.633
 Electronic               0.000              0.000              1.377
 Translational            0.889              2.981             42.354
 Rotational               0.889              2.981             33.705
 Vibrational            196.256             59.975             60.197
 Vibration     1          0.593              1.984              6.042
 Vibration     2          0.594              1.982              5.445
 Vibration     3          0.596              1.976              4.668
 Vibration     4          0.600              1.962              3.879
 Vibration     5          0.604              1.949              3.443
 Vibration     6          0.605              1.945              3.363
 Vibration     7          0.609              1.933              3.105
 Vibration     8          0.616              1.911              2.775
 Vibration     9          0.616              1.909              2.742
 Vibration    10          0.622              1.889              2.525
 Vibration    11          0.634              1.852              2.217
 Vibration    12          0.659              1.775              1.783
 Vibration    13          0.665              1.754              1.695
 Vibration    14          0.682              1.705              1.514
 Vibration    15          0.715              1.610              1.245
 Vibration    16          0.722              1.590              1.200
 Vibration    17          0.726              1.577              1.170
 Vibration    18          0.756              1.496              1.007
 Vibration    19          0.770              1.460              0.945
 Vibration    20          0.789              1.410              0.866
 Vibration    21          0.796              1.393              0.841
 Vibration    22          0.811              1.355              0.788
 Vibration    23          0.838              1.290              0.705
 Vibration    24          0.879              1.197              0.600
 Vibration    25          0.918              1.112              0.519

 Optimization completed.
    -- Stationary point found.
 Normal termination of Gaussian 16 at Sun Jan  7 22:38:18 2024.
