 Q-Chem 5.4, Q-Chem, Inc., Pleasanton, CA (2021)
 Q-Chem 5.4.0 for Intel X86 EM64T Linux

User input:
--------------------------------------------------------------
$molecule
-1 2
N                 -4.5507310000      1.0213580000     -0.4183320000
C                 -3.2855840000      0.4494510000     -0.3604640000
C                 -3.1441430000     -0.9628090000     -0.3821520000
Cl                -4.6063350000     -1.9606060000     -0.5774540000
C                 -1.9284700000     -1.5757760000     -0.2752370000
C                 -0.7527600000     -0.8203920000     -0.1283050000
C                  0.4976180000     -1.5799830000     -0.0183410000
O                  0.5098610000     -2.8337690000     -0.0517790000
C                  1.7166650000     -0.7946560000      0.1292440000
C                  2.9613680000     -1.4523630000      0.2362640000
C                  4.1331460000     -0.7375150000      0.3787940000
C                  4.0915880000      0.6735760000      0.4197890000
C                  2.8838770000      1.3338690000      0.3175340000
C                  1.6707030000      0.6234870000      0.1693100000
C                  0.4216190000      1.3892170000      0.0670410000
O                  0.4470000000      2.6413640000      0.1256440000
C                 -0.8161730000      0.6131350000     -0.0981110000
C                 -2.1093380000      1.1936050000     -0.2290760000
Br                -2.3783140000      3.1154410000     -0.2734010000
H                 -4.5568360000      1.9972740000     -0.6794580000
H                 -5.2530910000      0.4563950000     -0.8715410000
H                 -1.8302680000     -2.6532790000     -0.2987610000
H                  2.9571770000     -2.5356570000      0.2021800000
H                  5.0838380000     -1.2559030000      0.4597880000
H                  5.0118570000      1.2392460000      0.5321260000
H                  2.8257250000      2.4152900000      0.3472860000
$end
$rem
MAX_SCF_CYCLES=200
BASIS  =  6-311++G(d,p)
GUI  =  2
JOB_TYPE  =  SP
METHOD  =  B3LYP
SOLVENT_METHOD = PCM
$end
$pcm
theory = CPCM
$end
$solvent
dielectric 37.219
opticaldielectric 1.43
$end

--------------------------------------------------------------

             Standard Nuclear Orientation (Angstroms)
    I     Atom           X                Y                Z
 ----------------------------------------------------------------
    1      N      -4.5507310000     1.0213580000    -0.4183320000
    2      C      -3.2855840000     0.4494510000    -0.3604640000
    3      C      -3.1441430000    -0.9628090000    -0.3821520000
    4      Cl     -4.6063350000    -1.9606060000    -0.5774540000
    5      C      -1.9284700000    -1.5757760000    -0.2752370000
    6      C      -0.7527600000    -0.8203920000    -0.1283050000
    7      C       0.4976180000    -1.5799830000    -0.0183410000
    8      O       0.5098610000    -2.8337690000    -0.0517790000
    9      C       1.7166650000    -0.7946560000     0.1292440000
   10      C       2.9613680000    -1.4523630000     0.2362640000
   11      C       4.1331460000    -0.7375150000     0.3787940000
   12      C       4.0915880000     0.6735760000     0.4197890000
   13      C       2.8838770000     1.3338690000     0.3175340000
   14      C       1.6707030000     0.6234870000     0.1693100000
   15      C       0.4216190000     1.3892170000     0.0670410000
   16      O       0.4470000000     2.6413640000     0.1256440000
   17      C      -0.8161730000     0.6131350000    -0.0981110000
   18      C      -2.1093380000     1.1936050000    -0.2290760000
   19      Br     -2.3783140000     3.1154410000    -0.2734010000
   20      H      -4.5568360000     1.9972740000    -0.6794580000
   21      H      -5.2530910000     0.4563950000    -0.8715410000
   22      H      -1.8302680000    -2.6532790000    -0.2987610000
   23      H       2.9571770000    -2.5356570000     0.2021800000
   24      H       5.0838380000    -1.2559030000     0.4597880000
   25      H       5.0118570000     1.2392460000     0.5321260000
   26      H       2.8257250000     2.4152900000     0.3472860000
 ----------------------------------------------------------------

    8   -3777.6314831301      9.46e-06  Convergence criterion met
 Total energy in the final basis set =    -3777.6314831301

                    Orbital Energies (a.u.)
 --------------------------------------------------------------

 Alpha MOs
 -- Occupied --
********-101.5617 -62.4810 -56.3015 -56.2978 -56.2974 -19.0798 -19.0766
-14.3262 -10.2403 -10.2390 -10.2329 -10.2307 -10.2306 -10.1952 -10.1844
-10.1810 -10.1752 -10.1737 -10.1731 -10.1724 -10.1711 -10.1697  -9.4761
 -8.6897  -7.2406  -7.2312  -7.2307  -6.5210  -6.5087  -6.5077  -2.6319
 -2.6287  -2.6278  -2.6181  -2.6180  -1.0096  -1.0069  -0.9445  -0.8770
 -0.8607  -0.8490  -0.8030  -0.7783  -0.7520  -0.7358  -0.7345  -0.6690
 -0.6403  -0.6213  -0.5974  -0.5647  -0.5452  -0.5331  -0.5169  -0.4941
 -0.4708  -0.4640  -0.4582  -0.4369  -0.4312  -0.4243  -0.4225  -0.4190
 -0.4086  -0.4077  -0.4023  -0.3876  -0.3642  -0.3581  -0.3556  -0.3508
 -0.3387  -0.3281  -0.3168  -0.3083  -0.2982  -0.2662  -0.2580  -0.2518
 -0.2495  -0.2328  -0.2260  -0.1436

 Beta MOs
 -- Occupied --
********-101.5616 -62.4810 -56.3015 -56.2978 -56.2974 -19.0753 -19.0709
-14.3259 -10.2399 -10.2386 -10.2323 -10.2289 -10.2286 -10.1943 -10.1844
-10.1804 -10.1745 -10.1729 -10.1727 -10.1720 -10.1711 -10.1696  -9.4761
 -8.6897  -7.2406  -7.2311  -7.2307  -6.5210  -6.5087  -6.5076  -2.6319
 -2.6286  -2.6278  -2.6180  -2.6179  -1.0010  -0.9971  -0.9437  -0.8762
 -0.8584  -0.8479  -0.8018  -0.7752  -0.7497  -0.7343  -0.7325  -0.6621
 -0.6385  -0.6189  -0.5965  -0.5625  -0.5435  -0.5318  -0.5155  -0.4924
 -0.4682  -0.4631  -0.4574  -0.4322  -0.4277  -0.4235  -0.4204  -0.4158
 -0.4050  -0.4017  -0.3982  -0.3677  -0.3633  -0.3544  -0.3533  -0.3446
 -0.3376  -0.3279  -0.3088  -0.3048  -0.2972  -0.2536  -0.2492  -0.2453
 -0.2452  -0.2283  -0.2196

          Ground-State Mulliken Net Atomic Charges

     Atom                 Charge (a.u.)    Spin (a.u.)
  --------------------------------------------------------
      1 N                    -0.232605       0.010107
      2 C                    -0.887123       0.025422
      3 C                     1.022603       0.028256
      4 Cl                    0.405355       0.002371
      5 C                    -0.179626       0.017799
      6 C                    -0.287556       0.028445
      7 C                    -0.574337       0.096446
      8 O                    -0.468245       0.176678
      9 C                     0.000915       0.022201
     10 C                     0.031298       0.022750
     11 C                    -0.457178       0.039667
     12 C                    -0.516562       0.029906
     13 C                     0.130171       0.033972
     14 C                     0.191319       0.021164
     15 C                    -1.006766       0.109200
     16 O                    -0.375100       0.217329
     17 C                     0.740290       0.070757
     18 C                     0.139864       0.054692
     19 Br                   -0.167993       0.003586
     20 H                     0.273523      -0.000434
     21 H                     0.260845       0.000094
     22 H                     0.215868      -0.001291
     23 H                     0.168866      -0.001137
     24 H                     0.200684      -0.003135
     25 H                     0.198149      -0.002711
     26 H                     0.173342      -0.002133
  --------------------------------------------------------
  Sum of atomic charges =    -1.000000

                    Cartesian Multipole Moments
 -----------------------------------------------------------------
    Charge (ESU x 10^10)
                -4.8032
    Dipole Moment (Debye)
         X      -0.9105      Y       0.3009      Z      -1.1967
       Tot       1.5335
    Quadrupole Moments (Debye-Ang)
        XX    -127.5101     XY      -2.8456     YY    -168.1863
        XZ       6.9013     YZ      -2.7369     ZZ    -134.8438

 Total job time:  94.48s(wall), 443.73s(cpu)
        *  Thank you very much for using Q-Chem.  Have a nice day.  *
