 Gaussian 16, Revision A.03,
 Gaussian 16:  ES64L-G16RevA.03 25-Dec-2016

 ----------------------------------------------------------------------
 #P UB3LYP/6-311++G(d,p) nosym opt freq SCRF=(PCM,Solvent=n,n-DiMethylF
 ormamide)
 ----------------------------------------------------------------------

 -------
 Radical
 -------
 Symbolic Z-matrix:
 Charge = -1 Multiplicity = 2

 SCF Done:  E(UB3LYP) =  -914.858309899     A.U. after   18 cycles
 SCF Done:  E(UB3LYP) =  -914.858540830     A.U. after   14 cycles
 SCF Done:  E(UB3LYP) =  -914.858573215     A.U. after   14 cycles
 SCF Done:  E(UB3LYP) =  -914.858594116     A.U. after   13 cycles
 SCF Done:  E(UB3LYP) =  -914.858608497     A.U. after   12 cycles
 SCF Done:  E(UB3LYP) =  -914.858612258     A.U. after   11 cycles
 SCF Done:  E(UB3LYP) =  -914.858613602     A.U. after   11 cycles
 SCF Done:  E(UB3LYP) =  -914.858613783     A.U. after   10 cycles
 SCF Done:  E(UB3LYP) =  -914.858613971     A.U. after    9 cycles
 Optimization completed.
    -- Stationary point found.
 Normal termination of Gaussian 16 at Sat Feb 10 22:56:31 2024.

 ----------------------------------------------------------------------
 #P Geom=AllCheck Guess=TCheck SCRF=Check GenChk UB3LYP/6-311++G(d,p) F
 req
 ----------------------------------------------------------------------

 Structure from the checkpoint file:  "201-rad.chk"
 -------
 Radical
 -------
 Charge = -1 Multiplicity = 2

                          Input orientation:
 ---------------------------------------------------------------------
 Center     Atomic      Atomic             Coordinates (Angstroms)
 Number     Number       Type             X           Y           Z
 ---------------------------------------------------------------------
      1          8           0       -2.735260    2.512821   -0.437653
      2          6           0       -2.660094    1.179316   -0.210668
      3          6           0       -3.836161    0.455146   -0.079389
      4          6           0       -3.785358   -0.927415    0.154829
      5          6           0       -2.571356   -1.584544    0.256790
      6          6           0       -1.361087   -0.876370    0.130473
      7          6           0       -0.089555   -1.610330    0.245578
      8          8           0       -0.109342   -2.851895    0.426410
      9          6           0        1.150015   -0.833846    0.138862
     10          6           0        2.434002   -1.430786    0.270228
     11          8           0        2.548504   -2.773754    0.525958
     12          6           0        3.587577   -0.665283    0.148175
     13          6           0        3.528521    0.707189   -0.102315
     14          6           0        2.302463    1.337661   -0.230410
     15          8           0        2.287615    2.674447   -0.468720
     16          6           0        1.092709    0.586948   -0.110608
     17          6           0       -0.169172    1.269183   -0.238005
     18          8           0       -0.211395    2.556029   -0.467203
     19          6           0       -1.391343    0.525565   -0.106221
     20          1           0       -1.788160    2.826145   -0.499909
     21          1           0       -4.783323    0.975849   -0.161083
     22          1           0       -4.712092   -1.481888    0.256257
     23          1           0       -2.526944   -2.650292    0.436651
     24          1           0        3.487446   -2.988621    0.587676
     25          1           0        4.555580   -1.146430    0.251891
     26          1           0        4.436111    1.291603   -0.195802
     27          1           0        1.320101    2.923551   -0.521790
 ---------------------------------------------------------------------

 SCF Done:  E(UB3LYP) =  -914.858613971     A.U. after    1 cycles

 Alpha  occ. eigenvalues --  -19.15171 -19.13545 -19.13143 -19.10232 -19.07657
 Alpha  occ. eigenvalues --  -10.24020 -10.23900 -10.23853 -10.23457 -10.23410
 Alpha  occ. eigenvalues --  -10.18510 -10.18456 -10.18077 -10.17851 -10.17692
 Alpha  occ. eigenvalues --  -10.17663 -10.17211 -10.16808 -10.16499  -1.06384
 Alpha  occ. eigenvalues --   -1.06137  -1.05098  -1.00651  -1.00409  -0.86437
 Alpha  occ. eigenvalues --   -0.84857  -0.79351  -0.75124  -0.74846  -0.73746
 Alpha  occ. eigenvalues --   -0.67791  -0.64972  -0.64224  -0.59642  -0.58962
 Alpha  occ. eigenvalues --   -0.56186  -0.54031  -0.52949  -0.51071  -0.49106
 Alpha  occ. eigenvalues --   -0.47896  -0.47239  -0.45212  -0.44473  -0.44295
 Alpha  occ. eigenvalues --   -0.42829  -0.42547  -0.41756  -0.41128  -0.40330
 Alpha  occ. eigenvalues --   -0.39713  -0.38782  -0.38391  -0.37224  -0.37167
 Alpha  occ. eigenvalues --   -0.36496  -0.35855  -0.34699  -0.33191  -0.31308
 Alpha  occ. eigenvalues --   -0.27680  -0.26766  -0.25571  -0.23741  -0.23467
 Alpha  occ. eigenvalues --   -0.21807  -0.14656
 Alpha virt. eigenvalues --   -0.04773  -0.02884  -0.00264   0.00360   0.00929
 Alpha virt. eigenvalues --    0.01051   0.01941   0.02200   0.03823   0.04231
 Alpha virt. eigenvalues --    0.04452   0.04637   0.04677   0.05996   0.06282

  Beta  occ. eigenvalues --  -19.15146 -19.13513 -19.13087 -19.09796 -19.07160
  Beta  occ. eigenvalues --  -10.23860 -10.23844 -10.23706 -10.23392 -10.23310
  Beta  occ. eigenvalues --  -10.18528 -10.18390 -10.18107 -10.17737 -10.17586
  Beta  occ. eigenvalues --  -10.17567 -10.17136 -10.16764 -10.16499  -1.06321
  Beta  occ. eigenvalues --   -1.05935  -1.04995  -0.99939  -0.99561  -0.86174
  Beta  occ. eigenvalues --   -0.84706  -0.78959  -0.74937  -0.74531  -0.73574
  Beta  occ. eigenvalues --   -0.67131  -0.64764  -0.64019  -0.59511  -0.58790
  Beta  occ. eigenvalues --   -0.56054  -0.53829  -0.52828  -0.50954  -0.48885
  Beta  occ. eigenvalues --   -0.47723  -0.47103  -0.45115  -0.44179  -0.43637
  Beta  occ. eigenvalues --   -0.42579  -0.42400  -0.41373  -0.40760  -0.39670
  Beta  occ. eigenvalues --   -0.39586  -0.38689  -0.37333  -0.37072  -0.36412
  Beta  occ. eigenvalues --   -0.35728  -0.35546  -0.34567  -0.32470  -0.30611
  Beta  occ. eigenvalues --   -0.26447  -0.26006  -0.25129  -0.23285  -0.22546
  Beta  occ. eigenvalues --   -0.20967
  Beta virt. eigenvalues --   -0.09263  -0.03482  -0.01868  -0.00248   0.00370
  Beta virt. eigenvalues --    0.00949   0.01447   0.01955   0.02209   0.03838
  Beta virt. eigenvalues --    0.04250   0.04559   0.04694   0.05557   0.06295

 Mulliken charges and spin densities:
               1          2
     1  O   -0.402393   0.010215
     2  C   -0.004467   0.049703
     3  C   -0.253770   0.026594
     4  C   -0.373883   0.061562
     5  C   -0.202753   0.024106
     6  C    0.311563   0.075122
     7  C   -0.322709   0.049046
     8  O   -0.443945   0.186842
     9  C    0.193410   0.039801
    10  C   -0.298771   0.022341
    11  O   -0.250144   0.006592
    12  C   -0.185739   0.090441
    13  C   -0.121163   0.047908
    14  C   -0.267166   0.063263
    15  O   -0.417319   0.016948
    16  C    0.580356  -0.040004
    17  C   -0.378787   0.184762
    18  O   -0.576805   0.150471
    19  C    0.421451  -0.038973
    20  H    0.397329  -0.002260
    21  H    0.185042  -0.002921
    22  H    0.190979  -0.004460
    23  H    0.158731  -0.001443
    24  H    0.293263  -0.000641
    25  H    0.171593  -0.007826
    26  H    0.196355  -0.004621
    27  H    0.399739  -0.002569
 Sum of Mulliken charges =  -1.00000   1.00000

 Dipole moment (field-independent basis, Debye):
    X=              2.7987    Y=             -0.9244    Z=              0.3959  Tot=              2.9739
 Quadrupole moment (field-independent basis, Debye-Ang):
   XX=           -108.5902   YY=           -150.5752   ZZ=           -116.3868
   XY=             -4.2983   XZ=              1.0209   YZ=              5.5043

  Exact polarizability: 496.693   2.446 355.884   1.384 -38.472 137.248
 Approx polarizability: 515.433   3.539 436.957   1.165 -48.842 159.239

                      1                      2                      3
                      A                      A                      A
 Frequencies --     53.5670                70.6545               108.2622
 Red. masses --      6.6917                 7.4802                 9.8247
 Frc consts  --      0.0113                 0.0220                 0.0678
 IR Inten    --      8.6111                 2.4233                 5.5894

                      4                      5                      6
                      A                      A                      A
 Frequencies --    128.6047               169.9793               215.6964
 Red. masses --      6.8687                 7.1712                 6.4950
 Frc consts  --      0.0669                 0.1221                 0.1780
 IR Inten    --      0.0303                 0.5852                 5.1166

                      7                      8                      9
                      A                      A                      A
 Frequencies --    222.3297               272.5747               297.3029
 Red. masses --      4.6865                 5.3509                 7.8058
 Frc consts  --      0.1365                 0.2342                 0.4065
 IR Inten    --      2.6563                 1.8737                13.1077

                     10                     11                     12
                      A                      A                      A
 Frequencies --    335.2058               339.4059               366.1114
 Red. masses --      1.4596                 6.0876                12.3978
 Frc consts  --      0.0966                 0.4132                 0.9791
 IR Inten    --     92.8627                 6.2830                 9.1254

                     13                     14                     15
                      A                      A                      A
 Frequencies --    380.0730               412.6175               418.5851
 Red. masses --      3.2626                 6.2870                 6.4565
 Frc consts  --      0.2777                 0.6307                 0.6665
 IR Inten    --     40.3546                 1.0373                17.9039

                     16                     17                     18
                      A                      A                      A
 Frequencies --    451.8084               467.2272               476.4356
 Red. masses --      8.7228                 8.8839                 9.3839
 Frc consts  --      1.0491                 1.1426                 1.2550
 IR Inten    --     18.2237                86.7389                22.8107

                     19                     20                     21
                      A                      A                      A
 Frequencies --    492.7207               499.1449               518.8378
 Red. masses --      4.5487                 7.8119                 6.8824
 Frc consts  --      0.6506                 1.1467                 1.0916
 IR Inten    --      0.6182                 1.0745                11.5999

                     22                     23                     24
                      A                      A                      A
 Frequencies --    539.3287               583.5094               602.0406
 Red. masses --      4.5847                 7.5763                 3.9088
 Frc consts  --      0.7857                 1.5199                 0.8347
 IR Inten    --     13.3092                48.7871                13.4043

                     25                     26                     27
                      A                      A                      A
 Frequencies --    609.8805               644.0167               713.3640
 Red. masses --      4.9660                 4.6571                 4.3672
 Frc consts  --      1.0883                 1.1381                 1.3094
 IR Inten    --     16.7697                 0.8977                17.0129

                     28                     29                     30
                      A                      A                      A
 Frequencies --    715.4956               744.9494               757.9103
 Red. masses --      6.2650                 5.6611                 7.2518
 Frc consts  --      1.8897                 1.8510                 2.4543
 IR Inten    --     29.7432                 2.9379                96.9745

                     31                     32                     33
                      A                      A                      A
 Frequencies --    761.6731               800.1790               810.5395
 Red. masses --      2.5217                 1.9689                 1.9464
 Frc consts  --      0.8619                 0.7427                 0.7534
 IR Inten    --     42.4965               230.2585                52.7913

                     34                     35                     36
                      A                      A                      A
 Frequencies --    825.0289               831.5043               851.1923
 Red. masses --      1.1063                 9.0312                 1.0625
 Frc consts  --      0.4437                 3.6789                 0.4536
 IR Inten    --    130.4823               122.6216                 2.5360

                     37                     38                     39
                      A                      A                      A
 Frequencies --    890.0518               894.5562               901.5785
 Red. masses --      8.2623                 1.4374                 1.3243
 Frc consts  --      3.8564                 0.6777                 0.6342
 IR Inten    --    133.9357                 0.1388                 0.3123

                     40                     41                     42
                      A                      A                      A
 Frequencies --    958.9560               980.3271               994.1142
 Red. masses --      6.0587                 1.2901                 5.9066
 Frc consts  --      3.2827                 0.7305                 3.4392
 IR Inten    --    149.7287                 0.8728                69.2015

                     43                     44                     45
                      A                      A                      A
 Frequencies --   1066.4642              1091.3634              1162.4775
 Red. masses --      2.6605                 1.8840                 1.7203
 Frc consts  --      1.7828                 1.3221                 1.3697
 IR Inten    --    140.7031               106.0660               140.3361

                     46                     47                     48
                      A                      A                      A
 Frequencies --   1169.2684              1190.1595              1231.4347
 Red. masses --      1.2702                 1.8401                 2.3200
 Frc consts  --      1.0232                 1.5357                 2.0728
 IR Inten    --      2.4979                57.8144                 1.7336

                     49                     50                     51
                      A                      A                      A
 Frequencies --   1239.7310              1250.8379              1271.0797
 Red. masses --      4.9027                 3.2004                 2.4086
 Frc consts  --      4.4395                 2.9503                 2.2928
 IR Inten    --      7.8682                21.3588               123.3274

                     52                     53                     54
                      A                      A                      A
 Frequencies --   1280.1498              1302.8911              1329.7062
 Red. masses --      4.0913                 3.3919                 4.5895
 Frc consts  --      3.9504                 3.3924                 4.7811
 IR Inten    --    319.9716               319.2132               782.7150

                     55                     56                     57
                      A                      A                      A
 Frequencies --   1353.0950              1379.5798              1402.5082
 Red. masses --      5.2457                 5.6604                 3.7626
 Frc consts  --      5.6586                 6.3473                 4.3607
 IR Inten    --    144.9895               586.6715               153.5344

                     58                     59                     60
                      A                      A                      A
 Frequencies --   1421.8677              1480.9474              1485.2374
 Red. masses --      3.1832                 2.9399                 2.4022
 Frc consts  --      3.7917                 3.7989                 3.1221
 IR Inten    --    129.4453                74.9921               126.7656

                     61                     62                     63
                      A                      A                      A
 Frequencies --   1508.5346              1519.6348              1561.8098
 Red. masses --      2.1245                 5.3695                 2.7838
 Frc consts  --      2.8485                 7.3057                 4.0008
 IR Inten    --      9.9004              1895.6804                50.7600

                     64                     65                     66
                      A                      A                      A
 Frequencies --   1575.2426              1611.5777              1627.7633
 Red. masses --      4.6533                 5.3320                 3.9273
 Frc consts  --      6.8032                 8.1591                 6.1309
 IR Inten    --    410.1292                38.4787                54.5020

                     67                     68                     69
                      A                      A                      A
 Frequencies --   1663.0490              3037.2614              3108.3962
 Red. masses --      3.0872                 1.0699                 1.0721
 Frc consts  --      5.0307                 5.8151                 6.1032
 IR Inten    --     37.4872              1575.3083               123.2526

                     70                     71                     72
                      A                      A                      A
 Frequencies --   3151.6817              3164.8661              3184.0106
 Red. masses --      1.0894                 1.0873                 1.0930
 Frc consts  --      6.3757                 6.4168                 6.5284
 IR Inten    --     31.7622                20.0064                25.7005

                     73                     74                     75
                      A                      A                      A
 Frequencies --   3187.4398              3205.1414              3793.7277
 Red. masses --      1.0928                 1.0920                 1.0660
 Frc consts  --      6.5414                 6.6096                 9.0398
 IR Inten    --     19.3827                18.5401               118.6513

 - Thermochemistry -
 -------------------
 Temperature   298.150 Kelvin.  Pressure   1.00000 Atm.
 Atom     1 has atomic number  8 and mass  15.99491

 Molecular mass:   256.03717 amu.
 Principal axes and moments of inertia in atomic units:
                           1         2         3
     Eigenvalues --  2896.509315222.867438118.41963
           X            0.98677   0.16206  -0.00489
           Y           -0.15887   0.97251   0.17023
           Z            0.03234  -0.16720   0.98539
 This molecule is an asymmetric top.
 Rotational symmetry number  1.
 Warning -- assumption of classical behavior for rotation
           may cause significant error
 Rotational temperatures (Kelvin)      0.02990     0.01658     0.01067
 Rotational constants (GHZ):           0.62307     0.34555     0.22230
 Zero-point vibrational energy     497145.7 (Joules/Mol)
                                  118.82068 (Kcal/Mol)
 Warning -- explicit consideration of  25 degrees of freedom as
           vibrations may cause significant error
 Vibrational temperatures:     77.07   101.66   155.77   185.03   244.56
          (Kelvin)            310.34   319.88   392.17   427.75   482.29
                              488.33   526.75   546.84   593.66   602.25
                              650.05   672.24   685.48   708.92   718.16
                              746.49   775.97   839.54   866.20   877.48
                              926.60  1026.37  1029.44  1071.82  1090.46
                             1095.88  1151.28  1166.19  1187.03  1196.35
                             1224.68  1280.59  1287.07  1297.17  1379.72
                             1410.47  1430.31  1534.40  1570.23  1672.55
                             1682.32  1712.37  1771.76  1783.70  1799.68
                             1828.80  1841.85  1874.57  1913.15  1946.80
                             1984.91  2017.90  2045.75  2130.75  2136.93
                             2170.44  2186.42  2247.10  2266.42  2318.70
                             2341.99  2392.76  4369.94  4472.29  4534.57
                             4553.54  4581.08  4586.01  4611.48  5458.33

 Zero-point correction=                           0.189353 (Hartree/Particle)
 Thermal correction to Energy=                    0.203408
 Thermal correction to Enthalpy=                  0.204352
 Thermal correction to Gibbs Free Energy=         0.148239
 Sum of electronic and zero-point Energies=           -914.669261
 Sum of electronic and thermal Energies=              -914.655206
 Sum of electronic and thermal Enthalpies=            -914.654262
 Sum of electronic and thermal Free Energies=         -914.710375

                     E (Thermal)             CV                S
                      KCal/Mol        Cal/Mol-Kelvin    Cal/Mol-Kelvin
 Total                  127.640             57.711            118.099
 Electronic               0.000              0.000              1.377
 Translational            0.889              2.981             42.520
 Rotational               0.889              2.981             33.173
 Vibrational            125.863             51.750             41.027
 Vibration     1          0.596              1.976              4.681
 Vibration     2          0.598              1.968              4.135
 Vibration     3          0.606              1.943              3.300
 Vibration     4          0.611              1.925              2.967
 Vibration     5          0.625              1.879              2.436
 Vibration     6          0.645              1.817              1.995
 Vibration     7          0.648              1.807              1.940
 Vibration     8          0.676              1.724              1.580
 Vibration     9          0.691              1.679              1.432
 Vibration    10          0.716              1.605              1.235
 Vibration    11          0.719              1.597              1.215
 Vibration    12          0.739              1.542              1.096
 Vibration    13          0.750              1.513              1.039
 Vibration    14          0.776              1.443              0.917
 Vibration    15          0.781              1.430              0.897
 Vibration    16          0.810              1.357              0.790
 Vibration    17          0.825              1.323              0.745
 Vibration    18          0.833              1.302              0.720
 Vibration    19          0.848              1.266              0.677
 Vibration    20          0.855              1.252              0.660
 Vibration    21          0.874              1.208              0.613
 Vibration    22          0.894              1.163              0.567
 Vibration    23          0.940              1.067              0.479
 Vibration    24          0.960              1.027              0.446
 Vibration    25          0.969              1.011              0.433

                           ! Non-Optimized Parameters !
 Normal termination of Gaussian 16 at Sun Feb 11 00:24:29 2024.
