 Q-Chem 5.4, Q-Chem, Inc., Pleasanton, CA (2021)
 Q-Chem 5.4.0 for Intel X86 EM64T Linux

User input:
--------------------------------------------------------------
$molecule
0 1
C                  3.6677520000     -1.3648870000      0.2900990000
C                  2.5453500000     -0.5934330000     -0.3350300000
O                  2.2278170000     -0.5796880000     -1.4893050000
O                  1.8889860000      0.1526920000      0.6291300000
C                  0.7020450000      0.7750310000      0.2925050000
C                  0.7269580000      2.1632230000      0.2016750000
C                 -0.4404130000      2.8695930000     -0.0653350000
C                 -1.6391560000      2.1874770000     -0.2421600000
C                 -1.6711360000      0.7977840000     -0.1447490000
C                 -2.9878290000      0.1099000000     -0.3269740000
O                 -4.0093720000      0.7281920000     -0.5765900000
C                 -3.0141260000     -1.3614840000     -0.1864570000
C                 -1.9056600000     -2.0586660000      0.0885460000
C                 -0.5736420000     -1.4251580000      0.2585360000
O                  0.3911830000     -2.1341440000      0.4987510000
C                 -0.4965820000      0.0598880000      0.1279440000
H                  4.2265010000     -0.7414640000      0.9896250000
H                  4.3217670000     -1.7515800000     -0.4886770000
H                  3.2323940000     -2.1955980000      0.8511430000
H                  1.6733390000      2.6707870000      0.3424930000
H                 -0.4117060000      3.9504670000     -0.1380030000
H                 -2.5624530000      2.7117700000     -0.4533210000
H                 -3.9818350000     -1.8327300000     -0.3189390000
H                 -1.9101800000     -3.1379700000      0.1950940000
$end
$rem
MAX_SCF_CYCLES=200
BASIS  =  6-311++G(d,p)
GUI  =  2
JOB_TYPE  =  SP
METHOD  =  B3LYP
SOLVENT_METHOD = COSMO
$end
$solvent
dielectric 37.219
opticaldielectric 1.43
$end

--------------------------------------------------------------

             Standard Nuclear Orientation (Angstroms)
    I     Atom           X                Y                Z
 ----------------------------------------------------------------
    1      C      -4.0632403474     0.5770892119     0.1466095119
    2      C      -2.7850472017     0.0221895496    -0.4047727851
    3      O      -2.4177326092     0.0386897073    -1.5441474564
    4      O      -2.0420975510    -0.5547698137     0.6112313642
    5      C      -0.7428734778    -0.9429190096     0.3451333216
    6      C      -0.4944715353    -2.3113185113     0.3035754845
    7      C       0.7986086098    -2.7837443524     0.1092419269
    8      C       1.8495896681    -1.8862414969    -0.0439296681
    9      C       1.6075181399    -0.5148111791     0.0044285411
   10      C       2.7732250755     0.4111844989    -0.1496173898
   11      O       3.9055443005    -0.0028256811    -0.3356066076
   12      C       2.5077804705     1.8627916271    -0.0613941389
   13      C       1.2738352033     2.3379099922     0.1436128878
   14      C       0.0831549094     1.4619016578     0.2828636476
   15      O      -1.0106936985     1.9756252500     0.4584625336
   16      C       0.3010351997    -0.0127188930     0.2030103659
   17      H      -4.5225932512    -0.1236936530     0.8452450339
   18      H      -4.7429270974     0.8072307069    -0.6712046289
   19      H      -3.8233152825     1.4919024755     0.6942776409
   20      H      -1.3302431842    -2.9894975016     0.4245999802
   21      H       0.9829863440    -3.8510755599     0.0745680388
   22      H       2.8656573455    -2.2261755599    -0.1988515055
   23      H       3.3710949293     2.5097501186    -0.1719284641
   24      H       1.0644883787     3.3999247022     0.2112050026
 ----------------------------------------------------------------

    9    -763.1978595602      5.95e-06  Convergence criterion met
 Total energy in the final basis set =     -763.1978595602
    5    -763.2169154668      4.57e-06  Convergence criterion met
 Total energy in the final basis set =     -763.2169154668

                    Orbital Energies (a.u.)
 --------------------------------------------------------------

 Alpha MOs
 -- Occupied --
-19.1907 -19.1419 -19.1419 -19.1377 -10.3278 -10.2930 -10.2900 -10.2701
-10.2206 -10.2166 -10.2134 -10.2118 -10.2041 -10.2028 -10.2007 -10.1809
 -1.1352  -1.0758  -1.0741  -1.0557  -0.8975  -0.8449  -0.7983  -0.7850
 -0.7546  -0.7071  -0.6677  -0.6554  -0.6316  -0.5647  -0.5462  -0.5456
 -0.5171  -0.5093  -0.5020  -0.4937  -0.4832  -0.4712  -0.4609  -0.4554
 -0.4377  -0.4310  -0.4293  -0.4232  -0.4152  -0.3985  -0.3915  -0.3881
 -0.3795  -0.3456  -0.3126  -0.3090  -0.2948  -0.2883  -0.2824  -0.2758

          Ground-State Mulliken Net Atomic Charges

     Atom                 Charge (a.u.)
  ----------------------------------------
      1 C                    -0.513229
      2 C                     0.073917
      3 O                    -0.287014
      4 O                    -0.015599
      5 C                    -0.091349
      6 C                     0.165207
      7 C                    -0.589872
      8 C                     0.135819
      9 C                     0.311947
     10 C                    -0.354482
     11 O                    -0.309527
     12 C                    -0.078033
     13 C                    -0.157862
     14 C                    -0.232206
     15 O                    -0.299615
     16 C                     0.441335
     17 H                     0.196070
     18 H                     0.184813
     19 H                     0.209571
     20 H                     0.244090
     21 H                     0.243491
     22 H                     0.208511
     23 H                     0.257731
     24 H                     0.256288
  ----------------------------------------
  Sum of atomic charges =     0.000000

                    Cartesian Multipole Moments
 -----------------------------------------------------------------
    Charge (ESU x 10^10)
                 0.0000
    Dipole Moment (Debye)
         X      -1.2685      Y      -1.5576      Z       2.3923
       Tot       3.1239
    Quadrupole Moments (Debye-Ang)
        XX     -94.8767     XY       6.7442     YY     -74.3696
        XZ      -3.0194     YZ      -1.0784     ZZ     -98.6600

 Total job time:  97.29s(wall), 284.42s(cpu)
        *  Thank you very much for using Q-Chem.  Have a nice day.  *
