 Q-Chem 5.4, Q-Chem, Inc., Pleasanton, CA (2021)
 Q-Chem 5.4.0 for Intel X86 EM64T Linux

User input:
--------------------------------------------------------------
$molecule
-1 2
C                 17.1211550000      1.3035430000     -0.3411720000
C                 16.5245970000      0.2878280000      0.5177010000
C                 16.0645380000      0.5988180000      1.7798930000
C                 16.1273050000      1.9511960000      2.3118350000
C                 16.6793720000      2.9729140000      1.4338710000
C                 17.1485410000      2.6654720000      0.1768410000
O                 17.5923600000      1.0282890000     -1.4834810000
O                 15.7214290000      2.2290400000      3.4792870000
C                 17.1514410000      3.9218740000     -1.8391150000
C                 15.6162510000      4.9251240000      2.2704320000
C                 16.4658470000     -1.1144060000     -0.0399230000
H                 17.7373680000      4.7288280000     -2.2855930000
H                 16.1124470000      4.2607160000     -1.7196220000
H                 17.1837300000      3.0354700000     -2.4752360000
H                 15.9097630000      5.9222260000      2.6073050000
H                 15.1072250000      4.3900130000      3.0741970000
H                 14.9474710000      5.0250550000      1.4036040000
C                 15.4681600000     -0.4461050000      2.7085350000
C                 13.9680680000     -0.5275310000      2.5784780000
C                 13.1883890000     -1.5960300000      2.3580020000
C                 11.6865270000     -1.4272880000      2.2336430000
C                 11.1522020000     -1.5998200000      0.7880730000
C                  9.6560010000     -1.4850190000      0.7103160000
C                  8.9122840000     -0.5522910000      0.0977960000
C                  7.3994690000     -0.6163260000      0.1714860000
C                  6.7583150000      0.5042800000      1.0283240000
C                  5.2565870000      0.4414870000      1.0205300000
C                  4.4170560000      0.2243510000      2.0431050000
C                  2.9205300000      0.1983480000      1.8060030000
C                 13.6936160000     -3.0131470000      2.2244530000
C                  9.4753420000      0.6000520000     -0.6982910000
C                  4.8543340000     -0.0092860000      3.4692740000
C                  2.1524980000      1.3736130000      2.4616590000
C                  0.6698510000      1.2827080000      2.2305670000
C                 -0.1324940000      2.1228650000      1.5612680000
C                 -1.6123510000      1.8207270000      1.4337840000
C                 -2.0646580000      1.4589010000     -0.0034510000
C                 -3.5456090000      1.2148060000     -0.0901830000
C                 -4.1964050000      0.0890520000     -0.4168390000
C                 -5.7118420000      0.0636490000     -0.4281190000
C                 -6.3424100000     -0.8095980000      0.6858440000
C                 -7.8430890000     -0.8433690000      0.5995710000
C                 -8.7484640000     -0.3982170000      1.4825430000
C                -10.2284810000     -0.5204110000      1.1794200000
C                -10.9412630000      0.8334390000      0.9345030000
C                -12.4130400000      0.6626900000      0.6786120000
C                -13.1159170000      0.9573500000     -0.4243970000
C                  0.3272400000      3.4023170000      0.9053090000
C                 -3.5231250000     -1.2051050000     -0.8044890000
C                 -8.4079720000      0.2289800000      2.8126080000
C                -12.5302350000      1.5749240000     -1.6710050000
C                -14.6062570000      0.6853240000     -0.4712700000
C                -15.0149920000     -0.4502230000     -1.4424520000
C                -16.5050380000     -0.6437770000     -1.4981900000
C                -17.2262030000     -1.7244880000     -1.1675770000
C                -16.6401160000     -3.0147540000     -0.6471480000
C                -18.7350140000     -1.7029560000     -1.3064620000
C                -19.2836400000     -2.6333730000     -2.4170200000
C                -20.7855980000     -2.6143650000     -2.4859400000
C                -21.5754980000     -2.2086020000     -3.4901450000
C                -21.0707920000     -1.6666540000     -4.8059280000
C                -23.0826960000     -2.2765280000     -3.3505170000
H                 15.6956810000     -0.1285520000      3.7324550000
H                 15.9367080000     -1.4177260000      2.5425750000
H                 13.4777150000      0.4388740000      2.6820630000
H                 11.4005950000     -0.4332590000      2.5898470000
H                 11.1744310000     -2.1533750000      2.8822300000
H                 11.4462640000     -2.5891430000      0.4160390000
H                 11.6494340000     -0.8696010000      0.1467980000
H                  9.1171230000     -2.2662400000      1.2488510000
H                  7.0924930000     -1.5835410000      0.5808510000
H                  6.9811060000     -0.5584300000     -0.8433000000
H                  7.0675910000      1.4784370000      0.6305320000
H                  7.1612100000      0.4469260000      2.0417730000
H                  4.8079140000      0.5788300000      0.0358870000
H                  2.5070610000     -0.7435050000      2.1930660000
H                  2.7200220000      0.2090900000      0.7306040000
H                 14.7778890000     -3.0793330000      2.3078660000
H                 13.4098060000     -3.4562450000      1.2624660000
H                 13.2573490000     -3.6520770000      3.0039520000
H                 10.5622240000      0.5799170000     -0.7625190000
H                  9.1916910000      1.5636630000     -0.2610350000
H                  9.0766660000      0.5901140000     -1.7202730000
H                  5.9332880000     -0.1234210000      3.5670060000
H                  4.3829430000     -0.9147990000      3.8692030000
H                  4.5504250000      0.8165460000      4.1223410000
H                  2.5635070000      2.3134860000      2.0865350000
H                  2.3396080000      1.3625070000      3.5423890000
H                  0.2035350000      0.3969850000      2.6635770000
H                 -2.1920540000      2.6911160000      1.7710430000
H                 -1.8760680000      0.9933540000      2.0990130000
H                 -1.4917190000      0.5933610000     -0.3431090000
H                 -1.8070250000      2.2851190000     -0.6772800000
H                 -4.1571940000      2.0822670000      0.1603970000
H                 -6.0613720000     -0.3096470000     -1.4005850000
H                 -6.0962010000      1.0829630000     -0.3289860000
H                 -6.0012590000     -0.4405700000      1.6555500000
H                 -5.9639700000     -1.8349120000      0.5932740000
H                 -8.2278570000     -1.2844100000     -0.3205520000
H                -10.7295050000     -1.0302050000      2.0138250000
H                -10.3707570000     -1.1517350000      0.2975600000
H                -10.4443930000      1.3462840000      0.1080500000
H                -10.8117180000      1.4705030000      1.8179380000
H                -12.9646330000      0.2286300000      1.5131680000
H                  1.3850110000      3.6065760000      1.0666170000
H                 -0.2427780000      4.2555080000      1.2922710000
H                  0.1575340000      3.3784380000     -0.1765590000
H                 -2.4367570000     -1.1289790000     -0.8302930000
H                 -3.8609950000     -1.5282820000     -1.7963740000
H                 -3.7806760000     -2.0112920000     -0.1092620000
H                 -7.3374010000      0.2466960000      3.0135000000
H                 -8.8939440000     -0.3196600000      3.6281680000
H                 -8.7715840000      1.2605090000      2.8704970000
H                -11.4672600000      1.7949520000     -1.5789340000
H                -13.0476840000      2.5113740000     -1.9111060000
H                -12.6571570000      0.9175040000     -2.5377300000
H                -15.1335420000      1.6022350000     -0.7684340000
H                -14.9643570000      0.4309640000      0.5304960000
H                -14.4990970000     -1.3675600000     -1.1501330000
H                -14.6581550000     -0.2047480000     -2.4503390000
H                -17.0567420000      0.2295360000     -1.8475610000
H                -15.5720240000     -2.9447750000     -0.4435490000
H                -16.7869710000     -3.8351650000     -1.3582490000
H                -17.1405930000     -3.3126660000      0.2814490000
H                -19.0699200000     -0.6821050000     -1.5118320000
H                -19.1918660000     -1.9963880000     -0.3513760000
H                -18.9572540000     -3.6612180000     -2.2163380000
H                -18.8322330000     -2.3495230000     -3.3704220000
H                -21.2798930000     -2.9713050000     -1.5818830000
H                -19.9937810000     -1.5017510000     -4.8128000000
H                -21.5584090000     -0.7124300000     -5.0362430000
H                -21.3056680000     -2.3458790000     -5.6330130000
H                -23.3401140000     -2.5206280000     -2.3150100000
C                -23.7626930000     -3.3055610000     -4.2882170000
H                -23.5152940000     -1.2886050000     -3.5558840000
C                -25.2414360000     -3.4131510000     -4.0374330000
C                -26.2557210000     -3.1237780000     -4.8635650000
C                -27.6884070000     -3.2927420000     -4.4184000000
C                -26.1013080000     -2.6208040000     -6.2770400000
H                -23.2967910000     -4.2836290000     -4.1113060000
H                -23.5582480000     -3.0506750000     -5.3298340000
H                -25.5025590000     -3.7648510000     -3.0391610000
H                -27.7540340000     -3.6586200000     -3.3917600000
H                -28.2205550000     -3.9989850000     -5.0671340000
H                -28.2331190000     -2.3427990000     -4.4782060000
H                -25.0625380000     -2.4857660000     -6.5769390000
H                -26.6151150000     -1.6600890000     -6.3998470000
H                -26.5687140000     -3.3154350000     -6.9851790000
O                 17.7408990000      3.6615690000     -0.5684530000
O                 16.8213180000      4.2628500000      1.8976760000
H                 17.1252650000     -1.7994370000      0.5089890000
H                 16.7929870000     -1.0982830000     -1.0799660000
H                 15.4538550000     -1.5292380000      0.0115340000
$end
$rem
MAX_SCF_CYCLES=200
BASIS  =  6-311++G(d,p)
GUI  =  2
JOB_TYPE  =  SP
METHOD  =  B3LYP
THRESH = 14
SCF_CONVERGENCE = 8
THRESH = 14
SCF_ALGORITHM = RCA_DIIS
scf_guess = GWH
SOLVENT_METHOD = PCM
$end
$pcm
theory = CPCM
$end
$solvent
dielectric 37.219
opticaldielectric 1.43
$end
--------------------------------------------------------------

             Standard Nuclear Orientation (Angstroms)
    I     Atom           X                Y                Z
 ----------------------------------------------------------------
    1      C      17.1211550000     1.3035430000    -0.3411720000
    2      C      16.5245970000     0.2878280000     0.5177010000
    3      C      16.0645380000     0.5988180000     1.7798930000
    4      C      16.1273050000     1.9511960000     2.3118350000
    5      C      16.6793720000     2.9729140000     1.4338710000
    6      C      17.1485410000     2.6654720000     0.1768410000
    7      O      17.5923600000     1.0282890000    -1.4834810000
    8      O      15.7214290000     2.2290400000     3.4792870000
    9      C      17.1514410000     3.9218740000    -1.8391150000
   10      C      15.6162510000     4.9251240000     2.2704320000
   11      C      16.4658470000    -1.1144060000    -0.0399230000
   12      H      17.7373680000     4.7288280000    -2.2855930000
   13      H      16.1124470000     4.2607160000    -1.7196220000
   14      H      17.1837300000     3.0354700000    -2.4752360000
   15      H      15.9097630000     5.9222260000     2.6073050000
   16      H      15.1072250000     4.3900130000     3.0741970000
   17      H      14.9474710000     5.0250550000     1.4036040000
   18      C      15.4681600000    -0.4461050000     2.7085350000
   19      C      13.9680680000    -0.5275310000     2.5784780000
   20      C      13.1883890000    -1.5960300000     2.3580020000
   21      C      11.6865270000    -1.4272880000     2.2336430000
   22      C      11.1522020000    -1.5998200000     0.7880730000
   23      C       9.6560010000    -1.4850190000     0.7103160000
   24      C       8.9122840000    -0.5522910000     0.0977960000
   25      C       7.3994690000    -0.6163260000     0.1714860000
   26      C       6.7583150000     0.5042800000     1.0283240000
   27      C       5.2565870000     0.4414870000     1.0205300000
   28      C       4.4170560000     0.2243510000     2.0431050000
   29      C       2.9205300000     0.1983480000     1.8060030000
   30      C      13.6936160000    -3.0131470000     2.2244530000
   31      C       9.4753420000     0.6000520000    -0.6982910000
   32      C       4.8543340000    -0.0092860000     3.4692740000
   33      C       2.1524980000     1.3736130000     2.4616590000
   34      C       0.6698510000     1.2827080000     2.2305670000
   35      C      -0.1324940000     2.1228650000     1.5612680000
   36      C      -1.6123510000     1.8207270000     1.4337840000
   37      C      -2.0646580000     1.4589010000    -0.0034510000
   38      C      -3.5456090000     1.2148060000    -0.0901830000
   39      C      -4.1964050000     0.0890520000    -0.4168390000
   40      C      -5.7118420000     0.0636490000    -0.4281190000
   41      C      -6.3424100000    -0.8095980000     0.6858440000
   42      C      -7.8430890000    -0.8433690000     0.5995710000
   43      C      -8.7484640000    -0.3982170000     1.4825430000
   44      C     -10.2284810000    -0.5204110000     1.1794200000
   45      C     -10.9412630000     0.8334390000     0.9345030000
   46      C     -12.4130400000     0.6626900000     0.6786120000
   47      C     -13.1159170000     0.9573500000    -0.4243970000
   48      C       0.3272400000     3.4023170000     0.9053090000
   49      C      -3.5231250000    -1.2051050000    -0.8044890000
   50      C      -8.4079720000     0.2289800000     2.8126080000
   51      C     -12.5302350000     1.5749240000    -1.6710050000
   52      C     -14.6062570000     0.6853240000    -0.4712700000
   53      C     -15.0149920000    -0.4502230000    -1.4424520000
   54      C     -16.5050380000    -0.6437770000    -1.4981900000
   55      C     -17.2262030000    -1.7244880000    -1.1675770000
   56      C     -16.6401160000    -3.0147540000    -0.6471480000
   57      C     -18.7350140000    -1.7029560000    -1.3064620000
   58      C     -19.2836400000    -2.6333730000    -2.4170200000
   59      C     -20.7855980000    -2.6143650000    -2.4859400000
   60      C     -21.5754980000    -2.2086020000    -3.4901450000
   61      C     -21.0707920000    -1.6666540000    -4.8059280000
   62      C     -23.0826960000    -2.2765280000    -3.3505170000
   63      H      15.6956810000    -0.1285520000     3.7324550000
   64      H      15.9367080000    -1.4177260000     2.5425750000
   65      H      13.4777150000     0.4388740000     2.6820630000
   66      H      11.4005950000    -0.4332590000     2.5898470000
   67      H      11.1744310000    -2.1533750000     2.8822300000
   68      H      11.4462640000    -2.5891430000     0.4160390000
   69      H      11.6494340000    -0.8696010000     0.1467980000
   70      H       9.1171230000    -2.2662400000     1.2488510000
   71      H       7.0924930000    -1.5835410000     0.5808510000
   72      H       6.9811060000    -0.5584300000    -0.8433000000
   73      H       7.0675910000     1.4784370000     0.6305320000
   74      H       7.1612100000     0.4469260000     2.0417730000
   75      H       4.8079140000     0.5788300000     0.0358870000
   76      H       2.5070610000    -0.7435050000     2.1930660000
   77      H       2.7200220000     0.2090900000     0.7306040000
   78      H      14.7778890000    -3.0793330000     2.3078660000
   79      H      13.4098060000    -3.4562450000     1.2624660000
   80      H      13.2573490000    -3.6520770000     3.0039520000
   81      H      10.5622240000     0.5799170000    -0.7625190000
   82      H       9.1916910000     1.5636630000    -0.2610350000
   83      H       9.0766660000     0.5901140000    -1.7202730000
   84      H       5.9332880000    -0.1234210000     3.5670060000
   85      H       4.3829430000    -0.9147990000     3.8692030000
   86      H       4.5504250000     0.8165460000     4.1223410000
   87      H       2.5635070000     2.3134860000     2.0865350000
   88      H       2.3396080000     1.3625070000     3.5423890000
   89      H       0.2035350000     0.3969850000     2.6635770000
   90      H      -2.1920540000     2.6911160000     1.7710430000
   91      H      -1.8760680000     0.9933540000     2.0990130000
   92      H      -1.4917190000     0.5933610000    -0.3431090000
   93      H      -1.8070250000     2.2851190000    -0.6772800000
   94      H      -4.1571940000     2.0822670000     0.1603970000
   95      H      -6.0613720000    -0.3096470000    -1.4005850000
   96      H      -6.0962010000     1.0829630000    -0.3289860000
   97      H      -6.0012590000    -0.4405700000     1.6555500000
   98      H      -5.9639700000    -1.8349120000     0.5932740000
   99      H      -8.2278570000    -1.2844100000    -0.3205520000
  100      H     -10.7295050000    -1.0302050000     2.0138250000
  101      H     -10.3707570000    -1.1517350000     0.2975600000
  102      H     -10.4443930000     1.3462840000     0.1080500000
  103      H     -10.8117180000     1.4705030000     1.8179380000
  104      H     -12.9646330000     0.2286300000     1.5131680000
  105      H       1.3850110000     3.6065760000     1.0666170000
  106      H      -0.2427780000     4.2555080000     1.2922710000
  107      H       0.1575340000     3.3784380000    -0.1765590000
  108      H      -2.4367570000    -1.1289790000    -0.8302930000
  109      H      -3.8609950000    -1.5282820000    -1.7963740000
  110      H      -3.7806760000    -2.0112920000    -0.1092620000
  111      H      -7.3374010000     0.2466960000     3.0135000000
  112      H      -8.8939440000    -0.3196600000     3.6281680000
  113      H      -8.7715840000     1.2605090000     2.8704970000
  114      H     -11.4672600000     1.7949520000    -1.5789340000
  115      H     -13.0476840000     2.5113740000    -1.9111060000
  116      H     -12.6571570000     0.9175040000    -2.5377300000
  117      H     -15.1335420000     1.6022350000    -0.7684340000
  118      H     -14.9643570000     0.4309640000     0.5304960000
  119      H     -14.4990970000    -1.3675600000    -1.1501330000
  120      H     -14.6581550000    -0.2047480000    -2.4503390000
  121      H     -17.0567420000     0.2295360000    -1.8475610000
  122      H     -15.5720240000    -2.9447750000    -0.4435490000
  123      H     -16.7869710000    -3.8351650000    -1.3582490000
  124      H     -17.1405930000    -3.3126660000     0.2814490000
  125      H     -19.0699200000    -0.6821050000    -1.5118320000
  126      H     -19.1918660000    -1.9963880000    -0.3513760000
  127      H     -18.9572540000    -3.6612180000    -2.2163380000
  128      H     -18.8322330000    -2.3495230000    -3.3704220000
  129      H     -21.2798930000    -2.9713050000    -1.5818830000
  130      H     -19.9937810000    -1.5017510000    -4.8128000000
  131      H     -21.5584090000    -0.7124300000    -5.0362430000
  132      H     -21.3056680000    -2.3458790000    -5.6330130000
  133      H     -23.3401140000    -2.5206280000    -2.3150100000
  134      C     -23.7626930000    -3.3055610000    -4.2882170000
  135      H     -23.5152940000    -1.2886050000    -3.5558840000
  136      C     -25.2414360000    -3.4131510000    -4.0374330000
  137      C     -26.2557210000    -3.1237780000    -4.8635650000
  138      C     -27.6884070000    -3.2927420000    -4.4184000000
  139      C     -26.1013080000    -2.6208040000    -6.2770400000
  140      H     -23.2967910000    -4.2836290000    -4.1113060000
  141      H     -23.5582480000    -3.0506750000    -5.3298340000
  142      H     -25.5025590000    -3.7648510000    -3.0391610000
  143      H     -27.7540340000    -3.6586200000    -3.3917600000
  144      H     -28.2205550000    -3.9989850000    -5.0671340000
  145      H     -28.2331190000    -2.3427990000    -4.4782060000
  146      H     -25.0625380000    -2.4857660000    -6.5769390000
  147      H     -26.6151150000    -1.6600890000    -6.3998470000
  148      H     -26.5687140000    -3.3154350000    -6.9851790000
  149      O      17.7408990000     3.6615690000    -0.5684530000
  150      O      16.8213180000     4.2628500000     1.8976760000
  151      H      17.1252650000    -1.7994370000     0.5089890000
  152      H      16.7929870000    -1.0982830000    -1.0799660000
  153      H      15.4538550000    -1.5292380000     0.0115340000
 ----------------------------------------------------------------

   98   -2604.0890525242      9.97E-09 Convergence criterion met
 Total energy in the final basis set = -2604.08905252

                    Orbital Energies (a.u.)
 --------------------------------------------------------------

 Alpha MOs
 -- Occupied --
-19.1356 -19.1355 -19.0760 -19.0756 -10.2193 -10.2189 -10.2136 -10.2130
-10.2024 -10.2024 -10.1742 -10.1719 -10.1719 -10.1719 -10.1718 -10.1718
-10.1715 -10.1713 -10.1707 -10.1686 -10.1666 -10.1644 -10.1638 -10.1638
-10.1638 -10.1637 -10.1636 -10.1635 -10.1634 -10.1634 -10.1634 -10.1634
-10.1633 -10.1633 -10.1632 -10.1630 -10.1629 -10.1626 -10.1620 -10.1617
-10.1596 -10.1577 -10.1575 -10.1575 -10.1574 -10.1574 -10.1573 -10.1571
-10.1571 -10.1570 -10.1570 -10.1569 -10.1569 -10.1568 -10.1568 -10.1567
-10.1565 -10.1563 -10.1562 -10.1560 -10.1557 -10.1552 -10.1500  -1.0604
 -1.0416  -0.9963  -0.9938  -0.8306  -0.8291  -0.8277  -0.8257  -0.8229
 -0.8196  -0.8158  -0.8116  -0.8072  -0.8032  -0.8009  -0.7765  -0.7733
 -0.7676  -0.7607  -0.7531  -0.7454  -0.7379  -0.7309  -0.7250  -0.7202
 -0.7172  -0.7031  -0.6966  -0.6886  -0.6852  -0.6847  -0.6840  -0.6830
 -0.6815  -0.6793  -0.6761  -0.6719  -0.6670  -0.6633  -0.6448  -0.6421
 -0.6374  -0.6291  -0.6198  -0.6101  -0.6012  -0.5934  -0.5867  -0.5817
 -0.5792  -0.5619  -0.5585  -0.5213  -0.5200  -0.5195  -0.5189  -0.5174
 -0.5152  -0.5129  -0.5107  -0.5088  -0.5079  -0.5065  -0.4948  -0.4855
 -0.4760  -0.4759  -0.4746  -0.4746  -0.4732  -0.4723  -0.4702  -0.4668
 -0.4655  -0.4605  -0.4588  -0.4464  -0.4439  -0.4432  -0.4413  -0.4391
 -0.4374  -0.4368  -0.4343  -0.4334  -0.4322  -0.4313  -0.4282  -0.4275
 -0.4271  -0.4233  -0.4194  -0.4172  -0.4140  -0.4119  -0.4100  -0.4090
 -0.4088  -0.4069  -0.4063  -0.4056  -0.4041  -0.4016  -0.3997  -0.3987
 -0.3983  -0.3967  -0.3942  -0.3907  -0.3885  -0.3871  -0.3867  -0.3851
 -0.3810  -0.3751  -0.3704  -0.3704  -0.3700  -0.3693  -0.3692  -0.3685
 -0.3681  -0.3679  -0.3667  -0.3667  -0.3655  -0.3652  -0.3652  -0.3631
 -0.3622  -0.3606  -0.3599  -0.3581  -0.3574  -0.3556  -0.3540  -0.3523
 -0.3514  -0.3503  -0.3472  -0.3446  -0.3405  -0.3376  -0.3344  -0.3338
 -0.3330  -0.3320  -0.3305  -0.3300  -0.3267  -0.3249  -0.3246  -0.3234
 -0.3229  -0.3198  -0.3155  -0.3109  -0.3073  -0.3052  -0.2995  -0.2821
 -0.2656  -0.2508  -0.2493  -0.2463  -0.2432  -0.2410  -0.2397  -0.2365
 -0.2331  -0.2298  -0.2264  -0.2238  -0.2216  -0.2185  -0.1581

 Beta MOs
 -- Occupied --
-19.1354 -19.1354 -19.0694 -19.0692 -10.2174 -10.2170 -10.2127 -10.2121
-10.2024 -10.2023 -10.1742 -10.1719 -10.1719 -10.1719 -10.1718 -10.1718
-10.1715 -10.1713 -10.1707 -10.1686 -10.1655 -10.1638 -10.1638 -10.1638
-10.1637 -10.1636 -10.1635 -10.1634 -10.1634 -10.1634 -10.1634 -10.1634
-10.1633 -10.1633 -10.1632 -10.1630 -10.1629 -10.1626 -10.1620 -10.1617
-10.1597 -10.1577 -10.1575 -10.1575 -10.1574 -10.1574 -10.1573 -10.1571
-10.1571 -10.1570 -10.1570 -10.1569 -10.1569 -10.1568 -10.1568 -10.1567
-10.1565 -10.1563 -10.1562 -10.1560 -10.1557 -10.1552 -10.1501  -1.0594
 -1.0404  -0.9851  -0.9826  -0.8292  -0.8281  -0.8271  -0.8252  -0.8226
 -0.8193  -0.8155  -0.8113  -0.8069  -0.8030  -0.8008  -0.7758  -0.7728
 -0.7674  -0.7605  -0.7529  -0.7452  -0.7375  -0.7304  -0.7244  -0.7198
 -0.7170  -0.7008  -0.6951  -0.6886  -0.6852  -0.6847  -0.6840  -0.6829
 -0.6815  -0.6793  -0.6760  -0.6716  -0.6665  -0.6623  -0.6440  -0.6371
 -0.6365  -0.6288  -0.6195  -0.6099  -0.6010  -0.5933  -0.5866  -0.5817
 -0.5792  -0.5591  -0.5553  -0.5213  -0.5200  -0.5192  -0.5184  -0.5173
 -0.5151  -0.5128  -0.5106  -0.5088  -0.5079  -0.5062  -0.4927  -0.4838
 -0.4760  -0.4759  -0.4746  -0.4746  -0.4732  -0.4723  -0.4701  -0.4662
 -0.4626  -0.4603  -0.4586  -0.4464  -0.4433  -0.4423  -0.4411  -0.4381
 -0.4364  -0.4359  -0.4338  -0.4331  -0.4317  -0.4308  -0.4279  -0.4274
 -0.4270  -0.4208  -0.4191  -0.4170  -0.4138  -0.4118  -0.4099  -0.4087
 -0.4061  -0.4059  -0.4050  -0.4039  -0.4022  -0.4005  -0.3997  -0.3985
 -0.3979  -0.3966  -0.3940  -0.3905  -0.3881  -0.3871  -0.3858  -0.3810
 -0.3801  -0.3704  -0.3700  -0.3694  -0.3692  -0.3687  -0.3684  -0.3680
 -0.3679  -0.3668  -0.3667  -0.3656  -0.3654  -0.3652  -0.3630  -0.3623
 -0.3606  -0.3600  -0.3576  -0.3566  -0.3554  -0.3540  -0.3517  -0.3513
 -0.3489  -0.3455  -0.3436  -0.3433  -0.3402  -0.3374  -0.3340  -0.3332
 -0.3321  -0.3313  -0.3302  -0.3291  -0.3267  -0.3249  -0.3246  -0.3234
 -0.3228  -0.3197  -0.3153  -0.3108  -0.3072  -0.3052  -0.2948  -0.2799
 -0.2508  -0.2493  -0.2463  -0.2435  -0.2407  -0.2379  -0.2359  -0.2341
 -0.2315  -0.2288  -0.2257  -0.2225  -0.2209  -0.2136

          Ground-State Mulliken Net Atomic Charges

     Atom                 Charge (a.u.)    Spin (a.u.)
  --------------------------------------------------------
      1 C                    -0.597501       0.099212
      2 C                     0.639278       0.079343
      3 C                     0.865990       0.074282
      4 C                    -0.302709       0.108428
      5 C                    -0.131128       0.075654
      6 C                    -0.489601       0.060592
      7 O                    -0.508086       0.239986
      8 O                    -0.492631       0.235132
      9 C                    -0.298214       0.003507
     10 C                    -0.284351       0.002369
     11 C                    -0.633585       0.003502
     12 H                     0.166795       0.000443
     13 H                     0.133896      -0.000048
     14 H                     0.170492      -0.000445
     15 H                     0.166860       0.000363
     16 H                     0.161451      -0.000575
     17 H                     0.136841       0.000152
     18 C                     0.174440       0.011218
     19 C                    -0.749400      -0.001168
     20 C                     0.706519       0.001415
     21 C                    -0.597078       0.000248
     22 C                    -0.200897       0.000222
     23 C                    -0.385640       0.000004
     24 C                     0.646857       0.000150
     25 C                    -0.625184      -0.000028
     26 C                    -0.314339       0.000060
     27 C                    -0.351187      -0.000004
     28 C                     0.606382      -0.000021
     29 C                    -0.393794      -0.000001
     30 C                    -0.771917      -0.001537
     31 C                    -0.778195      -0.000005
     32 C                    -0.742401      -0.000000
     33 C                    -0.387031       0.000013
     34 C                    -0.358536      -0.000192
     35 C                     0.565470       0.000184
     36 C                    -0.428386      -0.000014
     37 C                    -0.297198      -0.000000
     38 C                    -0.335217       0.000027
     39 C                     0.524736      -0.000027
     40 C                    -0.436318       0.000002
     41 C                    -0.296259       0.000008
     42 C                    -0.412452      -0.000114
     43 C                     0.574911       0.000109
     44 C                    -0.418618      -0.000009
     45 C                    -0.244437       0.000002
     46 C                    -0.368872       0.000005
     47 C                     0.602390      -0.000005
     48 C                    -0.727160      -0.000025
     49 C                    -0.749489       0.000005
     50 C                    -0.737298      -0.000015
     51 C                    -0.749812       0.000001
     52 C                    -0.570629       0.000001
     53 C                    -0.342129      -0.000001
     54 C                    -0.358057       0.000016
     55 C                     0.691949      -0.000016
     56 C                    -0.750818       0.000002
     57 C                    -0.504417       0.000001
     58 C                    -0.388876      -0.000001
     59 C                    -0.148178       0.000006
     60 C                     0.696352      -0.000006
     61 C                    -0.775164       0.000001
     62 C                    -0.780316       0.000001
     63 H                     0.194833       0.002159
     64 H                     0.208531       0.000191
     65 H                     0.237840      -0.001504
     66 H                     0.134399      -0.000282
     67 H                     0.153189       0.000003
     68 H                     0.141872      -0.000026
     69 H                     0.132240      -0.000149
     70 H                     0.206479      -0.000006
     71 H                     0.168050       0.000004
     72 H                     0.147349      -0.000001
     73 H                     0.142718      -0.000000
     74 H                     0.157413       0.000002
     75 H                     0.213179       0.000002
     76 H                     0.161016       0.000001
     77 H                     0.167823       0.000001
     78 H                     0.124157       0.000013
     79 H                     0.169193       0.000148
     80 H                     0.167905      -0.000033
     81 H                     0.145888       0.000068
     82 H                     0.177003       0.000006
     83 H                     0.166368       0.000007
     84 H                     0.139502       0.000001
     85 H                     0.168663      -0.000000
     86 H                     0.180771      -0.000000
     87 H                     0.140455      -0.000002
     88 H                     0.141988      -0.000007
     89 H                     0.195093       0.000018
     90 H                     0.144652       0.000007
     91 H                     0.179119       0.000002
     92 H                     0.145048      -0.000001
     93 H                     0.137291       0.000001
     94 H                     0.204394      -0.000003
     95 H                     0.146583      -0.000000
     96 H                     0.173816       0.000000
     97 H                     0.139146      -0.000001
     98 H                     0.137987      -0.000004
     99 H                     0.200283       0.000011
    100 H                     0.143352       0.000004
    101 H                     0.176243       0.000001
    102 H                     0.140538      -0.000001
    103 H                     0.135510      -0.000000
    104 H                     0.212994      -0.000001
    105 H                     0.138974       0.000002
    106 H                     0.167086       0.000008
    107 H                     0.176065       0.000007
    108 H                     0.139296      -0.000000
    109 H                     0.168029      -0.000001
    110 H                     0.176350      -0.000001
    111 H                     0.141822       0.000001
    112 H                     0.168052       0.000005
    113 H                     0.176577       0.000004
    114 H                     0.142839       0.000000
    115 H                     0.166652      -0.000000
    116 H                     0.175566      -0.000000
    117 H                     0.148438      -0.000000
    118 H                     0.165235      -0.000000
    119 H                     0.148630       0.000000
    120 H                     0.143039       0.000001
    121 H                     0.217739      -0.000001
    122 H                     0.140175      -0.000000
    123 H                     0.179292      -0.000001
    124 H                     0.167745      -0.000001
    125 H                     0.158122      -0.000000
    126 H                     0.162649      -0.000001
    127 H                     0.152717       0.000000
    128 H                     0.150565       0.000000
    129 H                     0.211910      -0.000001
    130 H                     0.129945      -0.000000
    131 H                     0.163467      -0.000000
    132 H                     0.180202      -0.000000
    133 H                     0.154645      -0.000000
    134 C                    -0.333985      -0.000000
    135 H                     0.182015      -0.000000
    136 C                    -0.043394       0.000001
    137 C                     0.412544      -0.000001
    138 C                    -0.646490       0.000000
    139 C                    -0.701770       0.000000
    140 H                     0.173726       0.000000
    141 H                     0.132213       0.000000
    142 H                     0.178230      -0.000000
    143 H                     0.162087      -0.000000
    144 H                     0.151017      -0.000000
    145 H                     0.156395      -0.000000
    146 H                     0.143685       0.000000
    147 H                     0.156613      -0.000000
    148 H                     0.153023      -0.000000
    149 O                    -0.222930       0.000617
    150 O                    -0.226068       0.000539
    151 H                     0.188826       0.004837
    152 H                     0.172805      -0.001979
    153 H                     0.180657       0.002932
  --------------------------------------------------------
  Sum of atomic charges =    -1.000000

                    Cartesian Multipole Moments
 -----------------------------------------------------------------
    Charge (ESU x 10^10)
                -4.8032
    Dipole Moment (Debye)
         X     -82.8685      Y      -9.2474      Z      -6.4721
       Tot      83.6337
    Quadrupole Moments (Debye-Ang)
        XX   -1824.6670     XY    -167.1350     YY    -417.5487
        XZ     -66.9379     YZ     -24.3583     ZZ    -426.2458

 Total job time:  42513.31s(wall), 254245.59s(cpu)
        *  Thank you very much for using Q-Chem.  Have a nice day.  *
