 Q-Chem 5.4, Q-Chem, Inc., Pleasanton, CA (2021)
 Q-Chem 5.4.0 for Intel X86 EM64T Linux

User input:
--------------------------------------------------------------
$molecule
-2 1
C                  1.4936790000      3.4548080000     -0.2752140000
C                  0.7754570000      3.1849060000     -1.4276440000
C                  0.1224800000      1.9384410000     -1.5639500000
C                  1.5911260000      2.5188220000      0.7759140000
C                  0.9361200000      1.2524630000      0.6374040000
C                  0.2094130000      1.0026810000     -0.5490880000
C                  2.3728850000      2.8772350000      1.9700150000
C                  2.3783110000      1.8453260000      2.9573480000
C                  1.7381090000      0.5771630000      2.8144760000
C                  0.9942530000      0.2105320000      1.6773110000
O                  2.9838470000      3.9950770000      2.0517550000
O                  0.3904370000     -0.9160410000      1.5217980000
S                  3.2921540000      2.1330310000      4.4453150000
O                  2.9151980000      3.3848400000      5.1398350000
O                  3.2823700000      0.8932360000      5.2676630000
C                  5.0269020000      2.3352430000      3.9442750000
C                  5.4811410000      3.5529990000      3.4211360000
C                  5.8977770000      1.2495970000      4.0795120000
C                  6.8171710000      3.6690080000      3.0405520000
C                  7.6990060000      2.5936000000      3.1803460000
C                  7.2313670000      1.3806730000      3.6999520000
H                  2.0090730000      4.3996940000     -0.1351650000
H                  0.7132300000      3.9259580000     -2.2222970000
H                 -0.4459510000      1.7173590000     -2.4660150000
H                 -0.2759880000      0.0340440000     -0.6179570000
H                  1.8064040000     -0.1316850000      3.6303020000
H                  4.7683050000      4.3549250000      3.2844390000
H                  5.5133010000      0.3232040000      4.4889350000
H                  7.1716890000      4.6084190000      2.6252430000
H                  8.7384860000      2.6952300000      2.8804630000
H                  7.9078910000      0.5374650000      3.8102330000
$end
$rem
MAX_SCF_CYCLES=200
BASIS  =  6-311++G(d,p)
GUI  =  2
JOB_TYPE  =  SP
METHOD  =  B3LYP
SOLVENT_METHOD = PCM
$end
$pcm
theory = CPCM
$end
$solvent
dielectric 37.219
opticaldielectric 1.43
$end

--------------------------------------------------------------

             Standard Nuclear Orientation (Angstroms)
    I     Atom           X                Y                Z
 ----------------------------------------------------------------
    1      C       1.4936790000     3.4548080000    -0.2752140000
    2      C       0.7754570000     3.1849060000    -1.4276440000
    3      C       0.1224800000     1.9384410000    -1.5639500000
    4      C       1.5911260000     2.5188220000     0.7759140000
    5      C       0.9361200000     1.2524630000     0.6374040000
    6      C       0.2094130000     1.0026810000    -0.5490880000
    7      C       2.3728850000     2.8772350000     1.9700150000
    8      C       2.3783110000     1.8453260000     2.9573480000
    9      C       1.7381090000     0.5771630000     2.8144760000
   10      C       0.9942530000     0.2105320000     1.6773110000
   11      O       2.9838470000     3.9950770000     2.0517550000
   12      O       0.3904370000    -0.9160410000     1.5217980000
   13      S       3.2921540000     2.1330310000     4.4453150000
   14      O       2.9151980000     3.3848400000     5.1398350000
   15      O       3.2823700000     0.8932360000     5.2676630000
   16      C       5.0269020000     2.3352430000     3.9442750000
   17      C       5.4811410000     3.5529990000     3.4211360000
   18      C       5.8977770000     1.2495970000     4.0795120000
   19      C       6.8171710000     3.6690080000     3.0405520000
   20      C       7.6990060000     2.5936000000     3.1803460000
   21      C       7.2313670000     1.3806730000     3.6999520000
   22      H       2.0090730000     4.3996940000    -0.1351650000
   23      H       0.7132300000     3.9259580000    -2.2222970000
   24      H      -0.4459510000     1.7173590000    -2.4660150000
   25      H      -0.2759880000     0.0340440000    -0.6179570000
   26      H       1.8064040000    -0.1316850000     3.6303020000
   27      H       4.7683050000     4.3549250000     3.2844390000
   28      H       5.5133010000     0.3232040000     4.4889350000
   29      H       7.1716890000     4.6084190000     2.6252430000
   30      H       8.7384860000     2.6952300000     2.8804630000
   31      H       7.9078910000     0.5374650000     3.8102330000
 ----------------------------------------------------------------

    9   -1315.2957298037      5.19e-06  Convergence criterion met
 Total energy in the final basis set =    -1315.2957298037

                    Orbital Energies (a.u.)
 --------------------------------------------------------------

 Alpha MOs
 -- Occupied --
-89.0343 -19.1034 -19.1013 -19.0412 -19.0261 -10.2040 -10.1991 -10.1841
-10.1820 -10.1792 -10.1780 -10.1773 -10.1766 -10.1660 -10.1615 -10.1600
-10.1573 -10.1560 -10.1550 -10.1544 -10.1327  -8.0979  -6.0610  -6.0597
 -6.0584  -1.0909  -0.9864  -0.9647  -0.9435  -0.8633  -0.8393  -0.7921
 -0.7649  -0.7515  -0.7341  -0.7308  -0.6811  -0.6467  -0.6122  -0.6084
 -0.5952  -0.5702  -0.5444  -0.5257  -0.4951  -0.4894  -0.4707  -0.4650
 -0.4581  -0.4451  -0.4402  -0.4368  -0.4255  -0.4157  -0.4089  -0.3928
 -0.3898  -0.3778  -0.3762  -0.3694  -0.3664  -0.3461  -0.3403  -0.3349
 -0.3289  -0.3269  -0.3182  -0.3122  -0.2957  -0.2869  -0.2660  -0.2607
 -0.2431  -0.2389  -0.2316  -0.2177  -0.2065  -0.1324

          Ground-State Mulliken Net Atomic Charges

     Atom                 Charge (a.u.)
  ----------------------------------------
      1 C                     0.213233
      2 C                    -0.451544
      3 C                    -0.396800
      4 C                     0.221025
      5 C                     0.293465
      6 C                     0.007822
      7 C                    -0.479692
      8 C                    -0.004491
      9 C                    -0.176192
     10 C                    -0.512954
     11 O                    -0.540388
     12 O                    -0.706558
     13 S                     0.212366
     14 O                    -0.265068
     15 O                    -0.311308
     16 C                     0.077908
     17 C                    -0.224218
     18 C                     0.247031
     19 C                    -0.438786
     20 C                    -0.338637
     21 C                    -0.489559
     22 H                     0.156258
     23 H                     0.186432
     24 H                     0.189931
     25 H                     0.150874
     26 H                     0.208875
     27 H                     0.282811
     28 H                     0.251493
     29 H                     0.221313
     30 H                     0.198895
     31 H                     0.216464
  ----------------------------------------
  Sum of atomic charges =    -2.000000

                    Cartesian Multipole Moments
 -----------------------------------------------------------------
    Charge (ESU x 10^10)
                -9.6064
    Dipole Moment (Debye)
         X     -15.8823      Y     -14.3555      Z     -26.5477
       Tot      34.1044
    Quadrupole Moments (Debye-Ang)
        XX    -162.8900     XY     -42.8203     YY    -200.4627
        XZ     -57.6924     YZ     -52.8453     ZZ    -244.0438

 Total job time:  77.30s(wall), 524.19s(cpu)
        *  Thank you very much for using Q-Chem.  Have a nice day.  *
