 Q-Chem 5.4, Q-Chem, Inc., Pleasanton, CA (2021)
 Q-Chem 5.4.0 for Intel X86 EM64T Linux

User input:
--------------------------------------------------------------
$molecule
-1 2
C                 -0.5090580000      1.1682300000     -0.4054300000
C                 -1.4126200000      0.1260870000     -0.8940140000
C                 -1.2510590000     -1.2089340000     -0.6782690000
C                 -0.1043770000     -1.6896150000      0.0964450000
C                  0.7859380000     -0.6800260000      0.5941340000
C                  0.6243040000      0.6886320000      0.4033750000
O                 -0.7122780000      2.3598420000     -0.7149410000
O                  0.0788010000     -2.9232210000      0.3127260000
C                  1.5825260000      1.6293580000      1.0241180000
C                  2.9496120000      1.0757140000      1.4576440000
O                  1.3532880000      2.8134500000      1.2298480000
H                 -2.2524320000      0.4950190000     -1.4784200000
H                  3.4138780000      0.4634510000      0.6803990000
H                  2.8488770000      0.4514930000      2.3516280000
H                  3.5907180000      1.9243180000      1.6979750000
C                 -2.2094390000     -2.2374300000     -1.2128500000
H                  1.6161480000     -1.0617640000      1.1779840000
H                 -3.0247790000     -1.7663670000     -1.7684830000
H                 -2.6301840000     -2.8355190000     -0.3978430000
H                 -1.6925650000     -2.9459980000     -1.8684660000
$end
$rem
MAX_SCF_CYCLES=200
BASIS  =  6-311++G(d,p)
GUI  =  2
JOB_TYPE  =  SP
METHOD  =  B3LYP
SOLVENT_METHOD = COSMO
$end
$solvent
dielectric 37.219
opticaldielectric 1.43
$end

--------------------------------------------------------------

             Standard Nuclear Orientation (Angstroms)
    I     Atom           X                Y                Z
 ----------------------------------------------------------------
    1      C       0.2745332746    -1.3372348451     0.0675558134
    2      C      -1.1874954917    -1.3950096392     0.0492636002
    3      C      -2.0094066731    -0.3101574652    -0.0006032485
    4      C      -1.4372141709     1.0377877089    -0.0424979089
    5      C      -0.0040535092     1.1129705491    -0.0376867722
    6      C       0.8509124319     0.0156891468    -0.0103732037
    7      O       0.9350726847    -2.3898071609     0.1807538430
    8      O      -2.1712302970     2.0680825966    -0.0852551896
    9      C       2.3134384267     0.2293818219    -0.0722588673
   10      C       2.8489001926     1.6230359260     0.2943465588
   11      O       3.1224906862    -0.6236053276    -0.4110746315
   12      H      -1.5996591678    -2.4005253990     0.0938118865
   13      H       2.4130250374     2.0034504560     1.2216093718
   14      H       2.6217907169     2.3455742734    -0.4964545615
   15      H       3.9320716832     1.5472241292     0.3938288938
   16      C      -3.5086391154    -0.4297652941    -0.0089184862
   17      H       0.3928163783     2.1209304573    -0.0863127223
   18      H      -3.8214209741    -1.4770137471     0.0201655789
   19      H      -3.9302396810     0.0452503938    -0.9008749180
   20      H      -3.9449007781     0.0975611183     0.8458693813
 ----------------------------------------------------------------

    9    -573.6612529630      8.24e-06  Convergence criterion met
 Total energy in the final basis set =     -573.6612529630
    5    -573.7524086448      4.81e-06  Convergence criterion met
 Total energy in the final basis set =     -573.7524086448

                    Orbital Energies (a.u.)
 --------------------------------------------------------------

 Alpha MOs
 -- Occupied --
-19.1071 -19.0885 -19.0877 -10.2592 -10.2368 -10.2267 -10.1823 -10.1779
-10.1758 -10.1658 -10.1610 -10.1591  -1.0413  -1.0144  -1.0084  -0.8357
 -0.7849  -0.7286  -0.7012  -0.6817  -0.6047  -0.5845  -0.5230  -0.4925
 -0.4758  -0.4502  -0.4426  -0.4343  -0.4254  -0.4246  -0.4136  -0.3953
 -0.3937  -0.3826  -0.3786  -0.3738  -0.3637  -0.3548  -0.2907  -0.2717
 -0.2602  -0.2535  -0.2315  -0.1735

 Beta MOs
 -- Occupied --
-19.1061 -19.0821 -19.0811 -10.2592 -10.2360 -10.2253 -10.1821 -10.1766
-10.1733 -10.1648 -10.1610 -10.1591  -1.0393  -1.0050  -0.9954  -0.8300
 -0.7826  -0.7274  -0.6958  -0.6749  -0.6010  -0.5815  -0.5196  -0.4904
 -0.4733  -0.4468  -0.4379  -0.4316  -0.4236  -0.4190  -0.4080  -0.3924
 -0.3849  -0.3801  -0.3717  -0.3606  -0.3538  -0.3504  -0.2687  -0.2599
 -0.2518  -0.2469  -0.2276

          Ground-State Mulliken Net Atomic Charges

     Atom                 Charge (a.u.)    Spin (a.u.)
  --------------------------------------------------------
      1 C                    -0.562917       0.046552
      2 C                    -0.681494       0.051915
      3 C                     1.156677       0.013707
      4 C                    -0.700770       0.114390
      5 C                    -0.868126       0.171263
      6 C                     1.497777       0.096613
      7 O                    -0.471848       0.198073
      8 O                    -0.499607       0.263164
      9 C                     0.063007       0.014821
     10 C                    -0.622562       0.001497
     11 O                    -0.388482       0.035585
     12 H                     0.179647      -0.006652
     13 H                     0.172399      -0.000210
     14 H                     0.190974       0.000704
     15 H                     0.192583      -0.000350
     16 C                    -0.371207       0.010091
     17 H                     0.188446      -0.012811
     18 H                     0.162879      -0.000388
     19 H                     0.180878       0.001167
     20 H                     0.181746       0.000869
  --------------------------------------------------------
  Sum of atomic charges =    -1.000000

                    Cartesian Multipole Moments
 -----------------------------------------------------------------
    Charge (ESU x 10^10)
                -4.8032
    Dipole Moment (Debye)
         X      -2.2003      Y       3.1128      Z       0.8512
       Tot       3.9058
    Quadrupole Moments (Debye-Ang)
        XX     -97.8790     XY      28.3234     YY     -98.0213
        XZ       2.5739     YZ       0.7914     ZZ     -73.2661

 Total job time:  32.41s(wall), 235.96s(cpu)
        *  Thank you very much for using Q-Chem.  Have a nice day.  *
