 Q-Chem 5.4, Q-Chem, Inc., Pleasanton, CA (2021)
 Q-Chem 5.4.0 for Intel X86 EM64T Linux

User input:
--------------------------------------------------------------
$molecule
-2 1
C                  4.2342530000     -0.0282110000     -0.0472460000
S                  3.0226430000     -1.3299990000     -0.4799080000
C                  1.4449140000     -0.4840880000     -0.2430110000
C                  1.3294620000      0.9070300000     -0.0699660000
C                  0.0895350000      1.5818000000      0.1032330000
O                 -0.0094590000      2.8553000000      0.2759600000
C                 -1.0773950000      0.7020020000      0.0851100000
C                 -2.3696250000      1.2443010000      0.2583030000
C                 -3.5080630000      0.4564080000      0.2492510000
C                 -3.3851990000     -0.9444270000      0.0571700000
C                 -2.1332500000     -1.5048110000     -0.1180800000
C                 -0.9514990000     -0.7245670000     -0.1084690000
C                  0.3348590000     -1.3773620000     -0.2990890000
O                  0.4607420000     -2.6414890000     -0.5109120000
H                  4.2047760000      0.8129230000     -0.7430130000
H                  5.2251970000     -0.4882060000     -0.1036000000
H                  4.0726010000      0.3470070000      0.9687200000
H                  2.2120930000      1.5371050000     -0.0337780000
H                 -2.4253730000      2.3197450000      0.4009450000
H                 -4.4903230000      0.9062630000      0.3862720000
H                 -4.2738170000     -1.5742120000      0.0454930000
H                 -2.0070720000     -2.5725100000     -0.2715190000
$end
$rem
MAX_SCF_CYCLES=200
BASIS  =  6-311++G(d,p)
GUI  =  2
JOB_TYPE  =  SP
METHOD  =  B3LYP
SOLVENT_METHOD = PCM
$end
$pcm
theory = CPCM
$end
$solvent
dielectric 37.219
opticaldielectric 1.43
$end

--------------------------------------------------------------

             Standard Nuclear Orientation (Angstroms)
    I     Atom           X                Y                Z
 ----------------------------------------------------------------
    1      C       4.2342530000    -0.0282110000    -0.0472460000
    2      S       3.0226430000    -1.3299990000    -0.4799080000
    3      C       1.4449140000    -0.4840880000    -0.2430110000
    4      C       1.3294620000     0.9070300000    -0.0699660000
    5      C       0.0895350000     1.5818000000     0.1032330000
    6      O      -0.0094590000     2.8553000000     0.2759600000
    7      C      -1.0773950000     0.7020020000     0.0851100000
    8      C      -2.3696250000     1.2443010000     0.2583030000
    9      C      -3.5080630000     0.4564080000     0.2492510000
   10      C      -3.3851990000    -0.9444270000     0.0571700000
   11      C      -2.1332500000    -1.5048110000    -0.1180800000
   12      C      -0.9514990000    -0.7245670000    -0.1084690000
   13      C       0.3348590000    -1.3773620000    -0.2990890000
   14      O       0.4607420000    -2.6414890000    -0.5109120000
   15      H       4.2047760000     0.8129230000    -0.7430130000
   16      H       5.2251970000    -0.4882060000    -0.1036000000
   17      H       4.0726010000     0.3470070000     0.9687200000
   18      H       2.2120930000     1.5371050000    -0.0337780000
   19      H      -2.4253730000     2.3197450000     0.4009450000
   20      H      -4.4903230000     0.9062630000     0.3862720000
   21      H      -4.2738170000    -1.5742120000     0.0454930000
   22      H      -2.0070720000    -2.5725100000    -0.2715190000
 ----------------------------------------------------------------

    9    -973.0622533801      5.54e-06  Convergence criterion met
 Total energy in the final basis set =     -973.0622533801

                    Orbital Energies (a.u.)
 --------------------------------------------------------------

 Alpha MOs
 -- Occupied --
-88.8286 -19.0234 -19.0216 -10.1767 -10.1760 -10.1741 -10.1570 -10.1513
-10.1499 -10.1475 -10.1471 -10.1417 -10.1395 -10.1242  -7.9138  -5.8776
 -5.8737  -5.8682  -0.9420  -0.9370  -0.8271  -0.7902  -0.7489  -0.7245
 -0.7015  -0.6554  -0.6193  -0.5864  -0.5602  -0.5260  -0.4767  -0.4663
 -0.4382  -0.4255  -0.4119  -0.4085  -0.4017  -0.3789  -0.3768  -0.3675
 -0.3587  -0.3531  -0.3281  -0.3215  -0.3179  -0.3117  -0.2996  -0.2555
 -0.2319  -0.2263  -0.2057  -0.2001  -0.1944  -0.1146

          Ground-State Mulliken Net Atomic Charges

     Atom                 Charge (a.u.)
  ----------------------------------------
      1 C                    -0.549005
      2 S                    -0.640534
      3 C                     0.940968
      4 C                     0.303145
      5 C                    -0.506048
      6 O                    -0.719886
      7 C                     0.353097
      8 C                     0.107574
      9 C                    -0.441041
     10 C                    -0.478377
     11 C                     0.188899
     12 C                     0.095988
     13 C                    -1.336526
     14 O                    -0.669520
     15 H                     0.186697
     16 H                     0.185278
     17 H                     0.189473
     18 H                     0.150656
     19 H                     0.141305
     20 H                     0.175487
     21 H                     0.172324
     22 H                     0.150046
  ----------------------------------------
  Sum of atomic charges =    -2.000000

                    Cartesian Multipole Moments
 -----------------------------------------------------------------
    Charge (ESU x 10^10)
                -9.6064
    Dipole Moment (Debye)
         X      -0.9071      Y       1.1765      Z       1.5818
       Tot       2.1700
    Quadrupole Moments (Debye-Ang)
        XX    -103.6871     XY      11.5356     YY    -158.1707
        XZ       3.4146     YZ      -8.5327     ZZ    -103.2944

 Total job time:  44.39s(wall), 218.09s(cpu)
        *  Thank you very much for using Q-Chem.  Have a nice day.  *
