 Gaussian 16, Revision A.03,
 Gaussian 16:  ES64L-G16RevA.03 25-Dec-2016

 --------------------------------------
 #P UB3LYP/6-311++G(d,p) nosym opt freq
 --------------------------------------

 -------
 Reduced
 -------
 Symbolic Z-matrix:
 Charge = -2 Multiplicity = 1

 SCF Done:  E(UB3LYP) =  -972.779460850     A.U. after   34 cycles
 SCF Done:  E(UB3LYP) =  -972.779460808     A.U. after   21 cycles
 SCF Done:  E(UB3LYP) =  -972.779460964     A.U. after   21 cycles
 Optimization completed.
    -- Stationary point found.
 Normal termination of Gaussian 16 at Mon Jan  8 01:38:27 2024.

 ----------------------------------------------------------------------
 #P Geom=AllCheck Guess=TCheck SCRF=Check GenChk UB3LYP/6-311++G(d,p) F
 req
 ----------------------------------------------------------------------

 Structure from the checkpoint file:  "276-an.chk"
 -------
 Reduced
 -------
 Charge = -2 Multiplicity = 1

                          Input orientation:
 ---------------------------------------------------------------------
 Center     Atomic      Atomic             Coordinates (Angstroms)
 Number     Number       Type             X           Y           Z
 ---------------------------------------------------------------------
      1          6           0        4.234253   -0.028211   -0.047246
      2         16           0        3.022643   -1.329999   -0.479908
      3          6           0        1.444914   -0.484088   -0.243011
      4          6           0        1.329462    0.907030   -0.069966
      5          6           0        0.089535    1.581800    0.103233
      6          8           0       -0.009459    2.855300    0.275960
      7          6           0       -1.077395    0.702002    0.085110
      8          6           0       -2.369625    1.244301    0.258303
      9          6           0       -3.508063    0.456408    0.249251
     10          6           0       -3.385199   -0.944427    0.057170
     11          6           0       -2.133250   -1.504811   -0.118080
     12          6           0       -0.951499   -0.724567   -0.108469
     13          6           0        0.334859   -1.377362   -0.299089
     14          8           0        0.460742   -2.641489   -0.510912
     15          1           0        4.204776    0.812923   -0.743013
     16          1           0        5.225197   -0.488206   -0.103600
     17          1           0        4.072601    0.347007    0.968720
     18          1           0        2.212093    1.537105   -0.033778
     19          1           0       -2.425373    2.319745    0.400945
     20          1           0       -4.490323    0.906263    0.386272
     21          1           0       -4.273817   -1.574212    0.045493
     22          1           0       -2.007072   -2.572510   -0.271519
 ---------------------------------------------------------------------

 SCF Done:  E(UB3LYP) =  -972.779460964     A.U. after    2 cycles

 Alpha  occ. eigenvalues --  -88.59977 -18.77742 -18.77447  -9.96685  -9.93637
 Alpha  occ. eigenvalues --   -9.93568  -9.92925  -9.92812  -9.92287  -9.91920
 Alpha  occ. eigenvalues --   -9.91918  -9.90562  -9.90385  -9.88825  -7.68448
 Alpha  occ. eigenvalues --   -5.64868  -5.64440  -5.63857  -0.69428  -0.68755
 Alpha  occ. eigenvalues --   -0.59594  -0.56037  -0.52115  -0.49386  -0.47419
 Alpha  occ. eigenvalues --   -0.42376  -0.39099  -0.35608  -0.33165  -0.29344
 Alpha  occ. eigenvalues --   -0.24850  -0.23725  -0.20960  -0.20201  -0.19705
 Alpha  occ. eigenvalues --   -0.18794  -0.17154  -0.14923  -0.13672  -0.13215
 Alpha  occ. eigenvalues --   -0.12141  -0.11231  -0.09191  -0.08747  -0.07804
 Alpha  occ. eigenvalues --   -0.07554  -0.06334  -0.01812   0.00215   0.01612
 Alpha  occ. eigenvalues --    0.04232   0.04513   0.05020   0.13311
 Alpha virt. eigenvalues --    0.15003   0.16145   0.17915   0.19238   0.20540
 Alpha virt. eigenvalues --    0.20668   0.21761   0.22262   0.23079   0.23704
 Alpha virt. eigenvalues --    0.24203   0.25552   0.26122   0.26792   0.27017

  Beta  occ. eigenvalues --  -88.59977 -18.77742 -18.77447  -9.96685  -9.93637
  Beta  occ. eigenvalues --   -9.93568  -9.92925  -9.92812  -9.92287  -9.91920
  Beta  occ. eigenvalues --   -9.91918  -9.90562  -9.90385  -9.88825  -7.68448
  Beta  occ. eigenvalues --   -5.64868  -5.64440  -5.63857  -0.69428  -0.68755
  Beta  occ. eigenvalues --   -0.59594  -0.56037  -0.52115  -0.49386  -0.47419
  Beta  occ. eigenvalues --   -0.42376  -0.39099  -0.35608  -0.33165  -0.29344
  Beta  occ. eigenvalues --   -0.24850  -0.23725  -0.20960  -0.20201  -0.19705
  Beta  occ. eigenvalues --   -0.18794  -0.17154  -0.14923  -0.13672  -0.13215
  Beta  occ. eigenvalues --   -0.12141  -0.11231  -0.09191  -0.08747  -0.07804
  Beta  occ. eigenvalues --   -0.07554  -0.06334  -0.01812   0.00215   0.01612
  Beta  occ. eigenvalues --    0.04232   0.04513   0.05020   0.13311
  Beta virt. eigenvalues --    0.15003   0.16145   0.17915   0.19238   0.20540
  Beta virt. eigenvalues --    0.20668   0.21761   0.22262   0.23079   0.23704
  Beta virt. eigenvalues --    0.24203   0.25552   0.26122   0.26792   0.27017

 Mulliken charges and spin densities:
               1          2
     1  C    0.125291   0.000000
     2  S   -0.547764   0.000000
     3  C    0.911727  -0.000000
     4  C    0.756091  -0.000000
     5  C   -0.940743  -0.000000
     6  O   -0.528890   0.000000
     7  C    0.644657  -0.000000
     8  C    0.096832   0.000000
     9  C   -0.328413   0.000000
    10  C   -0.372269   0.000000
    11  C    0.187528   0.000000
    12  C    0.337357   0.000000
    13  C   -1.791264   0.000000
    14  O   -0.472432   0.000000
    15  H    0.070662  -0.000000
    16  H   -0.783748  -0.000000
    17  H    0.107206  -0.000000
    18  H    0.128671  -0.000000
    19  H    0.119619   0.000000
    20  H    0.075608  -0.000000
    21  H    0.069977   0.000000
    22  H    0.134297  -0.000000
 Sum of Mulliken charges =  -2.00000   0.00000

 Dipole moment (field-independent basis, Debye):
    X=             -5.8004    Y=              1.2211    Z=              1.4529  Tot=              6.1030
 Quadrupole moment (field-independent basis, Debye-Ang):
   XX=           -171.2168   YY=           -153.2902   ZZ=           -106.6429
   XY=             11.8049   XZ=              5.5736   YZ=             -7.5173

  Exact polarizability:1815.134-117.333 292.648 -38.341  17.532 179.893
 Approx polarizability:4038.813-246.636 457.027-102.054  38.166 228.344

                      1                      2                      3
                      A                      A                      A
 Frequencies --     40.8287                85.3159               132.0198
 Red. masses --      3.6438                 7.4935                 4.3270
 Frc consts  --      0.0036                 0.0321                 0.0444
 IR Inten    --      1.2360                 1.8604                 0.9659

                      4                      5                      6
                      A                      A                      A
 Frequencies --    153.9096               167.4386               215.5685
 Red. masses --      4.8508                 7.2456                 2.7705
 Frc consts  --      0.0677                 0.1197                 0.0759
 IR Inten    --      6.5388                10.2761                 8.5613

                      7                      8                      9
                      A                      A                      A
 Frequencies --    247.7902               262.7281               267.8840
 Red. masses --      4.3784                 1.3226                 6.5606
 Frc consts  --      0.1584                 0.0538                 0.2774
 IR Inten    --      6.6872                79.9744                 5.8629

                     10                     11                     12
                      A                      A                      A
 Frequencies --    343.6907               354.4384               360.4485
 Red. masses --      9.0109                 8.7067                 8.0310
 Frc consts  --      0.6271                 0.6444                 0.6148
 IR Inten    --      5.7914                15.4830                24.5305

                     13                     14                     15
                      A                      A                      A
 Frequencies --    436.5584               457.9282               484.7584
 Red. masses --      3.3557                11.1142                 4.4127
 Frc consts  --      0.3768                 1.3732                 0.6110
 IR Inten    --      8.6271               779.0595                 6.8990

                     16                     17                     18
                      A                      A                      A
 Frequencies --    503.9933               601.0888               620.0571
 Red. masses --      7.8439                 7.3420                 3.8442
 Frc consts  --      1.1739                 1.5629                 0.8708
 IR Inten    --    115.1507                 4.6549                 9.4680

                     19                     20                     21
                      A                      A                      A
 Frequencies --    656.6401               658.2138               694.6657
 Red. masses --      5.5383                 2.6668                 5.9162
 Frc consts  --      1.4070                 0.6807                 1.6821
 IR Inten    --      3.0920                27.2861                 3.1448

                     22                     23                     24
                      A                      A                      A
 Frequencies --    720.4623               732.2107               747.1207
 Red. masses --      6.2233                 1.5790                 2.6624
 Frc consts  --      1.9032                 0.4988                 0.8756
 IR Inten    --     10.8525                50.9964                12.2847

                     25                     26                     27
                      A                      A                      A
 Frequencies --    800.0433               813.2766               828.1375
 Red. masses --      1.7286                 1.7930                 6.5388
 Frc consts  --      0.6519                 0.6987                 2.6421
 IR Inten    --      9.7080                11.9126                80.9037

                     28                     29                     30
                      A                      A                      A
 Frequencies --    837.5030               947.0476               950.7908
 Red. masses --      6.0496                 1.2296                 1.2078
 Frc consts  --      2.5001                 0.6498                 0.6433
 IR Inten    --     59.1044                 0.4592                52.1728

                     31                     32                     33
                      A                      A                      A
 Frequencies --    955.2979               964.5051              1012.8897
 Red. masses --      1.3464                 1.3024                 2.3701
 Frc consts  --      0.7239                 0.7138                 1.4327
 IR Inten    --      3.4231               529.6372               475.8590

                     34                     35                     36
                      A                      A                      A
 Frequencies --   1077.7415              1087.6931              1123.5824
 Red. masses --      3.5059                 2.6220                 1.4382
 Frc consts  --      2.3993                 1.8277                 1.0697
 IR Inten    --    130.0564               138.0066                76.0821

                     37                     38                     39
                      A                      A                      A
 Frequencies --   1146.2425              1210.1489              1223.3938
 Red. masses --      1.8212                 2.4165                 2.0085
 Frc consts  --      1.4098                 2.0850                 1.7712
 IR Inten    --     66.8502               232.5128                66.8325

                     40                     41                     42
                      A                      A                      A
 Frequencies --   1266.7642              1328.1540              1336.1829
 Red. masses --      1.8986                 8.7321                 1.1755
 Frc consts  --      1.7951                 9.0754                 1.2365
 IR Inten    --    337.5134               606.2422               271.9223

                     43                     44                     45
                      A                      A                      A
 Frequencies --   1381.8928              1389.5053              1416.6211
 Red. masses --      4.7377                 4.8872                 4.0759
 Frc consts  --      5.3304                 5.5594                 4.8193
 IR Inten    --    423.0667               508.0810              1219.1364

                     46                     47                     48
                      A                      A                      A
 Frequencies --   1448.0980              1453.1463              1480.1446
 Red. masses --      2.9610                 1.1006                 1.5852
 Frc consts  --      3.6584                 1.3693                 2.0462
 IR Inten    --    409.9215               112.6768               992.4846

                     49                     50                     51
                      A                      A                      A
 Frequencies --   1491.3621              1506.6229              1564.4196
 Red. masses --      1.7451                 4.1629                 6.4721
 Frc consts  --      2.2869                 5.5674                 9.3326
 IR Inten    --    276.9081               376.4974              2749.6180

                     52                     53                     54
                      A                      A                      A
 Frequencies --   1584.9557              2995.6600              3066.6066
 Red. masses --      5.4342                 1.0313                 1.1029
 Frc consts  --      8.0430                 5.4530                 6.1109
 IR Inten    --    176.6576                42.0557               253.2512

                     55                     56                     57
                      A                      A                      A
 Frequencies --   3080.4750              3086.5783              3110.8505
 Red. masses --      1.1040                 1.0823                 1.0905
 Frc consts  --      6.1723                 6.0754                 6.2178
 IR Inten    --      9.6074                37.1903               315.0803

                     58                     59                     60
                      A                      A                      A
 Frequencies --   3151.3869              3153.5462              3155.3253
 Red. masses --      1.0900                 1.0863                 1.0911
 Frc consts  --      6.3780                 6.3651                 6.4003
 IR Inten    --     30.0087               133.9262               186.0171

 - Thermochemistry -
 -------------------
 Temperature   298.150 Kelvin.  Pressure   1.00000 Atm.
 Atom     1 has atomic number  6 and mass  12.00000

 Molecular mass:   204.02450 amu.
 Principal axes and moments of inertia in atomic units:
                           1         2         3
     Eigenvalues --  1563.809874029.084595571.13094
           X            0.98262   0.17779   0.05329
           Y           -0.16902   0.97577  -0.13891
           Z           -0.07670   0.12749   0.98887
 This molecule is an asymmetric top.
 Rotational symmetry number  1.
 Warning -- assumption of classical behavior for rotation
           may cause significant error
 Rotational temperatures (Kelvin)      0.05539     0.02150     0.01555
 Rotational constants (GHZ):           1.15407     0.44793     0.32395
 Zero-point vibrational energy     408957.5 (Joules/Mol)
                                   97.74318 (Kcal/Mol)
 Warning -- explicit consideration of  18 degrees of freedom as
           vibrations may cause significant error
 Vibrational temperatures:     58.74   122.75   189.95   221.44   240.91
          (Kelvin)            310.16   356.51   378.01   385.43   494.49
                              509.96   518.61   628.11   658.86   697.46
                              725.13   864.83   892.12   944.76   947.02
                              999.47  1036.58  1053.49  1074.94  1151.08
                             1170.12  1191.51  1204.98  1362.59  1367.98
                             1374.46  1387.71  1457.32  1550.63  1564.95
                             1616.58  1649.19  1741.13  1760.19  1822.59
                             1910.92  1922.47  1988.24  1999.19  2038.20
                             2083.49  2090.75  2129.60  2145.74  2167.69
                             2250.85  2280.40  4310.09  4412.16  4432.12
                             4440.90  4475.82  4534.14  4537.25  4539.81

 Zero-point correction=                           0.155764 (Hartree/Particle)
 Thermal correction to Energy=                    0.167866
 Thermal correction to Enthalpy=                  0.168810
 Thermal correction to Gibbs Free Energy=         0.117153
 Sum of electronic and zero-point Energies=           -972.623697
 Sum of electronic and thermal Energies=              -972.611595
 Sum of electronic and thermal Enthalpies=            -972.610651
 Sum of electronic and thermal Free Energies=         -972.662308

                     E (Thermal)             CV                S
                      KCal/Mol        Cal/Mol-Kelvin    Cal/Mol-Kelvin
 Total                  105.338             46.932            108.721
 Electronic               0.000              0.000              0.000
 Translational            0.889              2.981             41.844
 Rotational               0.889              2.981             31.929
 Vibrational            103.560             40.971             34.948
 Vibration     1          0.594              1.981              5.218
 Vibration     2          0.601              1.959              3.765
 Vibration     3          0.612              1.921              2.916
 Vibration     4          0.619              1.898              2.623
 Vibration     5          0.624              1.883              2.464
 Vibration     6          0.645              1.817              1.996
 Vibration     7          0.661              1.766              1.746
 Vibration     8          0.670              1.741              1.644
 Vibration     9          0.673              1.732              1.610
 Vibration    10          0.722              1.588              1.195
 Vibration    11          0.730              1.566              1.146
 Vibration    12          0.735              1.554              1.120
 Vibration    13          0.797              1.391              0.837
 Vibration    14          0.816              1.343              0.772
 Vibration    15          0.841              1.284              0.697
 Vibration    16          0.859              1.241              0.648
 Vibration    17          0.959              1.029              0.448
 Vibration    18          0.980              0.990              0.416

 Optimization completed.
    -- Stationary point found.
 Normal termination of Gaussian 16 at Mon Jan  8 02:15:01 2024.
