 Gaussian 16, Revision A.03,
 Gaussian 16:  ES64L-G16RevA.03 25-Dec-2016

 ----------------------------------------------------------------
 #P UB3LYP/6-311++G(d,p) SCRF=(PCM,Solvent=n,n-DiMethylFormamide)
 ----------------------------------------------------------------

 -------
 Reduced
 -------
 Symbolic Z-matrix:
 Charge = -2 Multiplicity = 1

                         Standard orientation:
 ---------------------------------------------------------------------
 Center     Atomic      Atomic             Coordinates (Angstroms)
 Number     Number       Type             X           Y           Z
 ---------------------------------------------------------------------
      1          6           0       -0.263105   -0.630060    0.078490
      2          6           0       -1.463190    0.153695    0.000887
      3          6           0       -1.390821    1.549540   -0.098706
      4          6           0       -0.162203    2.295218   -0.135507
      5          6           0        1.029598    1.497981   -0.044026
      6          6           0        0.986080    0.113310    0.064139
      7          8           0       -0.223045   -1.931807    0.141904
      8          8           0       -0.137489    3.578636   -0.242317
      9          7           0        2.111793   -0.711167    0.174884
     10          6           0        3.445098   -0.343659   -0.248218
     11          6           0        4.230116    0.362753    0.876628
     12          6           0        4.198000   -1.596536   -0.715783
     13          1           0        1.976633    2.029936   -0.068400
     14          1           0        1.817690   -1.676046    0.044508
     15          1           0        3.382239    0.359018   -1.097496
     16          1           0        5.205769    0.716765    0.515131
     17          1           0        4.401888   -0.332126    1.706380
     18          1           0        3.668711    1.217539    1.260367
     19          1           0        5.240154   -1.373264   -0.957858
     20          1           0        3.726569   -2.032787   -1.603121
     21          1           0        4.200611   -2.355414    0.076748
     22          6           0       -2.818567   -0.583573    0.027003
     23          6           0       -2.941682   -1.396658    1.339188
     24          6           0       -4.027975    0.368407   -0.049681
     25          6           0       -2.906491   -1.553684   -1.177485
     26          1           0       -2.291438    2.152258   -0.156416
     27          1           0       -2.090113   -2.074139    1.425748
     28          1           0       -3.877368   -1.977317    1.354882
     29          1           0       -2.944874   -0.720393    2.201686
     30          1           0       -4.956769   -0.217612   -0.023820
     31          1           0       -4.022296    0.955288   -0.973253
     32          1           0       -4.044363    1.069024    0.790729
     33          1           0       -2.057943   -2.239690   -1.149941
     34          1           0       -2.876131   -0.990485   -2.117178
     35          1           0       -3.846399   -2.127443   -1.151160
 ---------------------------------------------------------------------

 SCF Done:  E(UB3LYP) =  -712.455257764     A.U. after   17 cycles

 The electronic state is 1-A.
 Alpha  occ. eigenvalues --  -19.00404 -19.00138 -14.27542 -10.19001 -10.15655
 Alpha  occ. eigenvalues --  -10.15524 -10.15159 -10.14889 -10.14696 -10.14494
 Alpha  occ. eigenvalues --  -10.13643 -10.12855 -10.12844 -10.11569 -10.10289
 Alpha  occ. eigenvalues --  -10.09609  -0.92526  -0.91835  -0.88353  -0.79348
 Alpha  occ. eigenvalues --   -0.76605  -0.73427  -0.67929  -0.66883  -0.66154
 Alpha  occ. eigenvalues --   -0.65696  -0.62331  -0.58508  -0.54883  -0.52778
 Alpha  occ. eigenvalues --   -0.49205  -0.46381  -0.45124  -0.43460  -0.42299
 Alpha  occ. eigenvalues --   -0.41679  -0.41272  -0.41010  -0.39090  -0.38544
 Alpha  occ. eigenvalues --   -0.37590  -0.37337  -0.36790  -0.35307  -0.34974
 Alpha  occ. eigenvalues --   -0.34336  -0.34272  -0.33234  -0.32923  -0.32326
 Alpha  occ. eigenvalues --   -0.31184  -0.30598  -0.29952  -0.29766  -0.28708
 Alpha  occ. eigenvalues --   -0.24988  -0.20655  -0.18562  -0.18032  -0.16814
 Alpha  occ. eigenvalues --   -0.09690
 Alpha virt. eigenvalues --   -0.00155   0.00539   0.01473   0.01754   0.02448
 Alpha virt. eigenvalues --    0.02605   0.02889   0.03881   0.04044   0.04297
 Alpha virt. eigenvalues --    0.04573   0.04835   0.05593   0.05814   0.06060

  Beta  occ. eigenvalues --  -19.00404 -19.00138 -14.27542 -10.19001 -10.15655
  Beta  occ. eigenvalues --  -10.15524 -10.15159 -10.14889 -10.14696 -10.14494
  Beta  occ. eigenvalues --  -10.13643 -10.12855 -10.12844 -10.11569 -10.10289
  Beta  occ. eigenvalues --  -10.09609  -0.92526  -0.91835  -0.88353  -0.79348
  Beta  occ. eigenvalues --   -0.76605  -0.73427  -0.67929  -0.66883  -0.66154
  Beta  occ. eigenvalues --   -0.65696  -0.62331  -0.58508  -0.54883  -0.52778
  Beta  occ. eigenvalues --   -0.49205  -0.46381  -0.45124  -0.43460  -0.42299
  Beta  occ. eigenvalues --   -0.41679  -0.41272  -0.41010  -0.39090  -0.38544
  Beta  occ. eigenvalues --   -0.37590  -0.37337  -0.36790  -0.35307  -0.34974
  Beta  occ. eigenvalues --   -0.34336  -0.34272  -0.33234  -0.32923  -0.32326
  Beta  occ. eigenvalues --   -0.31184  -0.30598  -0.29952  -0.29766  -0.28708
  Beta  occ. eigenvalues --   -0.24988  -0.20655  -0.18562  -0.18032  -0.16814
  Beta  occ. eigenvalues --   -0.09690
  Beta virt. eigenvalues --   -0.00155   0.00539   0.01473   0.01754   0.02448
  Beta virt. eigenvalues --    0.02605   0.02889   0.03881   0.04044   0.04297
  Beta virt. eigenvalues --    0.04573   0.04835   0.05593   0.05814   0.06060

 Mulliken charges and spin densities:
               1          2
     1  C   -1.697969   0.000000
     2  C    0.959407  -0.000000
     3  C   -0.452899  -0.000000
     4  C   -0.542316  -0.000000
     5  C    0.948115  -0.000000
     6  C   -0.333533   0.000000
     7  O   -0.656138  -0.000000
     8  O   -0.736940  -0.000000
     9  N   -0.080468   0.000000
    10  C    0.016277   0.000000
    11  C   -0.415204  -0.000000
    12  C   -0.661249  -0.000000
    13  H    0.141481  -0.000000
    14  H    0.334938  -0.000000
    15  H    0.122495   0.000000
    16  H    0.125175  -0.000000
    17  H    0.133088   0.000000
    18  H    0.138606   0.000000
    19  H    0.150275   0.000000
    20  H    0.152345   0.000000
    21  H    0.137143   0.000000
    22  C    0.692459   0.000000
    23  C   -0.668212   0.000000
    24  C   -0.489893   0.000000
    25  C   -0.668373  -0.000000
    26  H    0.116506  -0.000000
    27  H    0.177735  -0.000000
    28  H    0.121885   0.000000
    29  H    0.115997   0.000000
    30  H    0.155404   0.000000
    31  H    0.121823   0.000000
    32  H    0.122693   0.000000
    33  H    0.182798   0.000000
    34  H    0.113944   0.000000
    35  H    0.122604   0.000000
 Sum of Mulliken charges =  -2.00000  -0.00000

 Dipole moment (field-independent basis, Debye):
    X=              3.2399    Y=             -9.4239    Z=             -0.3826  Tot=              9.9727
 Quadrupole moment (field-independent basis, Debye-Ang):
   XX=           -117.4973   YY=           -178.9958   ZZ=           -113.7720
   XY=             -0.7787   XZ=             -2.5371   YZ=              5.3101

 Normal termination of Gaussian 16 at Wed Jan 24 22:55:30 2024.
