 Gaussian 16, Revision A.03,
 Gaussian 16:  ES64L-G16RevA.03 25-Dec-2016

 --------------------------------------
 #P UB3LYP/6-311++G(d,p) nosym opt freq
 --------------------------------------

 -------
 Reduced
 -------
 Symbolic Z-matrix:
 Charge = -2 Multiplicity = 1

 SCF Done:  E(UB3LYP) =  -693.444300887     A.U. after   47 cycles
 SCF Done:  E(UB3LYP) =  -693.469551811     A.U. after   33 cycles
 SCF Done:  E(UB3LYP) =  -693.474234343     A.U. after   36 cycles
 SCF Done:  E(UB3LYP) =  -693.474802810     A.U. after   35 cycles
 SCF Done:  E(UB3LYP) =  -693.474798200     A.U. after   33 cycles
 SCF Done:  E(UB3LYP) =  -693.474872266     A.U. after   27 cycles
 SCF Done:  E(UB3LYP) =  -693.474881337     A.U. after   28 cycles
 SCF Done:  E(UB3LYP) =  -693.474885079     A.U. after   29 cycles
 SCF Done:  E(UB3LYP) =  -693.474890554     A.U. after   30 cycles
 SCF Done:  E(UB3LYP) =  -693.474892298     A.U. after   30 cycles
 SCF Done:  E(UB3LYP) =  -693.474892362     A.U. after   26 cycles
 Optimization completed.
    -- Stationary point found.
 Normal termination of Gaussian 16 at Sat Jan  6 04:06:45 2024.

 ----------------------------------------------------------------------
 #P Geom=AllCheck Guess=TCheck SCRF=Check GenChk UB3LYP/6-311++G(d,p) F
 req
 ----------------------------------------------------------------------

 Structure from the checkpoint file:  "341-an.chk"
 -------
 Reduced
 -------
 Charge = -2 Multiplicity = 1

                          Input orientation:
 ---------------------------------------------------------------------
 Center     Atomic      Atomic             Coordinates (Angstroms)
 Number     Number       Type             X           Y           Z
 ---------------------------------------------------------------------
      1          6           0       -0.320116   -2.001824    0.964936
      2          6           0       -0.232876   -0.951688   -0.177380
      3          6           0       -0.558645   -1.651165   -1.529170
      4          6           0       -1.279335    0.142045    0.099290
      5          6           0       -2.635795   -0.187992    0.090002
      6          6           0       -3.639313    0.747508    0.378875
      7          6           0       -3.268797    2.069717    0.653840
      8          6           0       -1.931808    2.428169    0.662806
      9          6           0       -0.903224    1.475215    0.421384
     10          6           0        0.484073    1.916952    0.476493
     11          8           0        0.785756    3.117285    0.763585
     12          6           0        1.505668    0.942767    0.115914
     13          6           0        2.861921    1.368603    0.055009
     14          6           0        3.885001    0.488376   -0.252570
     15          6           0        3.596044   -0.851989   -0.537271
     16          6           0        2.257752   -1.269870   -0.529426
     17          6           0        1.205885   -0.407341   -0.215562
     18          1           0        0.394493   -2.814526    0.806357
     19          1           0       -1.322960   -2.434230    1.024689
     20          1           0       -0.093486   -1.529472    1.925188
     21          1           0       -1.563254   -2.085763   -1.523345
     22          1           0       -0.504795   -0.933634   -2.351995
     23          1           0        0.145248   -2.462470   -1.740122
     24          1           0       -2.937994   -1.206218   -0.136381
     25          1           0       -4.683911    0.447655    0.374181
     26          1           0       -4.035087    2.815099    0.860719
     27          1           0       -1.617110    3.445755    0.863705
     28          1           0        3.055823    2.412940    0.270933
     29          1           0        4.916548    0.836305   -0.273629
     30          1           0        4.387675   -1.557852   -0.774318
     31          1           0        2.046618   -2.308357   -0.766740
 ---------------------------------------------------------------------

 SCF Done:  E(UB3LYP) =  -693.474892362     A.U. after    3 cycles

 Alpha  occ. eigenvalues --  -18.83077  -9.98958  -9.98293  -9.96367  -9.96366
 Alpha  occ. eigenvalues --   -9.96165  -9.95743  -9.95742  -9.95669  -9.95414
 Alpha  occ. eigenvalues --   -9.95414  -9.95152  -9.95152  -9.94795  -9.94794
 Alpha  occ. eigenvalues --   -9.94492  -9.94491  -0.75029  -0.65295  -0.62965
 Alpha  occ. eigenvalues --   -0.59666  -0.54432  -0.52859  -0.51807  -0.51029
 Alpha  occ. eigenvalues --   -0.48570  -0.42637  -0.41651  -0.39275  -0.37022
 Alpha  occ. eigenvalues --   -0.34185  -0.31856  -0.30825  -0.26535  -0.24515
 Alpha  occ. eigenvalues --   -0.24465  -0.23647  -0.22691  -0.22174  -0.21886
 Alpha  occ. eigenvalues --   -0.20246  -0.19602  -0.18614  -0.17241  -0.17144
 Alpha  occ. eigenvalues --   -0.16678  -0.16054  -0.14604  -0.14146  -0.14117
 Alpha  occ. eigenvalues --   -0.13093  -0.11139  -0.10553  -0.09725  -0.03547
 Alpha  occ. eigenvalues --   -0.03122  -0.02738  -0.02267  -0.00107   0.12545
 Alpha virt. eigenvalues --    0.14097   0.14350   0.15018   0.16053   0.16589
 Alpha virt. eigenvalues --    0.17121   0.18114   0.18763   0.19348   0.19530
 Alpha virt. eigenvalues --    0.20024   0.20553   0.20841   0.21044   0.21333

  Beta  occ. eigenvalues --  -18.83077  -9.98958  -9.98293  -9.96367  -9.96366
  Beta  occ. eigenvalues --   -9.96165  -9.95743  -9.95742  -9.95669  -9.95414
  Beta  occ. eigenvalues --   -9.95414  -9.95152  -9.95152  -9.94795  -9.94794
  Beta  occ. eigenvalues --   -9.94492  -9.94491  -0.75029  -0.65295  -0.62965
  Beta  occ. eigenvalues --   -0.59666  -0.54432  -0.52859  -0.51807  -0.51029
  Beta  occ. eigenvalues --   -0.48570  -0.42637  -0.41651  -0.39275  -0.37022
  Beta  occ. eigenvalues --   -0.34185  -0.31856  -0.30825  -0.26535  -0.24515
  Beta  occ. eigenvalues --   -0.24465  -0.23647  -0.22691  -0.22174  -0.21886
  Beta  occ. eigenvalues --   -0.20246  -0.19602  -0.18614  -0.17241  -0.17144
  Beta  occ. eigenvalues --   -0.16678  -0.16054  -0.14604  -0.14146  -0.14117
  Beta  occ. eigenvalues --   -0.13093  -0.11139  -0.10553  -0.09725  -0.03547
  Beta  occ. eigenvalues --   -0.03122  -0.02738  -0.02267  -0.00107   0.12545
  Beta virt. eigenvalues --    0.14097   0.14350   0.15018   0.16053   0.16589
  Beta virt. eigenvalues --    0.17121   0.18114   0.18763   0.19348   0.19530
  Beta virt. eigenvalues --    0.20024   0.20553   0.20841   0.21044   0.21333

 Mulliken charges and spin densities:
               1          2
     1  C    0.056171   0.000000
     2  C   -0.965455  -0.000000
     3  C    1.266753   0.000000
     4  C   -0.335256  -0.000000
     5  C   -0.928367   0.000000
     6  C    1.640871  -0.000000
     7  C    0.242826  -0.000000
     8  C   -0.276970   0.000000
     9  C    0.885700  -0.000000
    10  C   -0.448603   0.000000
    11  O   -0.428359   0.000000
    12  C    0.887558   0.000000
    13  C   -0.277295   0.000000
    14  C    0.243290   0.000000
    15  C    1.643537   0.000000
    16  C   -0.928822  -0.000000
    17  C   -0.335463  -0.000000
    18  H   -0.190214  -0.000000
    19  H   -0.189121  -0.000000
    20  H    0.165105  -0.000000
    21  H   -0.787647  -0.000000
    22  H    0.198550   0.000000
    23  H   -0.786828  -0.000000
    24  H    0.287410   0.000000
    25  H   -1.320920   0.000000
    26  H   -0.316295   0.000000
    27  H    0.173922   0.000000
    28  H    0.173872  -0.000000
    29  H   -0.316612  -0.000000
    30  H   -1.320674  -0.000000
    31  H    0.287337   0.000000
 Sum of Mulliken charges =  -2.00000  -0.00000

 Dipole moment (field-independent basis, Debye):
    X=             -0.2004    Y=             -1.3753    Z=              0.8221  Tot=              1.6148
 Quadrupole moment (field-independent basis, Debye-Ang):
   XX=           -255.9253   YY=           -185.1896   ZZ=           -142.7435
   XY=             14.4306   XZ=             11.0386   YZ=            -17.5135

  Exact polarizability:5519.575-622.6312666.576-514.100 418.368 930.699
 Approx polarizability:****************4351.326********1265.3271189.224

                      1                      2                      3
                      A                      A                      A
 Frequencies --     31.0930               101.3670               103.3944
 Red. masses --      4.3312                 3.6808                 4.0321
 Frc consts  --      0.0025                 0.0223                 0.0254
 IR Inten    --      2.6510                 1.7091                 2.6978

                      4                      5                      6
                      A                      A                      A
 Frequencies --    162.5682               182.4374               224.1006
 Red. masses --      5.7544                 1.7926                 3.9720
 Frc consts  --      0.0896                 0.0352                 0.1175
 IR Inten    --     28.4741                 0.3061                 0.3202

                      7                      8                      9
                      A                      A                      A
 Frequencies --    246.2621               274.9883               299.9061
 Red. masses --      1.4913                 1.0913                 3.3144
 Frc consts  --      0.0533                 0.0486                 0.1756
 IR Inten    --     24.8905                13.8636                 0.3120

                     10                     11                     12
                      A                      A                      A
 Frequencies --    304.2129               336.9968               346.8217
 Red. masses --      3.3191                 3.5837                 3.5206
 Frc consts  --      0.1810                 0.2398                 0.2495
 IR Inten    --      0.8895                15.5765                11.9661

                     13                     14                     15
                      A                      A                      A
 Frequencies --    351.9795               367.7664               386.5201
 Red. masses --      4.7806                 5.1508                 3.5602
 Frc consts  --      0.3490                 0.4105                 0.3134
 IR Inten    --      1.9764                 3.4944                67.4070

                     16                     17                     18
                      A                      A                      A
 Frequencies --    426.4089               463.4346               498.8046
 Red. masses --      7.3875                 3.3030                 4.3731
 Frc consts  --      0.7914                 0.4180                 0.6411
 IR Inten    --     11.1263                91.7606                22.9473

                     19                     20                     21
                      A                      A                      A
 Frequencies --    549.8172               576.5310               596.2833
 Red. masses --      3.7078                 3.4675                 5.4964
 Frc consts  --      0.6604                 0.6791                 1.1514
 IR Inten    --     13.4997                28.6434                25.4613

                     22                     23                     24
                      A                      A                      A
 Frequencies --    621.4610               642.1707               651.8849
 Red. masses --      4.8224                 5.3657                 3.4717
 Frc consts  --      1.0973                 1.3037                 0.8692
 IR Inten    --      4.4915                 4.7063                14.3789

                     25                     26                     27
                      A                      A                      A
 Frequencies --    676.8104               740.5068               760.7009
 Red. masses --      5.9685                 3.9044                 1.5545
 Frc consts  --      1.6108                 1.2614                 0.5300
 IR Inten    --      4.9246                12.4750               102.8223

                     28                     29                     30
                      A                      A                      A
 Frequencies --    771.3073               771.9807               780.5360
 Red. masses --      1.2798                 5.5123                 2.6881
 Frc consts  --      0.4486                 1.9355                 0.9649
 IR Inten    --      2.4578                16.7431               170.2614

                     31                     32                     33
                      A                      A                      A
 Frequencies --    813.7227               851.1134               853.7811
 Red. masses --      2.7313                 1.4315                 1.6587
 Frc consts  --      1.0655                 0.6110                 0.7124
 IR Inten    --     43.5114                19.9344               104.4195

                     34                     35                     36
                      A                      A                      A
 Frequencies --    911.7073               921.9632               928.8704
 Red. masses --      2.8316                 1.5350                 1.4027
 Frc consts  --      1.3867                 0.7688                 0.7131
 IR Inten    --     11.2233                96.1929                10.3939

                     37                     38                     39
                      A                      A                      A
 Frequencies --    931.9668               933.7378               965.3914
 Red. masses --      4.9320                 1.4260                 1.2781
 Frc consts  --      2.5239                 0.7325                 0.7018
 IR Inten    --     20.0911                 6.5578                 5.7398

                     40                     41                     42
                      A                      A                      A
 Frequencies --    965.7426              1027.2666              1037.1051
 Red. masses --      1.2709                 1.3888                 2.6070
 Frc consts  --      0.6984                 0.8635                 1.6521
 IR Inten    --      0.8763                43.1732                 4.8003

                     43                     44                     45
                      A                      A                      A
 Frequencies --   1038.1876              1090.9178              1093.1765
 Red. masses --      2.1828                 2.5511                 2.4072
 Frc consts  --      1.3862                 1.7888                 1.6949
 IR Inten    --    206.9021                 5.9125                 9.5838

                     46                     47                     48
                      A                      A                      A
 Frequencies --   1101.1040              1129.9801              1132.4815
 Red. masses --      1.5843                 1.9307                 2.5412
 Frc consts  --      1.1317                 1.4525                 1.9202
 IR Inten    --     30.1818                32.4403                74.0497

                     49                     50                     51
                      A                      A                      A
 Frequencies --   1151.2105              1161.2885              1188.4198
 Red. masses --      1.1991                 1.1248                 3.0356
 Frc consts  --      0.9363                 0.8937                 2.5260
 IR Inten    --    255.1967               207.7923               101.0394

                     52                     53                     54
                      A                      A                      A
 Frequencies --   1205.5811              1211.0978              1271.4880
 Red. masses --      1.8674                 2.9516                 1.7414
 Frc consts  --      1.5991                 2.5508                 1.6587
 IR Inten    --     84.6871               111.9419               194.6184

                     55                     56                     57
                      A                      A                      A
 Frequencies --   1281.3849              1323.7478              1338.4619
 Red. masses --      2.4042                 2.9990                 8.7567
 Frc consts  --      2.3258                 3.0963                 9.2427
 IR Inten    --     22.6644                 0.4104                39.4615

                     58                     59                     60
                      A                      A                      A
 Frequencies --   1349.8136              1381.1888              1406.6526
 Red. masses --      6.9673                 1.1936                 1.2209
 Frc consts  --      7.4793                 1.3416                 1.4234
 IR Inten    --     25.0167               204.2383               237.0950

                     61                     62                     63
                      A                      A                      A
 Frequencies --   1422.6309              1441.6927              1474.4305
 Red. masses --      3.2186                 2.2585                 3.0987
 Frc consts  --      3.8380                 2.7658                 3.9689
 IR Inten    --    906.8800               229.2392               107.1429

                     64                     65                     66
                      A                      A                      A
 Frequencies --   1476.0722              1480.3082              1482.0460
 Red. masses --      1.6131                 1.2779                 1.0687
 Frc consts  --      2.0708                 1.6499                 1.3831
 IR Inten    --     40.0849                25.5657                35.9783

                     67                     68                     69
                      A                      A                      A
 Frequencies --   1492.0081              1499.6435              1503.2284
 Red. masses --      1.0684                 2.6855                 1.1953
 Frc consts  --      1.4012                 3.5584                 1.5914
 IR Inten    --    388.9263               141.3614                10.2574

                     70                     71                     72
                      A                      A                      A
 Frequencies --   1541.8350              1561.3157              1582.5941
 Red. masses --      4.4024                 6.0465                 4.5484
 Frc consts  --      6.1662                 8.6843                 6.7119
 IR Inten    --     75.2632               243.3124               316.3677

                     73                     74                     75
                      A                      A                      A
 Frequencies --   1601.6803              3005.3290              3014.3211
 Red. masses --      5.4925                 1.0347                 1.0332
 Frc consts  --      8.3018                 5.5063                 5.5313
 IR Inten    --     84.1398                 0.9696                23.7782

                     76                     77                     78
                      A                      A                      A
 Frequencies --   3065.2580              3079.7904              3080.7346
 Red. masses --      1.1007                 1.1018                 1.1024
 Frc consts  --      6.0934                 6.1575                 6.1642
 IR Inten    --      0.9550                72.5316                78.9676

                     79                     80                     81
                      A                      A                      A
 Frequencies --   3087.1345              3105.0289              3105.0926
 Red. masses --      1.1016                 1.0864                 1.0863
 Frc consts  --      6.1856                 6.1714                 6.1711
 IR Inten    --     20.5636                46.3710               433.4246

                     82                     83                     84
                      A                      A                      A
 Frequencies --   3131.3851              3132.0617              3144.1801
 Red. masses --      1.0867                 1.0867                 1.0935
 Frc consts  --      6.2784                 6.2811                 6.3692
 IR Inten    --    474.0900                80.5266               214.8535

                     85                     86                     87
                      A                      A                      A
 Frequencies --   3144.4118              3177.4645              3177.8482
 Red. masses --      1.0936                 1.0899                 1.0901
 Frc consts  --      6.3710                 6.4831                 6.4860
 IR Inten    --     62.5145                 8.9424                14.5380

 - Thermochemistry -
 -------------------
 Temperature   298.150 Kelvin.  Pressure   1.00000 Atm.
 Atom     1 has atomic number  6 and mass  12.00000

 Molecular mass:   222.10447 amu.
 Principal axes and moments of inertia in atomic units:
                           1         2         3
     Eigenvalues --  2104.345914315.252256025.56009
           X            0.96904   0.23614   0.07213
           Y           -0.21424   0.94935  -0.22984
           Z           -0.12275   0.20727   0.97055
 This molecule is an asymmetric top.
 Rotational symmetry number  1.
 Warning -- assumption of classical behavior for rotation
           may cause significant error
 Rotational temperatures (Kelvin)      0.04116     0.02007     0.01437
 Rotational constants (GHZ):           0.85763     0.41822     0.29951
 Zero-point vibrational energy     653502.8 (Joules/Mol)
                                  156.19091 (Kcal/Mol)
 Warning -- explicit consideration of  21 degrees of freedom as
           vibrations may cause significant error
 Vibrational temperatures:     44.74   145.84   148.76   233.90   262.49
          (Kelvin)            322.43   354.32   395.65   431.50   437.69
                              484.86   499.00   506.42   529.13   556.12
                              613.51   666.78   717.67   791.06   829.50
                              857.92   894.14   923.94   937.92   973.78
                             1065.42  1094.48  1109.74  1110.71  1123.02
                             1170.77  1224.56  1228.40  1311.74  1326.50
                             1336.44  1340.89  1343.44  1388.98  1389.49
                             1478.01  1492.16  1493.72  1569.59  1572.84
                             1584.24  1625.79  1629.39  1656.34  1670.84
                             1709.87  1734.56  1742.50  1829.39  1843.63
                             1904.58  1925.75  1942.08  1987.22  2023.86
                             2046.85  2074.27  2121.38  2123.74  2129.83
                             2132.33  2146.67  2157.65  2162.81  2218.36
                             2246.39  2277.00  2304.46  4324.00  4336.94
                             4410.22  4431.13  4432.49  4441.70  4467.44
                             4467.54  4505.36  4506.34  4523.77  4524.11
                             4571.66  4572.21

 Zero-point correction=                           0.248906 (Hartree/Particle)
 Thermal correction to Energy=                    0.262601
 Thermal correction to Enthalpy=                  0.263545
 Thermal correction to Gibbs Free Energy=         0.209129
 Sum of electronic and zero-point Energies=           -693.225986
 Sum of electronic and thermal Energies=              -693.212291
 Sum of electronic and thermal Enthalpies=            -693.211347
 Sum of electronic and thermal Free Energies=         -693.265764

                     E (Thermal)             CV                S
                      KCal/Mol        Cal/Mol-Kelvin    Cal/Mol-Kelvin
 Total                  164.785             56.854            114.529
 Electronic               0.000              0.000              0.000
 Translational            0.889              2.981             42.097
 Rotational               0.889              2.981             32.370
 Vibrational            163.007             50.892             40.062
 Vibration     1          0.594              1.983              5.758
 Vibration     2          0.604              1.948              3.428
 Vibration     3          0.605              1.946              3.389
 Vibration     4          0.623              1.888              2.520
 Vibration     5          0.630              1.864              2.303
 Vibration     6          0.649              1.804              1.926
 Vibration     7          0.661              1.769              1.757
 Vibration     8          0.677              1.720              1.565
 Vibration     9          0.692              1.674              1.417
 Vibration    10          0.695              1.666              1.394
 Vibration    11          0.718              1.602              1.226
 Vibration    12          0.725              1.582              1.181
 Vibration    13          0.729              1.571              1.157
 Vibration    14          0.740              1.539              1.089
 Vibration    15          0.755              1.499              1.014
 Vibration    16          0.788              1.413              0.870
 Vibration    17          0.821              1.331              0.756
 Vibration    18          0.854              1.253              0.661
 Vibration    19          0.905              1.140              0.545
 Vibration    20          0.933              1.082              0.492
 Vibration    21          0.954              1.040              0.456

                           ! Non-Optimized Parameters !
 Normal termination of Gaussian 16 at Sat Jan  6 05:22:13 2024.
