 Q-Chem 5.4, Q-Chem, Inc., Pleasanton, CA (2021)
 Q-Chem 5.4.0 for Intel X86 EM64T Linux

User input:
--------------------------------------------------------------
$molecule
0 1
C                 -1.6505370000      0.7864660000      1.6295100000
C                 -2.9003030000      1.0617410000      0.7802280000
C                 -2.8634130000      0.9932610000     -0.5856880000
C                 -1.6594400000      0.6621960000     -1.2942880000
C                 -0.4097990000      0.3864210000     -0.4449840000
C                 -0.4466880000      0.4549060000      0.9209320000
O                 -1.5434420000      0.5787070000     -2.5079730000
O                 -1.7667550000      0.8690730000      2.8432340000
Br                 1.1234540000      0.1074930000      1.9491680000
Br                -4.4337210000      1.3400110000     -1.6138960000
N                  0.6600740000      0.0868740000     -1.1851680000
N                 -3.9702650000      1.3609320000      1.5204270000
H                  0.5400020000      0.0734650000     -2.1897340000
H                  1.5502130000     -0.1170800000     -0.7591750000
H                 -3.8501610000      1.3744700000      2.5249880000
H                 -4.8604870000      1.5645520000      1.0944490000
$end
$rem
MAX_SCF_CYCLES=200
BASIS  =  6-311++G(d,p)
GUI  =  2
JOB_TYPE  =  SP
METHOD  =  B3LYP
SOLVENT_METHOD = COSMO
$end
$solvent
dielectric 37.219
opticaldielectric 1.43
$end

--------------------------------------------------------------

             Standard Nuclear Orientation (Angstroms)
    I     Atom           X                Y                Z
 ----------------------------------------------------------------
    1      C       0.7450533718    -1.2593350351    -0.0000693819
    2      C      -0.7892916180    -1.1903661255     0.0001247451
    3      C      -1.4491396941     0.0081234719     0.0004456328
    4      C      -0.7450529183     1.2593350889     0.0009753309
    5      C       0.7892920622     1.1903659607     0.0002653465
    6      C       1.4491400425    -0.0081239457    -0.0000504525
    7      O      -1.2575139623     2.3687667506    -0.0005395270
    8      O       1.2575149166    -2.3687670012     0.0005356163
    9      Br      3.3571439975    -0.0613391290    -0.0001784875
   10      Br     -3.3571444742     0.0613392458    -0.0001103702
   11      N       1.3590407925     2.3976833909     0.0002177394
   12      N      -1.3590406968    -2.3976831429    -0.0001949103
   13      H       0.7437063084     3.2008728022     0.0006385648
   14      H       2.3612012097     2.5029884660    -0.0000028823
   15      H      -0.7437060714    -3.2008731994    -0.0004827336
   16      H      -2.3612005454    -2.5029883787    -0.0003187732
 ----------------------------------------------------------------

    9   -5639.4289598416      6.59e-06  Convergence criterion met
 Total energy in the final basis set =    -5639.4289598416
    5   -5639.4497457278      5.49e-06  Convergence criterion met
 Total energy in the final basis set =    -5639.4497457278

                    Orbital Energies (a.u.)
 --------------------------------------------------------------

 Alpha MOs
 -- Occupied --
********-482.8450 -62.4978 -62.4978 -56.3183 -56.3183 -56.3144 -56.3144
-56.3143 -56.3143 -19.1364 -19.1364 -14.3646 -14.3646 -10.2944 -10.2944
-10.2720 -10.2720 -10.2358 -10.2358  -8.7066  -8.7066  -6.5382  -6.5382
 -6.5251  -6.5251  -6.5249  -6.5249  -2.6490  -2.6490  -2.6453  -2.6452
 -2.6452  -2.6452  -2.6348  -2.6348  -2.6347  -2.6347  -1.0777  -1.0750
 -0.9688  -0.9670  -0.8626  -0.8355  -0.7931  -0.7357  -0.7070  -0.6395
 -0.6256  -0.6018  -0.5427  -0.5364  -0.5254  -0.4880  -0.4732  -0.4640
 -0.4602  -0.4355  -0.4317  -0.4028  -0.4027  -0.3691  -0.3281  -0.3221
 -0.3122  -0.3119  -0.3025  -0.2913  -0.2623  -0.2318

          Ground-State Mulliken Net Atomic Charges

     Atom                 Charge (a.u.)
  ----------------------------------------
      1 C                    -0.521096
      2 C                    -0.148597
      3 C                     0.762195
      4 C                    -0.521751
      5 C                    -0.148692
      6 C                     0.762600
      7 O                    -0.333322
      8 O                    -0.333351
      9 Br                   -0.119905
     10 Br                   -0.119926
     11 N                    -0.312768
     12 N                    -0.312736
     13 H                     0.348793
     14 H                     0.324874
     15 H                     0.348800
     16 H                     0.324882
  ----------------------------------------
  Sum of atomic charges =     0.000000

                    Cartesian Multipole Moments
 -----------------------------------------------------------------
    Charge (ESU x 10^10)
                 0.0000
    Dipole Moment (Debye)
         X       0.0001      Y      -0.0013      Z       0.0013
       Tot       0.0018
    Quadrupole Moments (Debye-Ang)
        XX     -96.0289     XY      24.9804     YY     -86.8513
        XZ      -0.0014     YZ       0.0144     ZZ     -95.8986

 Total job time:  29.20s(wall), 209.86s(cpu)
        *  Thank you very much for using Q-Chem.  Have a nice day.  *
