 Q-Chem 5.4, Q-Chem, Inc., Pleasanton, CA (2021)
 Q-Chem 5.4.0 for Intel X86 EM64T Linux

User input:
--------------------------------------------------------------
$molecule
0 1
C                  0.0795060000     -0.9041360000      1.4456310000
C                 -0.0725650000     -0.8068880000     -0.0488930000
C                 -0.7275940000     -1.7754970000     -0.7139630000
C                 -1.3746920000     -2.9126420000     -0.0234140000
C                 -1.2933770000     -2.9512240000      1.4572450000
C                 -0.6218390000     -2.0128640000      2.1351900000
O                  0.7834030000     -0.1265330000      2.0632440000
O                 -1.9588190000     -3.7831530000     -0.6493620000
C                  0.6148250000      0.3059100000     -0.7491970000
H                 -1.7968000000     -3.7796980000      1.9429880000
H                 -0.8451130000     -1.7544530000     -1.7918680000
H                 -0.5308860000     -2.0202420000      3.2156030000
C                  0.4068140000      1.6669970000     -0.4748020000
C                  1.1210670000      2.6720500000     -1.1163590000
C                  2.0653520000      2.3336300000     -2.0788570000
C                  2.2884580000      0.9933180000     -2.3822280000
C                  1.5765300000     -0.0027770000     -1.7189530000
N                 -0.6419670000      2.0984860000      0.4765530000
O                 -0.5523570000      3.2208840000      0.9496870000
O                 -1.5546870000      1.3138540000      0.7111150000
H                  0.9181740000      3.7026450000     -0.8598510000
H                  2.6189160000      3.1132090000     -2.5877820000
H                  3.0241220000      0.7181170000     -3.1288810000
H                  1.7803770000     -1.0450410000     -1.9326180000
$end
$rem
MAX_SCF_CYCLES=200
BASIS  =  6-311++G(d,p)
GUI  =  2
JOB_TYPE  =  SP
METHOD  =  B3LYP
SOLVENT_METHOD = PCM
$end
$pcm
theory = CPCM
$end
$solvent
dielectric 37.219
opticaldielectric 1.43
$end

--------------------------------------------------------------

             Standard Nuclear Orientation (Angstroms)
    I     Atom           X                Y                Z
 ----------------------------------------------------------------
    1      C       0.0795060000    -0.9041360000     1.4456310000
    2      C      -0.0725650000    -0.8068880000    -0.0488930000
    3      C      -0.7275940000    -1.7754970000    -0.7139630000
    4      C      -1.3746920000    -2.9126420000    -0.0234140000
    5      C      -1.2933770000    -2.9512240000     1.4572450000
    6      C      -0.6218390000    -2.0128640000     2.1351900000
    7      O       0.7834030000    -0.1265330000     2.0632440000
    8      O      -1.9588190000    -3.7831530000    -0.6493620000
    9      C       0.6148250000     0.3059100000    -0.7491970000
   10      H      -1.7968000000    -3.7796980000     1.9429880000
   11      H      -0.8451130000    -1.7544530000    -1.7918680000
   12      H      -0.5308860000    -2.0202420000     3.2156030000
   13      C       0.4068140000     1.6669970000    -0.4748020000
   14      C       1.1210670000     2.6720500000    -1.1163590000
   15      C       2.0653520000     2.3336300000    -2.0788570000
   16      C       2.2884580000     0.9933180000    -2.3822280000
   17      C       1.5765300000    -0.0027770000    -1.7189530000
   18      N      -0.6419670000     2.0984860000     0.4765530000
   19      O      -0.5523570000     3.2208840000     0.9496870000
   20      O      -1.5546870000     1.3138540000     0.7111150000
   21      H       0.9181740000     3.7026450000    -0.8598510000
   22      H       2.6189160000     3.1132090000    -2.5877820000
   23      H       3.0241220000     0.7181170000    -3.1288810000
   24      H       1.7803770000    -1.0450410000    -1.9326180000
 ----------------------------------------------------------------

    9    -817.2502698054      8.15e-06  Convergence criterion met
 Total energy in the final basis set =     -817.2502698054

                    Orbital Energies (a.u.)
 --------------------------------------------------------------

 Alpha MOs
 -- Occupied --
-19.1823 -19.1818 -19.1504 -19.1461 -14.5751 -10.2966 -10.2906 -10.2551
-10.2343 -10.2307 -10.2149 -10.2140 -10.2122 -10.2092 -10.2045 -10.2033
-10.2012  -1.2603  -1.0880  -1.0824  -1.0758  -0.9112  -0.8704  -0.8219
 -0.8184  -0.7711  -0.7241  -0.7086  -0.6623  -0.6287  -0.6268  -0.6039
 -0.5737  -0.5622  -0.5436  -0.5314  -0.5250  -0.5101  -0.4911  -0.4895
 -0.4700  -0.4601  -0.4537  -0.4523  -0.4388  -0.4276  -0.4169  -0.4007
 -0.3962  -0.3822  -0.3463  -0.3429  -0.3309  -0.3165  -0.3080  -0.2992
 -0.2908  -0.2862  -0.2781

          Ground-State Mulliken Net Atomic Charges

     Atom                 Charge (a.u.)
  ----------------------------------------
      1 C                    -1.275694
      2 C                     1.777264
      3 C                    -0.380643
      4 C                    -0.326137
      5 C                     0.087928
      6 C                    -0.081657
      7 O                    -0.249070
      8 O                    -0.300691
      9 C                     0.913883
     10 H                     0.265827
     11 H                     0.275026
     12 H                     0.265651
     13 C                    -0.199696
     14 C                    -0.080405
     15 C                    -0.382225
     16 C                    -0.426556
     17 C                    -0.579943
     18 N                    -0.242542
     19 O                    -0.012334
     20 O                    -0.031255
     21 H                     0.276189
     22 H                     0.230932
     23 H                     0.233827
     24 H                     0.242322
  ----------------------------------------
  Sum of atomic charges =     0.000000

                    Cartesian Multipole Moments
 -----------------------------------------------------------------
    Charge (ESU x 10^10)
                -0.0000
    Dipole Moment (Debye)
         X       4.4347      Y      -0.7656      Z      -4.0274
       Tot       6.0393
    Quadrupole Moments (Debye-Ang)
        XX     -98.5297     XY       1.0157     YY    -104.4527
        XZ     -13.6055     YZ     -20.3539     ZZ     -89.2059

 Total job time:  54.53s(wall), 331.57s(cpu)
        *  Thank you very much for using Q-Chem.  Have a nice day.  *
