 Gaussian 16, Revision A.03,
 Gaussian 16:  ES64L-G16RevA.03 25-Dec-2016

 ----------------------------------------------------------------------
 #P UB3LYP/6-311++G(d,p) nosym opt freq SCRF=(PCM,Solvent=n,n-DiMethylF
 ormamide)
 ----------------------------------------------------------------------

 --------
 Oxidized
 --------
 Symbolic Z-matrix:
 Charge =  0 Multiplicity = 1

 SCF Done:  E(UB3LYP) =  -839.450837307     A.U. after   14 cycles
 SCF Done:  E(UB3LYP) =  -839.451071730     A.U. after   11 cycles
 SCF Done:  E(UB3LYP) =  -839.451096276     A.U. after   11 cycles
 SCF Done:  E(UB3LYP) =  -839.451060096     A.U. after   12 cycles
 SCF Done:  E(UB3LYP) =  -839.451093259     A.U. after   10 cycles
 SCF Done:  E(UB3LYP) =  -839.451097041     A.U. after   11 cycles
 SCF Done:  E(UB3LYP) =  -839.451099708     A.U. after   10 cycles
 SCF Done:  E(UB3LYP) =  -839.451099777     A.U. after    9 cycles
 SCF Done:  E(UB3LYP) =  -839.451099845     A.U. after    9 cycles
 SCF Done:  E(UB3LYP) =  -839.451099913     A.U. after    9 cycles
 SCF Done:  E(UB3LYP) =  -839.451099935     A.U. after    8 cycles
 SCF Done:  E(UB3LYP) =  -839.451099946     A.U. after    8 cycles
 Optimization completed.
    -- Stationary point found.
 Normal termination of Gaussian 16 at Sun Feb 11 16:11:54 2024.

 ----------------------------------------------------------------------
 #P Geom=AllCheck Guess=TCheck SCRF=Check GenChk UB3LYP/6-311++G(d,p) F
 req
 ----------------------------------------------------------------------

 Structure from the checkpoint file:  "331.chk"
 --------
 Oxidized
 --------
 Charge =  0 Multiplicity = 1

                          Input orientation:
 ---------------------------------------------------------------------
 Center     Atomic      Atomic             Coordinates (Angstroms)
 Number     Number       Type             X           Y           Z
 ---------------------------------------------------------------------
      1          6           0       -1.886026    3.511786   -0.948791
      2          6           0       -2.991139    2.910147   -0.362990
      3          6           0       -0.664271    2.829117   -1.019600
      4          6           0       -0.520080    1.522183   -0.503144
      5          6           0       -2.869207    1.614837    0.152140
      6          6           0       -1.658652    0.942173    0.080376
      7          6           0        0.472877    3.520467   -1.654849
      8          6           0        1.828388    2.765619   -1.745471
      9          6           0        1.904485    1.406830   -1.177695
     10          6           0        0.774067    0.808266   -0.578229
     11          6           0        3.132367    0.735822   -1.253435
     12          6           0        3.263486   -0.544769   -0.734731
     13          6           0        2.155471   -1.154566   -0.135949
     14          6           0        0.941778   -0.487684   -0.062779
     15          8           0        0.407097    4.646545   -2.110878
     16          8           0        2.767326    3.326369   -2.278700
     17          8           0        4.427072   -1.253795   -0.774730
     18          8           0       -4.207651    3.516518   -0.259253
     19          1           0       -1.947288    4.513172   -1.359228
     20          1           0       -3.731750    1.143354    0.607809
     21          1           0       -1.616520   -0.056539    0.492099
     22          1           0        3.970935    1.236854   -1.723170
     23          1           0        2.256769   -2.154027    0.269895
     24          1           0        0.116609   -1.001692    0.410086
     25          1           0        5.119295   -0.741224   -1.210492
     26          1           0       -4.177149    4.401840   -0.642729
 ---------------------------------------------------------------------

 SCF Done:  E(UB3LYP) =  -839.451099946     A.U. after    1 cycles

 Alpha  occ. eigenvalues --  -19.17252 -19.17249 -19.14379 -19.14378 -10.28613
 Alpha  occ. eigenvalues --  -10.28595 -10.25911 -10.25910 -10.21523 -10.21493
 Alpha  occ. eigenvalues --  -10.20913 -10.20912 -10.19971 -10.19969 -10.19936
 Alpha  occ. eigenvalues --  -10.19935 -10.19872 -10.19870  -1.08790  -1.08405
 Alpha  occ. eigenvalues --   -1.08397  -1.06000  -0.90304  -0.87494  -0.81154
 Alpha  occ. eigenvalues --   -0.79320  -0.78135  -0.74571  -0.71607  -0.66503
 Alpha  occ. eigenvalues --   -0.65351  -0.62381  -0.62244  -0.58567  -0.57137
 Alpha  occ. eigenvalues --   -0.54172  -0.52322  -0.51148  -0.49652  -0.48833
 Alpha  occ. eigenvalues --   -0.46743  -0.46526  -0.46169  -0.46138  -0.45139
 Alpha  occ. eigenvalues --   -0.43588  -0.43188  -0.43166  -0.42051  -0.40161
 Alpha  occ. eigenvalues --   -0.40050  -0.38646  -0.38483  -0.38225  -0.36389
 Alpha  occ. eigenvalues --   -0.34641  -0.31626  -0.28727  -0.28045  -0.27999
 Alpha  occ. eigenvalues --   -0.27041  -0.22834
 Alpha virt. eigenvalues --   -0.13172  -0.05454  -0.05205  -0.01134  -0.00867
 Alpha virt. eigenvalues --   -0.00413   0.00408   0.00994   0.01459   0.02064
 Alpha virt. eigenvalues --    0.03416   0.03640   0.04301   0.04465   0.05580

  Beta  occ. eigenvalues --  -19.17252 -19.17249 -19.14379 -19.14378 -10.28613
  Beta  occ. eigenvalues --  -10.28595 -10.25911 -10.25910 -10.21523 -10.21493
  Beta  occ. eigenvalues --  -10.20913 -10.20912 -10.19971 -10.19969 -10.19936
  Beta  occ. eigenvalues --  -10.19935 -10.19872 -10.19870  -1.08790  -1.08405
  Beta  occ. eigenvalues --   -1.08397  -1.06000  -0.90304  -0.87494  -0.81154
  Beta  occ. eigenvalues --   -0.79320  -0.78135  -0.74571  -0.71607  -0.66503
  Beta  occ. eigenvalues --   -0.65351  -0.62381  -0.62244  -0.58567  -0.57137
  Beta  occ. eigenvalues --   -0.54172  -0.52322  -0.51148  -0.49652  -0.48833
  Beta  occ. eigenvalues --   -0.46743  -0.46526  -0.46169  -0.46138  -0.45139
  Beta  occ. eigenvalues --   -0.43588  -0.43188  -0.43166  -0.42051  -0.40161
  Beta  occ. eigenvalues --   -0.40050  -0.38646  -0.38483  -0.38225  -0.36389
  Beta  occ. eigenvalues --   -0.34641  -0.31626  -0.28727  -0.28045  -0.27999
  Beta  occ. eigenvalues --   -0.27041  -0.22834
  Beta virt. eigenvalues --   -0.13172  -0.05454  -0.05205  -0.01134  -0.00867
  Beta virt. eigenvalues --   -0.00413   0.00408   0.00994   0.01459   0.02064
  Beta virt. eigenvalues --    0.03416   0.03640   0.04301   0.04465   0.05580

 Mulliken charges and spin densities:
               1          2
     1  C    0.232198  -0.000000
     2  C   -0.494788   0.000000
     3  C    0.784156   0.000000
     4  C    0.537012  -0.000000
     5  C   -0.431674   0.000000
     6  C   -0.336750   0.000000
     7  C   -0.585891  -0.000000
     8  C   -0.585780  -0.000000
     9  C    0.784007   0.000000
    10  C    0.537115  -0.000000
    11  C    0.232293   0.000000
    12  C   -0.495168  -0.000000
    13  C   -0.431641  -0.000000
    14  C   -0.336751  -0.000000
    15  O   -0.274692  -0.000000
    16  O   -0.274680   0.000000
    17  O   -0.267544   0.000000
    18  O   -0.267687   0.000000
    19  H    0.170534  -0.000000
    20  H    0.232784  -0.000000
    21  H    0.123654   0.000000
    22  H    0.170427  -0.000000
    23  H    0.232867  -0.000000
    24  H    0.123604   0.000000
    25  H    0.311166   0.000000
    26  H    0.311230  -0.000000
 Sum of Mulliken charges =  -0.00000   0.00000

 Dipole moment (field-independent basis, Debye):
    X=             -2.2914    Y=             -4.4206    Z=              2.5915  Tot=              5.6132
 Quadrupole moment (field-independent basis, Debye-Ang):
   XX=            -92.5500   YY=           -121.9199   ZZ=           -111.8302
   XY=            -18.1689   XZ=              4.0590   YZ=             12.7180

  Exact polarizability: 349.810 -52.203 293.916 -48.231 -62.545 154.250
 Approx polarizability: 396.493 -41.288 357.436 -60.620 -84.072 188.372

                      1                      2                      3
                      A                      A                      A
 Frequencies --     23.7562                51.9730                92.4186
 Red. masses --     10.0646                 5.8292                 4.1546
 Frc consts  --      0.0033                 0.0093                 0.0209
 IR Inten    --      0.0045                 2.4002                 0.0012

                      4                      5                      6
                      A                      A                      A
 Frequencies --    136.4546               165.1173               173.6380
 Red. masses --      6.7727                 7.5563                 6.7147
 Frc consts  --      0.0743                 0.1214                 0.1193
 IR Inten    --      7.7500                 0.0386                 1.2266

                      7                      8                      9
                      A                      A                      A
 Frequencies --    262.4705               269.8274               307.0684
 Red. masses --      8.5831                 5.1352                 7.5022
 Frc consts  --      0.3484                 0.2203                 0.4168
 IR Inten    --     23.8542                 1.3629                 0.4407

                     10                     11                     12
                      A                      A                      A
 Frequencies --    335.1223               337.8939               374.7806
 Red. masses --      1.0955                 1.1363                 8.3350
 Frc consts  --      0.0725                 0.0764                 0.6898
 IR Inten    --     54.3673               298.5822                 1.9276

                     13                     14                     15
                      A                      A                      A
 Frequencies --    385.1515               387.8646               392.0925
 Red. masses --      4.4388                15.1085                 4.7905
 Frc consts  --      0.3880                 1.3392                 0.4339
 IR Inten    --      0.0031                 9.7382                 1.4180

                     16                     17                     18
                      A                      A                      A
 Frequencies --    422.2826               426.5684               441.1510
 Red. masses --      5.6247                 6.1491                 4.4051
 Frc consts  --      0.5910                 0.6592                 0.5051
 IR Inten    --      1.3558                 0.4820                 0.1269

                     19                     20                     21
                      A                      A                      A
 Frequencies --    485.4083               494.1999               532.7844
 Red. masses --      3.7470                 5.8601                 8.3680
 Frc consts  --      0.5202                 0.8433                 1.3995
 IR Inten    --     51.5847                 1.5782                46.2113

                     22                     23                     24
                      A                      A                      A
 Frequencies --    573.5737               607.4159               655.7677
 Red. masses --      2.8656                 5.3098                 5.4120
 Frc consts  --      0.5554                 1.1543                 1.3712
 IR Inten    --      0.0041                 0.1369                13.7746

                     25                     26                     27
                      A                      A                      A
 Frequencies --    674.7373               684.9545               705.7206
 Red. masses --      7.9322                 6.0467                 4.3026
 Frc consts  --      2.1277                 1.6715                 1.2625
 IR Inten    --      0.2123                 1.4168                17.1752

                     28                     29                     30
                      A                      A                      A
 Frequencies --    708.9621               721.0571               832.7337
 Red. masses --      4.8910                 7.7786                 8.8683
 Frc consts  --      1.4484                 2.3828                 3.6233
 IR Inten    --      0.2469                 0.0341               194.7143

                     31                     32                     33
                      A                      A                      A
 Frequencies --    835.3594               843.7425               844.7568
 Red. masses --      3.4278                 1.4347                 1.8447
 Frc consts  --      1.4093                 0.6018                 0.7756
 IR Inten    --      0.0922                75.7775                 5.1150

                     34                     35                     36
                      A                      A                      A
 Frequencies --    894.4431               901.1303               901.7882
 Red. masses --      1.4906                 1.6360                 7.7480
 Frc consts  --      0.7026                 0.7827                 3.7123
 IR Inten    --     49.8045                 3.9733                 6.6515

                     37                     38                     39
                      A                      A                      A
 Frequencies --    969.5486               981.2108              1006.4474
 Red. masses --      1.3619                 1.3189                 4.5942
 Frc consts  --      0.7543                 0.7481                 2.7418
 IR Inten    --      0.0076                 1.1127                 2.3908

                     40                     41                     42
                      A                      A                      A
 Frequencies --   1028.6016              1058.7592              1128.5396
 Red. masses --      3.4265                 2.6871                 2.2593
 Frc consts  --      2.1360                 1.7747                 1.6954
 IR Inten    --      4.1686                 1.1700                 3.2726

                     43                     44                     45
                      A                      A                      A
 Frequencies --   1144.6823              1186.4310              1189.2634
 Red. masses --      1.5348                 1.3931                 1.4908
 Frc consts  --      1.1849                 1.1553                 1.2423
 IR Inten    --      1.8499               424.3501                28.9899

                     46                     47                     48
                      A                      A                      A
 Frequencies --   1193.4177              1234.8295              1243.9937
 Red. masses --      2.2934                 2.5668                 1.5475
 Frc consts  --      1.9245                 2.3060                 1.4110
 IR Inten    --    244.4140               163.4623                 1.2424

                     49                     50                     51
                      A                      A                      A
 Frequencies --   1273.8477              1300.3714              1325.9627
 Red. masses --      2.1386                 3.6548                 2.0515
 Frc consts  --      2.0446                 3.6412                 2.1251
 IR Inten    --    242.0909                61.9108               146.4952

                     52                     53                     54
                      A                      A                      A
 Frequencies --   1337.6084              1344.4312              1376.2558
 Red. masses --      4.5614                 6.0215                 2.5363
 Frc consts  --      4.8084                 6.4126                 2.8304
 IR Inten    --    118.2718               421.7667                29.6502

                     55                     56                     57
                      A                      A                      A
 Frequencies --   1456.6918              1467.0565              1515.0799
 Red. masses --      3.3138                 3.3051                 2.7645
 Frc consts  --      4.1430                 4.1911                 3.7389
 IR Inten    --    130.4138               561.5474               252.9284

                     58                     59                     60
                      A                      A                      A
 Frequencies --   1538.0309              1609.0210              1623.1870
 Red. masses --      3.3934                 5.0734                 6.7919
 Frc consts  --      4.7295                 7.7388                10.5433
 IR Inten    --      6.2578                 7.7286                11.9087

                     61                     62                     63
                      A                      A                      A
 Frequencies --   1631.0424              1635.0951              1710.1278
 Red. masses --      5.9995                 6.3326                12.8413
 Frc consts  --      9.4037                 9.9751                22.1267
 IR Inten    --    176.5655               247.8501               988.1943

                     64                     65                     66
                      A                      A                      A
 Frequencies --   1735.9972              3184.9099              3185.4177
 Red. masses --     12.7091                 1.0909                 1.0910
 Frc consts  --     22.5665                 6.5197                 6.5222
 IR Inten    --     22.0611                21.5523                10.6316

                     67                     68                     69
                      A                      A                      A
 Frequencies --   3188.9843              3191.2805              3206.0110
 Red. masses --      1.0893                 1.0905                 1.0947
 Frc consts  --      6.5266                 6.5434                 6.6296
 IR Inten    --     15.6545                 1.7887                 0.3168

                     70                     71                     72
                      A                      A                      A
 Frequencies --   3220.9273              3804.9241              3805.3865
 Red. masses --      1.0901                 1.0664                 1.0665
 Frc consts  --      6.6630                 9.0966                 9.0994
 IR Inten    --     15.7140               264.4897               121.9838

 - Thermochemistry -
 -------------------
 Temperature   298.150 Kelvin.  Pressure   1.00000 Atm.
 Atom     1 has atomic number  6 and mass  12.00000

 Molecular mass:   240.04226 amu.
 Principal axes and moments of inertia in atomic units:
                           1         2         3
     Eigenvalues --  2162.251246357.898378520.06791
           X            0.87406   0.40761   0.26433
           Y           -0.48299   0.78769   0.38245
           Z           -0.05232  -0.46195   0.88536
 This molecule is an asymmetric top.
 Rotational symmetry number  1.
 Warning -- assumption of classical behavior for rotation
           may cause significant error
 Rotational temperatures (Kelvin)      0.04006     0.01362     0.01017
 Rotational constants (GHZ):           0.83466     0.28386     0.21182
 Zero-point vibrational energy     489975.7 (Joules/Mol)
                                  117.10700 (Kcal/Mol)
 Warning -- explicit consideration of  23 degrees of freedom as
           vibrations may cause significant error
 Vibrational temperatures:     34.18    74.78   132.97   196.33   237.57
          (Kelvin)            249.83   377.64   388.22   441.80   482.17
                              486.15   539.23   554.15   558.05   564.13
                              607.57   613.74   634.72   698.39   711.04
                              766.56   825.24   873.94   943.50   970.80
                              985.50  1015.37  1020.04  1037.44  1198.12
                             1201.90  1213.96  1215.42  1286.90  1296.53
                             1297.47  1394.96  1411.74  1448.05  1479.93
                             1523.32  1623.72  1646.94  1707.01  1711.08
                             1717.06  1776.64  1789.83  1832.78  1870.94
                             1907.76  1924.52  1934.34  1980.13  2095.85
                             2110.77  2179.86  2212.88  2315.02  2335.40
                             2346.71  2352.54  2460.49  2497.71  4582.38
                             4583.11  4588.24  4591.54  4612.73  4634.20
                             5474.44  5475.10

 Zero-point correction=                           0.186622 (Hartree/Particle)
 Thermal correction to Energy=                    0.200575
 Thermal correction to Enthalpy=                  0.201519
 Thermal correction to Gibbs Free Energy=         0.145224
 Sum of electronic and zero-point Energies=           -839.264478
 Sum of electronic and thermal Energies=              -839.250525
 Sum of electronic and thermal Enthalpies=            -839.249581
 Sum of electronic and thermal Free Energies=         -839.305876

                     E (Thermal)             CV                S
                      KCal/Mol        Cal/Mol-Kelvin    Cal/Mol-Kelvin
 Total                  125.863             55.599            118.483
 Electronic               0.000              0.000              0.000
 Translational            0.889              2.981             42.328
 Rotational               0.889              2.981             33.126
 Vibrational            124.085             49.638             43.028
 Vibration     1          0.593              1.985              6.292
 Vibration     2          0.596              1.977              4.741
 Vibration     3          0.602              1.955              3.608
 Vibration     4          0.614              1.917              2.853
 Vibration     5          0.624              1.885              2.490
 Vibration     6          0.627              1.875              2.396
 Vibration     7          0.670              1.742              1.645
 Vibration     8          0.674              1.729              1.597
 Vibration     9          0.697              1.660              1.378
 Vibration    10          0.716              1.605              1.235
 Vibration    11          0.718              1.600              1.222
 Vibration    12          0.746              1.524              1.060
 Vibration    13          0.754              1.502              1.019
 Vibration    14          0.756              1.496              1.008
 Vibration    15          0.760              1.487              0.992
 Vibration    16          0.785              1.422              0.884
 Vibration    17          0.788              1.412              0.870
 Vibration    18          0.801              1.380              0.823
 Vibration    19          0.841              1.282              0.696
 Vibration    20          0.850              1.263              0.673
 Vibration    21          0.888              1.177              0.581
 Vibration    22          0.930              1.088              0.497
 Vibration    23          0.966              1.016              0.437

 Optimization completed.
    -- Stationary point found.
 Normal termination of Gaussian 16 at Sun Feb 11 17:04:19 2024.
