 Q-Chem 5.4, Q-Chem, Inc., Pleasanton, CA (2021)
 Q-Chem 5.4.0 for Intel X86 EM64T Linux

User input:
--------------------------------------------------------------
$molecule
0 1
C                  2.4483340000      3.3347450000      2.8821370000
C                  3.5690640000      3.2826170000      1.9959670000
C                  3.4597660000      2.6962610000      0.7599860000
C                  2.1439640000      2.0772750000      0.2797760000
C                  1.0232130000      2.1294650000      1.1659200000
C                  1.1325180000      2.7157970000      2.4019120000
O                  2.4655250000      3.8421310000      4.0047220000
O                  2.1267780000      1.5698880000     -0.8428120000
N                  0.1543530000      2.8208990000      3.3085550000
C                 -1.2030340000      2.3290530000      3.1429380000
C                 -2.0433870000      2.6213050000      4.3804960000
N                  4.4379250000      2.5911670000     -0.1466620000
C                  5.7953280000      3.0829520000      0.0189790000
C                  6.6357760000      2.7903880000     -1.2184430000
H                  4.4919180000      3.7239710000      2.3496490000
H                  0.1003400000      1.6881620000      0.8122210000
H                  0.4330600000      3.2895360000      4.1658490000
H                 -1.1744090000      1.2496730000      2.9489910000
H                 -1.6517730000      2.7988590000      2.2589550000
H                 -1.6237510000      2.1363800000      5.2659980000
H                 -3.0593260000      2.2463260000      4.2414750000
H                 -2.1043590000      3.6961230000      4.5712480000
H                  4.1592320000      2.1224780000     -1.0039320000
H                  6.2439400000      2.6132950000      0.9031040000
H                  5.7667660000      4.1623750000      0.2126960000
H                  6.6966710000      1.7155270000     -1.4089780000
H                  7.6517340000      3.1653080000     -1.0793980000
H                  6.2162650000      3.2751740000     -2.1040790000
$end
$rem
MAX_SCF_CYCLES=200
BASIS  =  6-311++G(d,p)
GUI  =  2
JOB_TYPE  =  SP
METHOD  =  B3LYP
SOLVENT_METHOD = PCM
$end
$pcm
theory = CPCM
$end
$solvent
dielectric 37.219
opticaldielectric 1.43
$end

--------------------------------------------------------------

             Standard Nuclear Orientation (Angstroms)
    I     Atom           X                Y                Z
 ----------------------------------------------------------------
    1      C       2.4483340000     3.3347450000     2.8821370000
    2      C       3.5690640000     3.2826170000     1.9959670000
    3      C       3.4597660000     2.6962610000     0.7599860000
    4      C       2.1439640000     2.0772750000     0.2797760000
    5      C       1.0232130000     2.1294650000     1.1659200000
    6      C       1.1325180000     2.7157970000     2.4019120000
    7      O       2.4655250000     3.8421310000     4.0047220000
    8      O       2.1267780000     1.5698880000    -0.8428120000
    9      N       0.1543530000     2.8208990000     3.3085550000
   10      C      -1.2030340000     2.3290530000     3.1429380000
   11      C      -2.0433870000     2.6213050000     4.3804960000
   12      N       4.4379250000     2.5911670000    -0.1466620000
   13      C       5.7953280000     3.0829520000     0.0189790000
   14      C       6.6357760000     2.7903880000    -1.2184430000
   15      H       4.4919180000     3.7239710000     2.3496490000
   16      H       0.1003400000     1.6881620000     0.8122210000
   17      H       0.4330600000     3.2895360000     4.1658490000
   18      H      -1.1744090000     1.2496730000     2.9489910000
   19      H      -1.6517730000     2.7988590000     2.2589550000
   20      H      -1.6237510000     2.1363800000     5.2659980000
   21      H      -3.0593260000     2.2463260000     4.2414750000
   22      H      -2.1043590000     3.6961230000     4.5712480000
   23      H       4.1592320000     2.1224780000    -1.0039320000
   24      H       6.2439400000     2.6132950000     0.9031040000
   25      H       5.7667660000     4.1623750000     0.2126960000
   26      H       6.6966710000     1.7155270000    -1.4089780000
   27      H       7.6517340000     3.1653080000    -1.0793980000
   28      H       6.2162650000     3.2751740000    -2.1040790000
 ----------------------------------------------------------------

    9    -649.6607668098      3.43e-06  Convergence criterion met
 Total energy in the final basis set =     -649.6607668098

                    Orbital Energies (a.u.)
 --------------------------------------------------------------

 Alpha MOs
 -- Occupied --
-19.1153 -19.1153 -14.3562 -14.3562 -10.2683 -10.2683 -10.2446 -10.2445
-10.2133 -10.2133 -10.1696 -10.1696 -10.1662 -10.1662  -1.0529  -1.0502
 -0.9642  -0.9637  -0.8327  -0.7863  -0.7626  -0.7418  -0.6827  -0.6588
 -0.6375  -0.6108  -0.5912  -0.5450  -0.5213  -0.5210  -0.4866  -0.4805
 -0.4768  -0.4615  -0.4444  -0.4397  -0.4387  -0.4381  -0.4085  -0.3976
 -0.3896  -0.3885  -0.3834  -0.3764  -0.3755  -0.3687  -0.3340  -0.3249
 -0.2820  -0.2716  -0.2475  -0.2210

          Ground-State Mulliken Net Atomic Charges

     Atom                 Charge (a.u.)
  ----------------------------------------
      1 C                    -0.037483
      2 C                    -0.089567
      3 C                    -0.083310
      4 C                    -0.036864
      5 C                    -0.088515
      6 C                    -0.083883
      7 O                    -0.407399
      8 O                    -0.407391
      9 N                    -0.091224
     10 C                    -0.039989
     11 C                    -0.757576
     12 N                    -0.091247
     13 C                    -0.040075
     14 C                    -0.757373
     15 H                     0.238445
     16 H                     0.238421
     17 H                     0.385527
     18 H                     0.192421
     19 H                     0.192878
     20 H                     0.163304
     21 H                     0.170031
     22 H                     0.163379
     23 H                     0.385472
     24 H                     0.192850
     25 H                     0.192438
     26 H                     0.163382
     27 H                     0.170035
     28 H                     0.163307
  ----------------------------------------
  Sum of atomic charges =    -0.000004

                    Cartesian Multipole Moments
 -----------------------------------------------------------------
    Charge (ESU x 10^10)
                -0.0000
    Dipole Moment (Debye)
         X      -0.0000      Y      -0.0002      Z       0.0000
       Tot       0.0002
    Quadrupole Moments (Debye-Ang)
        XX     -52.1709     XY       1.2965     YY     -89.7444
        XZ     -20.1709     YZ      -9.8960     ZZ     -93.9641

 Total job time:  39.34s(wall), 262.45s(cpu)
        *  Thank you very much for using Q-Chem.  Have a nice day.  *
