 Gaussian 16, Revision A.03,
 Gaussian 16:  ES64L-G16RevA.03 25-Dec-2016

 ----------------------------------------------------------------------
 #P UB3LYP/6-311++G(d,p) nosym opt freq SCRF=(PCM,Solvent=n,n-DiMethylF
 ormamide)
 ----------------------------------------------------------------------

 --------
 Oxidized
 --------
 Symbolic Z-matrix:
 Charge =  0 Multiplicity = 1

 SCF Done:  E(UB3LYP) =  -803.513405720     A.U. after   14 cycles
 SCF Done:  E(UB3LYP) =  -803.513567797     A.U. after   11 cycles
 SCF Done:  E(UB3LYP) =  -803.513611013     A.U. after   11 cycles
 SCF Done:  E(UB3LYP) =  -803.513613967     A.U. after   10 cycles
 SCF Done:  E(UB3LYP) =  -803.513613937     A.U. after    9 cycles
 SCF Done:  E(UB3LYP) =  -803.513618627     A.U. after    9 cycles
 Optimization completed.
    -- Stationary point found.
 Normal termination of Gaussian 16 at Sat Feb 10 16:25:24 2024.

 ----------------------------------------------------------------------
 #P Geom=AllCheck Guess=TCheck SCRF=Check GenChk UB3LYP/6-311++G(d,p) F
 req
 ----------------------------------------------------------------------

 Structure from the checkpoint file:  "137.chk"
 --------
 Oxidized
 --------
 Charge =  0 Multiplicity = 1

                          Input orientation:
 ---------------------------------------------------------------------
 Center     Atomic      Atomic             Coordinates (Angstroms)
 Number     Number       Type             X           Y           Z
 ---------------------------------------------------------------------
      1          6           0        3.738299    2.231710   -0.458382
      2          8           0        2.373530    1.800232   -0.376262
      3          6           0        2.098055    0.489227   -0.240955
      4          6           0        3.113328   -0.478439   -0.178460
      5          6           0        2.803650   -1.823994   -0.038446
      6          6           0        1.479543   -2.236849    0.042703
      7          6           0        0.455237   -1.294357   -0.017044
      8          6           0       -0.945211   -1.811770    0.076925
      9          8           0       -1.164186   -3.011030    0.200443
     10          6           0       -2.055093   -0.832433    0.018168
     11          6           0       -3.378603   -1.279794    0.105317
     12          6           0       -4.428157   -0.371198    0.051499
     13          6           0       -4.160974    0.993710   -0.090462
     14          6           0       -2.848209    1.443675   -0.177581
     15          6           0       -1.784211    0.537097   -0.123970
     16          6           0       -0.384038    1.065693   -0.220577
     17          8           0       -0.214820    2.272126   -0.345279
     18          6           0        0.734281    0.087562   -0.159931
     19          1           0        4.235772    1.803121   -1.331918
     20          1           0        4.288523    1.975014    0.450266
     21          1           0        3.689434    3.313300   -0.561292
     22          1           0        4.149795   -0.180383   -0.239629
     23          1           0        3.605393   -2.551684    0.007127
     24          1           0        1.224352   -3.281889    0.152176
     25          1           0       -3.565639   -2.340392    0.214855
     26          1           0       -5.451746   -0.720366    0.119444
     27          1           0       -4.978315    1.704185   -0.132662
     28          1           0       -2.629992    2.497923   -0.287588
 ---------------------------------------------------------------------

 SCF Done:  E(UB3LYP) =  -803.513618627     A.U. after    1 cycles

 Alpha  occ. eigenvalues --  -19.17325 -19.13021 -19.12363 -10.28284 -10.28145
 Alpha  occ. eigenvalues --  -10.26864 -10.22984 -10.21186 -10.21137 -10.20787
 Alpha  occ. eigenvalues --  -10.20671 -10.20118 -10.19835 -10.19781 -10.19721
 Alpha  occ. eigenvalues --  -10.19677 -10.19586 -10.19134  -1.09205  -1.06344
 Alpha  occ. eigenvalues --   -1.05686  -0.89284  -0.88068  -0.81312  -0.78434
 Alpha  occ. eigenvalues --   -0.77715  -0.77226  -0.71987  -0.69039  -0.66371
 Alpha  occ. eigenvalues --   -0.64697  -0.61067  -0.58517  -0.56455  -0.56207
 Alpha  occ. eigenvalues --   -0.51970  -0.50798  -0.49781  -0.48906  -0.48579
 Alpha  occ. eigenvalues --   -0.48048  -0.45583  -0.45479  -0.45216  -0.45062
 Alpha  occ. eigenvalues --   -0.44324  -0.42615  -0.41697  -0.40462  -0.39875
 Alpha  occ. eigenvalues --   -0.39193  -0.37812  -0.37299  -0.36772  -0.35433
 Alpha  occ. eigenvalues --   -0.34463  -0.29021  -0.28480  -0.27797  -0.27766
 Alpha  occ. eigenvalues --   -0.26744  -0.24979
 Alpha virt. eigenvalues --   -0.11778  -0.07000  -0.03826  -0.02093  -0.00737
 Alpha virt. eigenvalues --   -0.00028   0.00722   0.01518   0.01814   0.03050
 Alpha virt. eigenvalues --    0.03054   0.03482   0.03541   0.03956   0.03963

  Beta  occ. eigenvalues --  -19.17325 -19.13021 -19.12363 -10.28284 -10.28145
  Beta  occ. eigenvalues --  -10.26864 -10.22984 -10.21186 -10.21137 -10.20787
  Beta  occ. eigenvalues --  -10.20671 -10.20118 -10.19835 -10.19781 -10.19721
  Beta  occ. eigenvalues --  -10.19677 -10.19586 -10.19134  -1.09205  -1.06344
  Beta  occ. eigenvalues --   -1.05686  -0.89284  -0.88068  -0.81312  -0.78434
  Beta  occ. eigenvalues --   -0.77715  -0.77226  -0.71987  -0.69039  -0.66371
  Beta  occ. eigenvalues --   -0.64697  -0.61067  -0.58517  -0.56455  -0.56207
  Beta  occ. eigenvalues --   -0.51970  -0.50798  -0.49781  -0.48906  -0.48579
  Beta  occ. eigenvalues --   -0.48048  -0.45583  -0.45479  -0.45216  -0.45062
  Beta  occ. eigenvalues --   -0.44324  -0.42615  -0.41697  -0.40462  -0.39875
  Beta  occ. eigenvalues --   -0.39193  -0.37812  -0.37299  -0.36772  -0.35433
  Beta  occ. eigenvalues --   -0.34463  -0.29021  -0.28480  -0.27797  -0.27766
  Beta  occ. eigenvalues --   -0.26744  -0.24979
  Beta virt. eigenvalues --   -0.11778  -0.07000  -0.03826  -0.02093  -0.00737
  Beta virt. eigenvalues --   -0.00028   0.00722   0.01518   0.01814   0.03050
  Beta virt. eigenvalues --    0.03054   0.03482   0.03541   0.03956   0.03963

 Mulliken charges and spin densities:
               1          2
     1  C   -0.287182  -0.000000
     2  O   -0.131968  -0.000000
     3  C   -0.063241   0.000000
     4  C    0.020047   0.000000
     5  C   -0.372506  -0.000000
     6  C    0.059034  -0.000000
     7  C    0.525653  -0.000000
     8  C   -0.550067   0.000000
     9  O   -0.276349   0.000000
    10  C   -0.112054  -0.000000
    11  C    0.165319   0.000000
    12  C   -0.470736  -0.000000
    13  C   -0.427561  -0.000000
    14  C    0.169827   0.000000
    15  C    0.331479   0.000000
    16  C   -0.435026   0.000000
    17  O   -0.293128   0.000000
    18  C    0.217503   0.000000
    19  H    0.169929   0.000000
    20  H    0.169953   0.000000
    21  H    0.203859  -0.000000
    22  H    0.212965  -0.000000
    23  H    0.220978   0.000000
    24  H    0.174708   0.000000
    25  H    0.185929  -0.000000
    26  H    0.204718  -0.000000
    27  H    0.207751   0.000000
    28  H    0.180164  -0.000000
 Sum of Mulliken charges =  -0.00000   0.00000

 Dipole moment (field-independent basis, Debye):
    X=              2.8812    Y=              0.4898    Z=             -0.1231  Tot=              2.9251
 Quadrupole moment (field-independent basis, Debye-Ang):
   XX=            -61.6964   YY=           -114.7838   ZZ=           -106.0700
   XY=             -2.6772   XZ=             -1.5070   YZ=              0.8925

  Exact polarizability: 369.755  -4.534 308.585  -7.324 -17.662 127.185
 Approx polarizability: 393.214  -1.963 393.517  -7.630 -23.916 149.801

                      1                      2                      3
                      A                      A                      A
 Frequencies --     14.3353                48.1876               103.4723
 Red. masses --      7.2146                 5.2150                 3.8890
 Frc consts  --      0.0009                 0.0071                 0.0245
 IR Inten    --     14.0039                 1.1108                 2.7051

                      4                      5                      6
                      A                      A                      A
 Frequencies --    106.4351               153.0761               170.2944
 Red. masses --      4.6229                 5.1508                 4.3789
 Frc consts  --      0.0309                 0.0711                 0.0748
 IR Inten    --      1.1020                 1.9057                 5.4532

                      7                      8                      9
                      A                      A                      A
 Frequencies --    191.0136               247.5423               273.3380
 Red. masses --      3.0062                 1.6869                 4.9710
 Frc consts  --      0.0646                 0.0609                 0.2188
 IR Inten    --      0.4602                 0.0173                 0.0818

                     10                     11                     12
                      A                      A                      A
 Frequencies --    282.9303               321.4825               342.4661
 Red. masses --      2.5376                 4.2299                 7.4849
 Frc consts  --      0.1197                 0.2576                 0.5172
 IR Inten    --      1.0073                 2.3230                 0.5044

                     13                     14                     15
                      A                      A                      A
 Frequencies --    373.6981               403.4476               422.8182
 Red. masses --      8.4490                12.3819                 3.2970
 Frc consts  --      0.6952                 1.1874                 0.3473
 IR Inten    --      5.7718                46.1102                 0.3107

                     16                     17                     18
                      A                      A                      A
 Frequencies --    433.4435               473.4336               479.3430
 Red. masses --      5.0754                10.7393                 7.3413
 Frc consts  --      0.5618                 1.4182                 0.9938
 IR Inten    --      0.0150                 0.4739                 0.2001

                     19                     20                     21
                      A                      A                      A
 Frequencies --    492.1417               560.8502               592.5853
 Red. masses --      3.8898                 4.6314                 6.4173
 Frc consts  --      0.5551                 0.8583                 1.3277
 IR Inten    --      0.7104                 5.6692                12.0522

                     22                     23                     24
                      A                      A                      A
 Frequencies --    631.0014               669.4007               672.5162
 Red. masses --      5.7517                 6.3789                 4.2688
 Frc consts  --      1.3493                 1.6841                 1.1375
 IR Inten    --      0.0003                19.1248                 8.8104

                     25                     26                     27
                      A                      A                      A
 Frequencies --    700.6189               721.7153               746.6999
 Red. masses --      6.9311                 2.5575                 2.1696
 Frc consts  --      2.0045                 0.7849                 0.7127
 IR Inten    --      1.7246                92.5558                53.3168

                     28                     29                     30
                      A                      A                      A
 Frequencies --    786.1036               787.8700               818.7577
 Red. masses --      6.3856                 1.9081                 2.4573
 Frc consts  --      2.3249                 0.6979                 0.9706
 IR Inten    --      8.9137                18.0299                17.5198

                     31                     32                     33
                      A                      A                      A
 Frequencies --    834.8606               859.8741               913.4363
 Red. masses --      3.1624                 6.9259                 1.4097
 Frc consts  --      1.2987                 3.0172                 0.6930
 IR Inten    --     37.9727                43.6654                 0.0512

                     34                     35                     36
                      A                      A                      A
 Frequencies --    922.9838               923.2712               974.2470
 Red. masses --      5.3166                 1.5206                 7.0956
 Frc consts  --      2.6685                 0.7637                 3.9681
 IR Inten    --     27.4852                 1.9655               269.4671

                     37                     38                     39
                      A                      A                      A
 Frequencies --   1002.1677              1006.6495              1023.2074
 Red. masses --      1.3800                 1.3289                 1.3281
 Frc consts  --      0.8166                 0.7934                 0.8192
 IR Inten    --      1.5711                 1.0993                 0.0228

                     40                     41                     42
                      A                      A                      A
 Frequencies --   1053.6561              1081.9265              1108.6226
 Red. masses --      2.2666                 4.0073                 2.4995
 Frc consts  --      1.4826                 2.7637                 1.8100
 IR Inten    --      4.3326                81.4667                 3.2607

                     43                     44                     45
                      A                      A                      A
 Frequencies --   1113.2934              1163.0214              1170.4184
 Red. masses --      2.3184                 1.2710                 1.8400
 Frc consts  --      1.6930                 1.0129                 1.4851
 IR Inten    --      4.0985                 1.1687                 8.5041

                     46                     47                     48
                      A                      A                      A
 Frequencies --   1180.3882              1189.8981              1205.7101
 Red. masses --      1.2824                 1.2899                 1.6744
 Frc consts  --      1.0527                 1.0760                 1.4341
 IR Inten    --     35.8143                 3.4098                81.0384

                     49                     50                     51
                      A                      A                      A
 Frequencies --   1211.3825              1253.7199              1274.1051
 Red. masses --      1.4976                 2.6742                 2.5946
 Frc consts  --      1.2948                 2.4766                 2.4816
 IR Inten    --      6.0167               442.3535               859.4225

                     52                     53                     54
                      A                      A                      A
 Frequencies --   1294.6448              1325.5227              1352.8678
 Red. masses --      3.4436                 3.3466                 8.4148
 Frc consts  --      3.4006                 3.4644                 9.0741
 IR Inten    --    274.4913               307.9894                62.1603

                     55                     56                     57
                      A                      A                      A
 Frequencies --   1360.9438              1456.1392              1467.8184
 Red. masses --      8.1791                 2.5824                 1.6806
 Frc consts  --      8.9256                 3.2261                 2.1333
 IR Inten    --      0.4278                96.7288                29.9709

                     58                     59                     60
                      A                      A                      A
 Frequencies --   1479.2926              1488.3663              1494.0558
 Red. masses --      2.2211                 1.0443                 1.6815
 Frc consts  --      2.8638                 1.3630                 2.2115
 IR Inten    --     15.0421                14.9418                44.6944

                     61                     62                     63
                      A                      A                      A
 Frequencies --   1496.2975              1506.5297              1597.8184
 Red. masses --      1.1413                 2.5977                 5.9483
 Frc consts  --      1.5055                 3.4737                 8.9474
 IR Inten    --     19.3254                 2.7200               118.7332

                     64                     65                     66
                      A                      A                      A
 Frequencies --   1611.4418              1616.0074              1623.7337
 Red. masses --      5.9017                 7.1116                 5.8101
 Frc consts  --      9.0294                10.9422                 9.0253
 IR Inten    --    347.5638               130.2884                71.5854

                     67                     68                     69
                      A                      A                      A
 Frequencies --   1687.6994              1696.1962              3027.4405
 Red. masses --     11.8282                11.7185                 1.0326
 Frc consts  --     19.8499                19.8644                 5.5761
 IR Inten    --    102.6498               709.3547                77.2771

                     70                     71                     72
                      A                      A                      A
 Frequencies --   3097.7315              3149.9335              3177.4863
 Red. masses --      1.1077                 1.1020                 1.0875
 Frc consts  --      6.2625                 6.4420                 6.4692
 IR Inten    --     36.5902                21.8705                 3.7764

                     73                     74                     75
                      A                      A                      A
 Frequencies --   3184.6438              3190.2302              3204.2235
 Red. masses --      1.0897                 1.0918                 1.0928
 Frc consts  --      6.5116                 6.5471                 6.6105
 IR Inten    --     11.7030                13.1308                 4.7171

                     76                     77                     78
                      A                      A                      A
 Frequencies --   3207.4180              3214.5572              3225.0539
 Red. masses --      1.0945                 1.0923                 1.0921
 Frc consts  --      6.6339                 6.6499                 6.6924
 IR Inten    --     18.7257                 4.4218                 5.0433

 - Thermochemistry -
 -------------------
 Temperature   298.150 Kelvin.  Pressure   1.00000 Atm.
 Atom     1 has atomic number  6 and mass  12.00000

 Molecular mass:   238.06299 amu.
 Principal axes and moments of inertia in atomic units:
                           1         2         3
     Eigenvalues --  2252.216585440.969247681.63233
           X            0.99119  -0.12870   0.03143
           Y            0.12515   0.98744   0.09649
           Z           -0.04345  -0.09170   0.99484
 This molecule is an asymmetric top.
 Rotational symmetry number  1.
 Warning -- assumption of classical behavior for rotation
           may cause significant error
 Rotational temperatures (Kelvin)      0.03846     0.01592     0.01128
 Rotational constants (GHZ):           0.80132     0.33169     0.23494
 Zero-point vibrational energy     554600.4 (Joules/Mol)
                                  132.55269 (Kcal/Mol)
 Warning -- explicit consideration of  21 degrees of freedom as
           vibrations may cause significant error
 Vibrational temperatures:     20.63    69.33   148.87   153.14   220.24
          (Kelvin)            245.02   274.83   356.16   393.27   407.07
                              462.54   492.73   537.67   580.47   608.34
                              623.63   681.17   689.67   708.08   806.94
                              852.60   907.87   963.12   967.60  1008.03
                             1038.39  1074.33  1131.03  1133.57  1178.01
                             1201.18  1237.17  1314.23  1327.97  1328.38
                             1401.72  1441.90  1448.34  1472.17  1515.98
                             1556.65  1595.06  1601.78  1673.33  1683.97
                             1698.32  1712.00  1734.75  1742.91  1803.82
                             1833.15  1862.71  1907.13  1946.48  1958.09
                             2095.06  2111.86  2128.37  2141.43  2149.61
                             2152.84  2167.56  2298.90  2318.51  2325.07
                             2336.19  2428.22  2440.45  4355.81  4456.94
                             4532.05  4571.69  4581.99  4590.03  4610.16
                             4614.76  4625.03  4640.13

 Zero-point correction=                           0.211236 (Hartree/Particle)
 Thermal correction to Energy=                    0.225212
 Thermal correction to Enthalpy=                  0.226156
 Thermal correction to Gibbs Free Energy=         0.169110
 Sum of electronic and zero-point Energies=           -803.302382
 Sum of electronic and thermal Energies=              -803.288407
 Sum of electronic and thermal Enthalpies=            -803.287463
 Sum of electronic and thermal Free Energies=         -803.344509

                     E (Thermal)             CV                S
                      KCal/Mol        Cal/Mol-Kelvin    Cal/Mol-Kelvin
 Total                  141.323             54.987            120.063
 Electronic               0.000              0.000              0.000
 Translational            0.889              2.981             42.303
 Rotational               0.889              2.981             32.909
 Vibrational            139.545             49.026             44.851
 Vibration     1          0.593              1.986              7.296
 Vibration     2          0.595              1.978              4.890
 Vibration     3          0.605              1.946              3.388
 Vibration     4          0.605              1.944              3.333
 Vibration     5          0.619              1.899              2.634
 Vibration     6          0.625              1.879              2.432
 Vibration     7          0.634              1.852              2.218
 Vibration     8          0.661              1.767              1.748
 Vibration     9          0.676              1.723              1.575
 Vibration    10          0.682              1.705              1.516
 Vibration    11          0.707              1.632              1.303
 Vibration    12          0.722              1.591              1.201
 Vibration    13          0.745              1.526              1.065
 Vibration    14          0.769              1.463              0.950
 Vibration    15          0.785              1.421              0.882
 Vibration    16          0.794              1.397              0.847
 Vibration    17          0.830              1.309              0.728
 Vibration    18          0.836              1.296              0.712
 Vibration    19          0.848              1.267              0.678
 Vibration    20          0.917              1.116              0.522
 Vibration    21          0.950              1.048              0.463

                           ! Non-Optimized Parameters !
 Normal termination of Gaussian 16 at Sat Feb 10 17:31:38 2024.
