 Q-Chem 5.4, Q-Chem, Inc., Pleasanton, CA (2021)
 Q-Chem 5.4.0 for Intel X86 EM64T Linux

User input:
--------------------------------------------------------------
$molecule
-1 2
C                 -1.2379970000      2.7334090000     -0.5181290000
C                 -2.5151820000      2.2073740000     -0.4572760000
C                 -2.7162120000      0.8929190000      0.0114110000
C                 -0.1166310000      1.9757660000     -0.1168420000
C                 -0.3221120000      0.6504120000      0.3562260000
C                 -1.6300260000      0.1335400000      0.4097690000
C                  1.2195640000      2.5789500000     -0.2015630000
C                  2.3107180000      1.7220200000      0.2353380000
C                  2.1099930000      0.4334290000      0.6917260000
C                  0.8147610000     -0.1810640000      0.7862250000
O                  1.4028510000      3.7514500000     -0.6195010000
O                  0.6585650000     -1.3582720000      1.2073510000
H                 -1.0570530000      3.7410340000     -0.8748540000
H                 -1.7493620000     -0.8804420000      0.7752090000
O                  3.5399880000      2.3312850000      0.1606080000
H                 -3.3651680000      2.8069910000     -0.7709440000
H                 -3.7196180000      0.4797370000      0.0592070000
H                  2.9354080000     -0.1933450000      1.0063200000
C                  4.7289380000      1.6097160000      0.4765090000
C                  5.7815690000      2.6666050000      0.7977900000
C                  5.1503590000      0.7093190000     -0.6877900000
H                  4.5598200000      0.9983400000      1.3716560000
H                  6.7341510000      2.1944430000      1.0582190000
H                  5.4541460000      3.2858520000      1.6357710000
H                  5.9367060000      3.3185160000     -0.0663720000
H                  6.0548150000      0.1474020000     -0.4313240000
H                  5.3569340000      1.3192900000     -1.5722390000
H                  4.3622820000     -0.0023630000     -0.9381520000
$end
$rem
MAX_SCF_CYCLES=200
BASIS  =  6-311++G(d,p)
GUI  =  2
JOB_TYPE  =  SP
METHOD  =  B3LYP
SOLVENT_METHOD = COSMO
$end
$solvent
dielectric 37.219
opticaldielectric 1.43
$end

--------------------------------------------------------------

             Standard Nuclear Orientation (Angstroms)
    I     Atom           X                Y                Z
 ----------------------------------------------------------------
    1      C       2.5098832675    -1.6432967299    -0.1114060873
    2      C       3.8280187509    -1.2264969881    -0.1317593590
    3      C       4.1357421029     0.1473785437    -0.0566269845
    4      C       1.4518165959    -0.7138462898    -0.0158410529
    5      C       1.7648456623     0.6713454311     0.0605506942
    6      C       3.1129404832     1.0748068637     0.0377083027
    7      C       0.0685224437    -1.2064375919     0.0007950960
    8      C      -0.9513542201    -0.1743479009     0.1031231024
    9      C      -0.6459523685     1.1712915851     0.1740553250
   10      C       0.6973188979     1.6808113476     0.1610338643
   11      O      -0.2099203213    -2.4315850798    -0.0663302024
   12      O       0.9491404693     2.9135455304     0.2282298776
   13      H       2.2471995923    -2.6935728969    -0.1681410606
   14      H       3.3146293543     2.1386304151     0.0972735748
   15      O      -2.2291474020    -0.6782968670     0.1373746707
   16      H       4.6279644870    -1.9579341849    -0.2058593427
   17      H       5.1713122349     0.4747418107    -0.0726024815
   18      H      -1.4189363985     1.9268899394     0.2425518247
   19      C      -3.3550427004     0.1969128236     0.1579936045
   20      C      -4.5119527146    -0.6298275640     0.7114621330
   21      C      -3.6519302448     0.7425326565    -1.2413131390
   22      H      -3.1588706342     1.0305237235     0.8437625531
   23      H      -5.4241746200    -0.0272862743     0.7659403355
   24      H      -4.2715834593    -0.9970435355     1.7115920624
   25      H      -4.6990230198    -1.4939531320     0.0679381578
   26      H      -4.5077313984     1.4254858218    -1.2140085688
   27      H      -3.8855937781    -0.0835831519    -1.9194885656
   28      H      -2.7929100638     1.2828356752    -1.6418062535
 ----------------------------------------------------------------

   10    -728.5408904157      9.06e-06  Convergence criterion met
 Total energy in the final basis set =     -728.5408904157
    5    -728.6329047123      4.89e-06  Convergence criterion met
 Total energy in the final basis set =     -728.6329047123

                    Orbital Energies (a.u.)
 --------------------------------------------------------------

 Alpha MOs
 -- Occupied --
-19.1497 -19.0816 -19.0778 -10.2306 -10.2267 -10.2262 -10.2250 -10.1749
-10.1727 -10.1718 -10.1710 -10.1695 -10.1691 -10.1579 -10.1560 -10.1558
 -1.0661  -1.0040  -1.0021  -0.8583  -0.8103  -0.7797  -0.7504  -0.7347
 -0.6893  -0.6801  -0.6276  -0.6187  -0.5771  -0.5629  -0.5241  -0.5140
 -0.4931  -0.4643  -0.4596  -0.4445  -0.4366  -0.4241  -0.4210  -0.4180
 -0.4082  -0.3995  -0.3901  -0.3869  -0.3833  -0.3731  -0.3632  -0.3526
 -0.3511  -0.3390  -0.3260  -0.3189  -0.2678  -0.2577  -0.2510  -0.2437
 -0.2364  -0.1522

 Beta MOs
 -- Occupied --
-19.1488 -19.0750 -19.0726 -10.2290 -10.2262 -10.2252 -10.2227 -10.1745
-10.1719 -10.1716 -10.1704 -10.1696 -10.1688 -10.1574 -10.1560 -10.1557
 -1.0639  -0.9939  -0.9916  -0.8560  -0.8067  -0.7780  -0.7484  -0.7330
 -0.6891  -0.6718  -0.6253  -0.6169  -0.5751  -0.5605  -0.5226  -0.5121
 -0.4905  -0.4618  -0.4574  -0.4424  -0.4345  -0.4229  -0.4148  -0.4106
 -0.4022  -0.3974  -0.3895  -0.3849  -0.3742  -0.3644  -0.3551  -0.3500
 -0.3456  -0.3380  -0.3223  -0.3110  -0.2509  -0.2488  -0.2453  -0.2384
 -0.2279

          Ground-State Mulliken Net Atomic Charges

     Atom                 Charge (a.u.)    Spin (a.u.)
  --------------------------------------------------------
      1 C                     0.171983       0.065513
      2 C                    -0.458373       0.009194
      3 C                    -0.388110       0.052391
      4 C                     0.124354      -0.002725
      5 C                     0.469770       0.056334
      6 C                     0.120725       0.009923
      7 C                    -0.373759       0.142421
      8 C                    -0.404452       0.132964
      9 C                    -0.022845       0.009541
     10 C                    -0.241753       0.087741
     11 O                    -0.526468       0.244717
     12 O                    -0.528639       0.183931
     13 H                     0.174454      -0.003391
     14 H                     0.171270      -0.000860
     15 O                    -0.075243       0.018937
     16 H                     0.202950      -0.001426
     17 H                     0.203380      -0.003642
     18 H                     0.237508      -0.006106
     19 C                    -0.015566       0.001957
     20 C                    -0.529364       0.000360
     21 C                    -0.421174       0.001795
     22 H                     0.146945       0.000316
     23 H                     0.169697      -0.000046
     24 H                     0.161920       0.000124
     25 H                     0.154772      -0.000000
     26 H                     0.158864       0.001055
     27 H                     0.172496       0.000127
     28 H                     0.144657      -0.001145
  --------------------------------------------------------
  Sum of atomic charges =    -1.000000

                    Cartesian Multipole Moments
 -----------------------------------------------------------------
    Charge (ESU x 10^10)
                -4.8032
    Dipole Moment (Debye)
         X      -3.2526      Y       0.1385      Z      -0.4186
       Tot       3.2824
    Quadrupole Moments (Debye-Ang)
        XX     -87.1107     XY     -14.3091     YY    -136.1864
        XZ      -1.1790     YZ      -1.7165     ZZ    -100.0897

 Total job time:  74.49s(wall), 561.47s(cpu)
        *  Thank you very much for using Q-Chem.  Have a nice day.  *
