 Gaussian 16, Revision A.03,
 Gaussian 16:  ES64L-G16RevA.03 25-Dec-2016

 ----------------------------------------------------------------
 #P UB3LYP/6-311++G(d,p) SCRF=(PCM,Solvent=n,n-DiMethylFormamide)
 ----------------------------------------------------------------

 -------
 Reduced
 -------
 Symbolic Z-matrix:
 Charge = -2 Multiplicity = 1

                         Standard orientation:
 ---------------------------------------------------------------------
 Center     Atomic      Atomic             Coordinates (Angstroms)
 Number     Number       Type             X           Y           Z
 ---------------------------------------------------------------------
      1          6           0       -3.909485   -1.806598    0.045177
      2          6           0       -5.233109   -1.426850    0.168613
      3          6           0       -5.554012   -0.049065    0.255220
      4          6           0       -2.861545   -0.860835    0.003030
      5          6           0       -3.183433    0.537234    0.090657
      6          6           0       -4.549375    0.896544    0.216048
      7          6           0       -1.483706   -1.335630   -0.132738
      8          6           0       -0.480088   -0.276484   -0.162006
      9          6           0       -0.833159    1.140529   -0.070848
     10          6           0       -2.177425    1.599130    0.057581
     11          6           0        0.861725   -0.638203   -0.278007
     12          6           0        0.237064    2.086694   -0.114838
     13          6           0        1.550356    1.728575   -0.238854
     14          8           0       -1.203884   -2.567547   -0.215094
     15          8           0       -2.512451    2.836402    0.140209
     16          1           0       -3.624605   -2.851625   -0.024620
     17          1           0       -6.020935   -2.176401    0.199253
     18          1           0       -6.592906    0.261443    0.352257
     19          1           0        2.341838    2.465802   -0.290237
     20          1           0       -4.760899    1.958979    0.280024
     21          1           0        1.095550   -1.694791   -0.336082
     22          1           0       -0.046467    3.132414   -0.052808
     23          6           0        1.874223    0.325284   -0.338016
     24         16           0        3.516282   -0.166058   -0.390560
     25          8           0        3.707906   -1.544610   -0.871098
     26          8           0        4.397113    0.881718   -0.944273
     27          8           0        3.959638   -0.229214    1.278414
     28          6           0        5.329281   -0.527377    1.528208
     29          1           0        5.600263   -1.512689    1.130857
     30          1           0        5.450379   -0.532076    2.616576
     31          1           0        5.986807    0.234177    1.093115
 ---------------------------------------------------------------------

 SCF Done:  E(UB3LYP) =  -1352.41303650     A.U. after   20 cycles

 The electronic state is 1-A.
 Alpha  occ. eigenvalues --  -89.06765 -19.14955 -19.12214 -19.12029 -19.04580
 Alpha  occ. eigenvalues --  -19.02395 -10.21614 -10.20221 -10.19276 -10.18130
 Alpha  occ. eigenvalues --  -10.18000 -10.16488 -10.16161 -10.15895 -10.15738
 Alpha  occ. eigenvalues --  -10.15640 -10.15365 -10.15310 -10.15306 -10.15223
 Alpha  occ. eigenvalues --  -10.14098  -8.12887  -6.09227  -6.09127  -6.08920
 Alpha  occ. eigenvalues --   -1.12736  -1.01859  -1.00749  -0.96981  -0.94343
 Alpha  occ. eigenvalues --   -0.84970  -0.83634  -0.77977  -0.75055  -0.73469
 Alpha  occ. eigenvalues --   -0.73321  -0.70493  -0.66162  -0.64051  -0.61202
 Alpha  occ. eigenvalues --   -0.58952  -0.57208  -0.54556  -0.53502  -0.51700
 Alpha  occ. eigenvalues --   -0.50903  -0.47892  -0.47520  -0.45326  -0.44992
 Alpha  occ. eigenvalues --   -0.44367  -0.44059  -0.43569  -0.41944  -0.40846
 Alpha  occ. eigenvalues --   -0.39891  -0.39496  -0.39177  -0.38756  -0.38305
 Alpha  occ. eigenvalues --   -0.36720  -0.35580  -0.34490  -0.34091  -0.33625
 Alpha  occ. eigenvalues --   -0.33156  -0.32852  -0.32059  -0.31766  -0.31266
 Alpha  occ. eigenvalues --   -0.30823  -0.28457  -0.25140  -0.24076  -0.23619
 Alpha  occ. eigenvalues --   -0.23111  -0.21973  -0.20331  -0.11908
 Alpha virt. eigenvalues --   -0.05242  -0.02265  -0.00274   0.00387   0.00701
 Alpha virt. eigenvalues --    0.01330   0.01642   0.02370   0.02507   0.03216
 Alpha virt. eigenvalues --    0.03566   0.03985   0.04679   0.04982   0.05245

  Beta  occ. eigenvalues --  -89.06765 -19.14955 -19.12214 -19.12029 -19.04580
  Beta  occ. eigenvalues --  -19.02395 -10.21614 -10.20221 -10.19276 -10.18130
  Beta  occ. eigenvalues --  -10.18000 -10.16488 -10.16161 -10.15895 -10.15738
  Beta  occ. eigenvalues --  -10.15640 -10.15365 -10.15310 -10.15306 -10.15223
  Beta  occ. eigenvalues --  -10.14098  -8.12887  -6.09227  -6.09127  -6.08920
  Beta  occ. eigenvalues --   -1.12736  -1.01859  -1.00749  -0.96981  -0.94343
  Beta  occ. eigenvalues --   -0.84970  -0.83634  -0.77977  -0.75055  -0.73469
  Beta  occ. eigenvalues --   -0.73321  -0.70493  -0.66162  -0.64051  -0.61202
  Beta  occ. eigenvalues --   -0.58952  -0.57208  -0.54556  -0.53502  -0.51700
  Beta  occ. eigenvalues --   -0.50903  -0.47892  -0.47520  -0.45326  -0.44992
  Beta  occ. eigenvalues --   -0.44367  -0.44059  -0.43569  -0.41944  -0.40846
  Beta  occ. eigenvalues --   -0.39891  -0.39496  -0.39177  -0.38756  -0.38305
  Beta  occ. eigenvalues --   -0.36720  -0.35580  -0.34490  -0.34091  -0.33625
  Beta  occ. eigenvalues --   -0.33156  -0.32852  -0.32059  -0.31766  -0.31266
  Beta  occ. eigenvalues --   -0.30823  -0.28457  -0.25140  -0.24076  -0.23619
  Beta  occ. eigenvalues --   -0.23111  -0.21973  -0.20331  -0.11908
  Beta virt. eigenvalues --   -0.05242  -0.02265  -0.00274   0.00387   0.00701
  Beta virt. eigenvalues --    0.01330   0.01642   0.02370   0.02507   0.03216
  Beta virt. eigenvalues --    0.03566   0.03985   0.04679   0.04982   0.05245

 Mulliken charges and spin densities:
               1          2
     1  C    0.031690  -0.000000
     2  C   -0.493563   0.000000
     3  C   -0.493582  -0.000000
     4  C    0.321851  -0.000000
     5  C    0.410596   0.000000
     6  C    0.014400  -0.000000
     7  C   -0.715304   0.000000
     8  C    0.323263  -0.000000
     9  C    0.714961   0.000000
    10  C   -0.400204   0.000000
    11  C    0.103448  -0.000000
    12  C   -0.154754  -0.000000
    13  C   -0.505238  -0.000000
    14  O   -0.541466  -0.000000
    15  O   -0.637846  -0.000000
    16  H    0.153800   0.000000
    17  H    0.168461  -0.000000
    18  H    0.169104   0.000000
    19  H    0.210205  -0.000000
    20  H    0.155241   0.000000
    21  H    0.204529   0.000000
    22  H    0.146966  -0.000000
    23  C   -1.117626   0.000000
    24  S    0.303085  -0.000000
    25  O   -0.273845   0.000000
    26  O   -0.301284  -0.000000
    27  O   -0.144010   0.000000
    28  C   -0.141992   0.000000
    29  H    0.159442   0.000000
    30  H    0.170097   0.000000
    31  H    0.159578  -0.000000
 Sum of Mulliken charges =  -2.00000   0.00000

 Dipole moment (field-independent basis, Debye):
    X=              5.6462    Y=             -2.1491    Z=              2.8932  Tot=              6.6984
 Quadrupole moment (field-independent basis, Debye-Ang):
   XX=           -200.4807   YY=           -186.7921   ZZ=           -142.7885
   XY=             14.1778   XZ=             15.4159   YZ=             -4.1262

 Normal termination of Gaussian 16 at Tue Jan 16 06:34:59 2024.
