 Gaussian 16, Revision A.03,
 Gaussian 16:  ES64L-G16RevA.03 25-Dec-2016

 --------------------------------------
 #P UB3LYP/6-311++G(d,p) nosym opt freq
 --------------------------------------

 -------
 Reduced
 -------
 Symbolic Z-matrix:
 Charge = -2 Multiplicity = 1

 SCF Done:  E(UB3LYP) =  -1352.17042203     A.U. after   24 cycles
 Optimization completed.
    -- Stationary point found.
 Normal termination of Gaussian 16 at Sun Jan  7 06:50:43 2024.

 ----------------------------------------------------------------------
 #P Geom=AllCheck Guess=TCheck SCRF=Check GenChk UB3LYP/6-311++G(d,p) F
 req
 ----------------------------------------------------------------------

 Structure from the checkpoint file:  "215-an.chk"
 -------
 Reduced
 -------
 Charge = -2 Multiplicity = 1

                          Input orientation:
 ---------------------------------------------------------------------
 Center     Atomic      Atomic             Coordinates (Angstroms)
 Number     Number       Type             X           Y           Z
 ---------------------------------------------------------------------
      1          6           0        5.025098   -2.373804    0.578119
      2          6           0        5.830999   -1.692709   -0.315222
      3          6           0        5.231007   -0.894812   -1.321274
      4          6           0        3.615997   -2.300077    0.519629
      5          6           0        3.004232   -1.491863   -0.499401
      6          6           0        3.856043   -0.804619   -1.400921
      7          6           0        2.826188   -3.045426    1.500934
      8          6           0        1.381883   -2.902507    1.347791
      9          6           0        0.782923   -2.073461    0.301452
     10          6           0        1.556273   -1.345743   -0.650502
     11          6           0        0.550686   -3.587466    2.233625
     12          6           0       -0.643950   -2.007808    0.253873
     13          6           0       -1.455154   -2.672666    1.130388
     14          8           0        3.368139   -3.752168    2.400661
     15          8           0        1.054332   -0.612517   -1.578050
     16          1           0        5.447550   -2.993923    1.362400
     17          1           0        6.914196   -1.767583   -0.248029
     18          1           0        5.855839   -0.353813   -2.029820
     19          1           0       -2.533994   -2.590623    1.086112
     20          1           0        3.365126   -0.202826   -2.158846
     21          1           0        1.020596   -4.200165    2.994026
     22          1           0       -1.068043   -1.382213   -0.524936
     23          6           0       -0.841934   -3.476014    2.161185
     24         16           0       -1.827197   -4.405350    3.212911
     25          8           0       -1.133055   -4.858830    4.429696
     26          8           0       -3.178455   -3.830665    3.368261
     27          8           0       -2.103046   -5.854240    2.312548
     28          6           0       -2.988233   -6.786173    2.925053
     29          1           0       -2.598335   -7.128735    3.890864
     30          1           0       -3.058866   -7.639216    2.242001
     31          1           0       -3.984597   -6.352026    3.067831
 ---------------------------------------------------------------------

 SCF Done:  E(UB3LYP) =  -1352.17042203     A.U. after    2 cycles

 Alpha  occ. eigenvalues --  -88.85275 -18.94689 -18.90836 -18.90821 -18.82222
 Alpha  occ. eigenvalues --  -18.79422 -10.03933  -9.98156  -9.97393  -9.95838
 Alpha  occ. eigenvalues --   -9.95805  -9.95757  -9.95584  -9.94929  -9.94638
 Alpha  occ. eigenvalues --   -9.94456  -9.93674  -9.93630  -9.93629  -9.93216
 Alpha  occ. eigenvalues --   -9.91809  -7.91417  -5.87764  -5.87658  -5.87432
 Alpha  occ. eigenvalues --   -0.91602  -0.81633  -0.79420  -0.74470  -0.71323
 Alpha  occ. eigenvalues --   -0.62927  -0.62500  -0.56301  -0.53642  -0.52268
 Alpha  occ. eigenvalues --   -0.51933  -0.50584  -0.45130  -0.42551  -0.39919
 Alpha  occ. eigenvalues --   -0.37926  -0.35834  -0.33556  -0.32095  -0.30283
 Alpha  occ. eigenvalues --   -0.29898  -0.27584  -0.27219  -0.25360  -0.24815
 Alpha  occ. eigenvalues --   -0.23565  -0.23015  -0.22183  -0.20009  -0.19666
 Alpha  occ. eigenvalues --   -0.19491  -0.18245  -0.17224  -0.16762  -0.16651
 Alpha  occ. eigenvalues --   -0.14130  -0.13971  -0.13263  -0.13168  -0.12056
 Alpha  occ. eigenvalues --   -0.11511  -0.11424  -0.10715  -0.10491  -0.09409
 Alpha  occ. eigenvalues --   -0.09045  -0.07963  -0.03240  -0.02283  -0.01561
 Alpha  occ. eigenvalues --   -0.01089   0.00617   0.02735   0.10577
 Alpha virt. eigenvalues --    0.13378   0.14812   0.16569   0.16701   0.17203
 Alpha virt. eigenvalues --    0.17691   0.18460   0.19118   0.19350   0.20024
 Alpha virt. eigenvalues --    0.21033   0.22041   0.22189   0.23274   0.23629

  Beta  occ. eigenvalues --  -88.85275 -18.94689 -18.90836 -18.90821 -18.82222
  Beta  occ. eigenvalues --  -18.79422 -10.03933  -9.98156  -9.97393  -9.95838
  Beta  occ. eigenvalues --   -9.95805  -9.95757  -9.95584  -9.94929  -9.94638
  Beta  occ. eigenvalues --   -9.94456  -9.93674  -9.93630  -9.93629  -9.93216
  Beta  occ. eigenvalues --   -9.91809  -7.91417  -5.87764  -5.87658  -5.87432
  Beta  occ. eigenvalues --   -0.91602  -0.81633  -0.79420  -0.74470  -0.71323
  Beta  occ. eigenvalues --   -0.62927  -0.62500  -0.56301  -0.53642  -0.52268
  Beta  occ. eigenvalues --   -0.51933  -0.50584  -0.45130  -0.42551  -0.39919
  Beta  occ. eigenvalues --   -0.37926  -0.35834  -0.33556  -0.32095  -0.30283
  Beta  occ. eigenvalues --   -0.29898  -0.27584  -0.27219  -0.25360  -0.24815
  Beta  occ. eigenvalues --   -0.23565  -0.23015  -0.22183  -0.20009  -0.19666
  Beta  occ. eigenvalues --   -0.19491  -0.18245  -0.17224  -0.16762  -0.16651
  Beta  occ. eigenvalues --   -0.14130  -0.13971  -0.13263  -0.13168  -0.12056
  Beta  occ. eigenvalues --   -0.11511  -0.11424  -0.10715  -0.10491  -0.09409
  Beta  occ. eigenvalues --   -0.09045  -0.07963  -0.03240  -0.02283  -0.01561
  Beta  occ. eigenvalues --   -0.01089   0.00617   0.02735   0.10577
  Beta virt. eigenvalues --    0.13378   0.14812   0.16569   0.16701   0.17203
  Beta virt. eigenvalues --    0.17691   0.18460   0.19118   0.19350   0.20024
  Beta virt. eigenvalues --    0.21033   0.22041   0.22189   0.23274   0.23629

 Mulliken charges and spin densities:
               1          2
     1  C   -0.006158  -0.000000
     2  C   -0.426830  -0.000000
     3  C   -0.430360   0.000000
     4  C    0.441349  -0.000000
     5  C    0.577116  -0.000000
     6  C   -0.006872  -0.000000
     7  C   -0.928109  -0.000000
     8  C    0.413501  -0.000000
     9  C    0.864097   0.000000
    10  C   -0.726868  -0.000000
    11  C    0.117055   0.000000
    12  C   -0.105779   0.000000
    13  C   -0.464470   0.000000
    14  O   -0.426932  -0.000000
    15  O   -0.497627   0.000000
    16  H    0.134551  -0.000000
    17  H    0.087423   0.000000
    18  H    0.087609  -0.000000
    19  H    0.167792   0.000000
    20  H    0.141205  -0.000000
    21  H    0.213420  -0.000000
    22  H    0.132951   0.000000
    23  C   -1.115988  -0.000000
    24  S    0.159080   0.000000
    25  O   -0.242373   0.000000
    26  O   -0.277543  -0.000000
    27  O   -0.108490   0.000000
    28  C    0.009307   0.000000
    29  H    0.097168   0.000000
    30  H    0.033562   0.000000
    31  H    0.087210   0.000000
 Sum of Mulliken charges =  -2.00000  -0.00000

 Dipole moment (field-independent basis, Debye):
    X=            -10.1216    Y=             26.2383    Z=            -10.9770  Tot=             30.1892
 Quadrupole moment (field-independent basis, Debye-Ang):
   XX=           -222.1865   YY=           -242.7332   ZZ=           -203.7257
   XY=             10.3553   XZ=             13.2301   YZ=             64.0597

  Exact polarizability: 887.197 513.197 708.625-246.457-248.899 326.393
 Approx polarizability:1402.686 598.576 846.252-371.188-363.643 540.166

                      1                      2                      3
                      A                      A                      A
 Frequencies --     28.3140                33.5555                64.5637
 Red. masses --      4.8519                 6.2203                 3.4409
 Frc consts  --      0.0023                 0.0041                 0.0085
 IR Inten    --      1.6953                 1.0676                 1.3352

                      4                      5                      6
                      A                      A                      A
 Frequencies --     71.1644               110.2801               118.8413
 Red. masses --      5.8538                 7.3931                 3.4539
 Frc consts  --      0.0175                 0.0530                 0.0287
 IR Inten    --      3.5624                 0.2993                 0.2880

                      7                      8                      9
                      A                      A                      A
 Frequencies --    136.7442               144.1381               168.2424
 Red. masses --      3.3342                 1.4248                 7.8900
 Frc consts  --      0.0367                 0.0174                 0.1316
 IR Inten    --      0.6038                 1.6055                 3.4693

                     10                     11                     12
                      A                      A                      A
 Frequencies --    211.4617               217.6708               236.4447
 Red. masses --      6.7189                 6.6980                 7.1904
 Frc consts  --      0.1770                 0.1870                 0.2368
 IR Inten    --      4.2741                 3.5564                 8.9862

                     13                     14                     15
                      A                      A                      A
 Frequencies --    257.0301               287.5008               305.7209
 Red. masses --      5.3763                 8.0037                 5.9770
 Frc consts  --      0.2093                 0.3898                 0.3291
 IR Inten    --      1.1145                 1.6129                30.5293

                     16                     17                     18
                      A                      A                      A
 Frequencies --    367.9994               371.7071               394.5253
 Red. masses --      8.6655                 9.7445                 5.7597
 Frc consts  --      0.6914                 0.7933                 0.5282
 IR Inten    --      6.6258                 2.6045                42.7780

                     19                     20                     21
                      A                      A                      A
 Frequencies --    405.0127               431.0985               437.1037
 Red. masses --      7.0950                 3.9793                 9.5284
 Frc consts  --      0.6857                 0.4357                 1.0726
 IR Inten    --     30.6722                 3.2704                 4.2238

                     22                     23                     24
                      A                      A                      A
 Frequencies --    463.1517               467.4643               473.1292
 Red. masses --      7.5552                 4.1734                 7.5833
 Frc consts  --      0.9549                 0.5373                 1.0002
 IR Inten    --     42.8319                 5.6677                28.5770

                     25                     26                     27
                      A                      A                      A
 Frequencies --    490.7863               499.9338               545.4370
 Red. masses --      5.1372                 8.5966                 9.8216
 Frc consts  --      0.7291                 1.2659                 1.7216
 IR Inten    --     40.6159                95.4057                29.3792

                     28                     29                     30
                      A                      A                      A
 Frequencies --    593.1012               628.3883               630.4170
 Red. masses --      9.1869                 4.9834                 7.0985
 Frc consts  --      1.9041                 1.1594                 1.6622
 IR Inten    --     59.2568                13.8012                15.2606

                     31                     32                     33
                      A                      A                      A
 Frequencies --    659.1302               686.4351               690.9570
 Red. masses --      7.1806                 6.2941                 1.9321
 Frc consts  --      1.8380                 1.7474                 0.5435
 IR Inten    --     26.1508                 4.0357                69.1788

                     34                     35                     36
                      A                      A                      A
 Frequencies --    709.2749               714.3760               748.8342
 Red. masses --      6.5011                 3.7402                 1.5720
 Frc consts  --      1.9269                 1.1246                 0.5194
 IR Inten    --     37.3848                 5.8391                 0.9351

                     37                     38                     39
                      A                      A                      A
 Frequencies --    777.2264               803.8848               827.6678
 Red. masses --      2.3580                 2.0122                 6.7107
 Frc consts  --      0.8392                 0.7661                 2.7085
 IR Inten    --     20.9242                 0.6185                20.5529

                     40                     41                     42
                      A                      A                      A
 Frequencies --    840.6119               926.1463               958.2640
 Red. masses --      2.4522                 6.6062                 1.4854
 Frc consts  --      1.0210                 3.3386                 0.8037
 IR Inten    --      1.2918                 2.8503                14.2321

                     43                     44                     45
                      A                      A                      A
 Frequencies --    962.2414               964.8600               971.0756
 Red. masses --      3.3405                 1.4456                 1.3193
 Frc consts  --      1.8224                 0.7929                 0.7330
 IR Inten    --     32.1106                 1.6126                 2.4432

                     46                     47                     48
                      A                      A                      A
 Frequencies --    976.9920               988.3254              1022.0254
 Red. masses --      1.3122                 5.4283                 2.1072
 Frc consts  --      0.7380                 3.1240                 1.2968
 IR Inten    --      1.4873                41.0112               331.8108

                     49                     50                     51
                      A                      A                      A
 Frequencies --   1033.2561              1055.8921              1096.6074
 Red. masses --      3.0753                 8.3088                 2.1789
 Frc consts  --      1.9345                 5.4579                 1.5438
 IR Inten    --     22.4646               638.4063                46.5661

                     52                     53                     54
                      A                      A                      A
 Frequencies --   1122.4706              1129.9916              1163.1699
 Red. masses --      1.8025                 1.5125                 1.2804
 Frc consts  --      1.3381                 1.1379                 1.0206
 IR Inten    --     51.5241               141.7675                 4.8592

                     55                     56                     57
                      A                      A                      A
 Frequencies --   1165.3840              1169.0714              1190.1280
 Red. masses --      2.5068                 1.3952                 2.4721
 Frc consts  --      2.0059                 1.1235                 2.0630
 IR Inten    --     66.1609               169.0830               102.0785

                     58                     59                     60
                      A                      A                      A
 Frequencies --   1204.3813              1226.1084              1228.9253
 Red. masses --      2.0390                 1.9244                10.7240
 Frc consts  --      1.7426                 1.7046                 9.5424
 IR Inten    --     63.8396               109.5927               146.7237

                     61                     62                     63
                      A                      A                      A
 Frequencies --   1251.9383              1320.8143              1349.4734
 Red. masses --      2.1515                 2.6377                 8.7870
 Frc consts  --      1.9868                 2.7112                 9.4280
 IR Inten    --     87.6205               240.3193                16.7941

                     64                     65                     66
                      A                      A                      A
 Frequencies --   1358.6763              1403.6742              1437.0506
 Red. masses --      3.3035                 3.2859                 3.3186
 Frc consts  --      3.5930                 3.8145                 4.0378
 IR Inten    --     80.4276               686.8044               519.2595

                     67                     68                     69
                      A                      A                      A
 Frequencies --   1439.4925              1452.1075              1463.4047
 Red. masses --      1.4610                 2.7419                 2.6397
 Frc consts  --      1.7837                 3.4064                 3.3306
 IR Inten    --     65.8374                91.4902               127.6262

                     70                     71                     72
                      A                      A                      A
 Frequencies --   1471.2700              1484.0739              1501.1639
 Red. masses --      1.0537                 4.3970                 3.9935
 Frc consts  --      1.3439                 5.7058                 5.3022
 IR Inten    --      1.3451               470.5929               428.8492

                     73                     74                     75
                      A                      A                      A
 Frequencies --   1505.8145              1518.7021              1558.6287
 Red. masses --      1.1437                 6.5997                 6.6886
 Frc consts  --      1.5280                 8.9685                 9.5735
 IR Inten    --     12.9830               212.6087               602.0289

                     76                     77                     78
                      A                      A                      A
 Frequencies --   1596.4440              1606.8315              2982.7943
 Red. masses --      6.3398                 6.5840                 1.0270
 Frc consts  --      9.5199                10.0157                 5.3838
 IR Inten    --    316.6504               581.8868               350.4563

                     79                     80                     81
                      A                      A                      A
 Frequencies --   3047.7908              3056.1197              3099.7522
 Red. masses --      1.1054                 1.1048                 1.0833
 Frc consts  --      6.0500                 6.0797                 6.1328
 IR Inten    --     39.6524               437.2663                45.3358

                     82                     83                     84
                      A                      A                      A
 Frequencies --   3123.9605              3160.0613              3163.1840
 Red. masses --      1.0907                 1.0861                 1.0908
 Frc consts  --      6.2713                 6.3901                 6.4304
 IR Inten    --    187.3171                 3.8726                37.6712

                     85                     86                     87
                      A                      A                      A
 Frequencies --   3166.8433              3186.8030              3190.3862
 Red. masses --      1.0912                 1.0926                 1.0892
 Frc consts  --      6.4480                 6.5378                 6.5321
 IR Inten    --    101.7394                21.9338                 1.8650

 - Thermochemistry -
 -------------------
 Temperature   298.150 Kelvin.  Pressure   1.00000 Atm.
 Atom     1 has atomic number  6 and mass  12.00000

 Molecular mass:   302.02490 amu.
 Principal axes and moments of inertia in atomic units:
                           1         2         3
     Eigenvalues --  2422.73636********************
           X            0.78351   0.62110  -0.01839
           Y            0.42891  -0.51917   0.73926
           Z           -0.44961   0.58711   0.67317
 This molecule is an asymmetric top.
 Rotational symmetry number  1.
 Warning -- assumption of classical behavior for rotation
           may cause significant error
 Rotational temperatures (Kelvin)      0.03575     0.00695     0.00612
 Rotational constants (GHZ):           0.74492     0.14488     0.12751
 Zero-point vibrational energy     565246.9 (Joules/Mol)
                                  135.09725 (Kcal/Mol)
 Warning -- explicit consideration of  28 degrees of freedom as
           vibrations may cause significant error
 Vibrational temperatures:     40.74    48.28    92.89   102.39   158.67
          (Kelvin)            170.99   196.74   207.38   242.06   304.25
                              313.18   340.19   369.81   413.65   439.86
                              529.47   534.80   567.63   582.72   620.25
                              628.89   666.37   672.58   680.73   706.13
                              719.29   784.76   853.34   904.11   907.03
                              948.34   987.63   994.13  1020.49  1027.83
                             1077.41  1118.26  1156.61  1190.83  1209.45
                             1332.52  1378.73  1384.45  1388.22  1397.16
                             1405.67  1421.98  1470.47  1486.63  1519.19
                             1577.77  1614.98  1625.81  1673.54  1676.73
                             1682.03  1712.33  1732.84  1764.10  1768.15
                             1801.26  1900.36  1941.59  1954.83  2019.57
                             2067.60  2071.11  2089.26  2105.51  2116.83
                             2135.25  2159.84  2166.53  2185.07  2242.52
                             2296.93  2311.87  4291.58  4385.09  4397.07
                             4459.85  4494.68  4546.62  4551.12  4556.38
                             4585.10  4590.25

 Zero-point correction=                           0.215291 (Hartree/Particle)
 Thermal correction to Energy=                    0.233097
 Thermal correction to Enthalpy=                  0.234041
 Thermal correction to Gibbs Free Energy=         0.168579
 Sum of electronic and zero-point Energies=          -1351.955131
 Sum of electronic and thermal Energies=             -1351.937325
 Sum of electronic and thermal Enthalpies=           -1351.936381
 Sum of electronic and thermal Free Energies=        -1352.001843

                     E (Thermal)             CV                S
                      KCal/Mol        Cal/Mol-Kelvin    Cal/Mol-Kelvin
 Total                  146.270             68.683            137.777
 Electronic               0.000              0.000              0.000
 Translational            0.889              2.981             43.013
 Rotational               0.889              2.981             34.412
 Vibrational            144.493             62.722             60.352
 Vibration     1          0.593              1.984              5.944
 Vibration     2          0.594              1.983              5.607
 Vibration     3          0.597              1.971              4.313
 Vibration     4          0.598              1.968              4.121
 Vibration     5          0.606              1.941              3.264
 Vibration     6          0.609              1.934              3.119
 Vibration     7          0.614              1.917              2.849
 Vibration     8          0.616              1.909              2.748
 Vibration     9          0.625              1.882              2.455
 Vibration    10          0.643              1.823              2.031
 Vibration    11          0.646              1.814              1.978
 Vibration    12          0.655              1.785              1.829
 Vibration    13          0.667              1.751              1.682
 Vibration    14          0.685              1.697              1.489
 Vibration    15          0.696              1.663              1.385
 Vibration    16          0.741              1.538              1.088
 Vibration    17          0.743              1.530              1.073
 Vibration    18          0.761              1.482              0.983
 Vibration    19          0.770              1.459              0.944
 Vibration    20          0.792              1.402              0.855
 Vibration    21          0.797              1.389              0.836
 Vibration    22          0.821              1.332              0.757
 Vibration    23          0.825              1.322              0.745
 Vibration    24          0.830              1.310              0.729
 Vibration    25          0.847              1.270              0.682
 Vibration    26          0.855              1.250              0.658
 Vibration    27          0.901              1.150              0.554
 Vibration    28          0.951              1.046              0.462

 Optimization completed.
    -- Stationary point found.
 Normal termination of Gaussian 16 at Sun Jan  7 08:36:43 2024.
