 Gaussian 16, Revision A.03,
 Gaussian 16:  ES64L-G16RevA.03 25-Dec-2016

 ----------------------------------------------------------------------
 #P UB3LYP/6-311++G(d,p) nosym opt freq SCRF=(PCM,Solvent=n,n-DiMethylF
 ormamide)
 ----------------------------------------------------------------------

 -------
 Reduced
 -------
 Symbolic Z-matrix:
 Charge = -2 Multiplicity = 1

 SCF Done:  E(UB3LYP) =  -2219.00307800     A.U. after   18 cycles
 SCF Done:  E(UB3LYP) =  -2219.00307774     A.U. after   12 cycles
 SCF Done:  E(UB3LYP) =  -2219.00307785     A.U. after   12 cycles
 SCF Done:  E(UB3LYP) =  -2219.00307774     A.U. after   10 cycles
 SCF Done:  E(UB3LYP) =  -2219.00307808     A.U. after   11 cycles
 SCF Done:  E(UB3LYP) =  -2219.00307809     A.U. after   10 cycles
 SCF Done:  E(UB3LYP) =  -2219.00307810     A.U. after   10 cycles
 SCF Done:  E(UB3LYP) =  -2219.00307810     A.U. after    9 cycles
 Optimization completed on the basis of negligible forces.
    -- Stationary point found.

 Alpha virt. eigenvalues --    0.24006   0.24142   0.24371   0.24503   0.24519
 Alpha virt. eigenvalues --    0.24615   0.24706   0.24924   0.24998   0.25054
 Alpha virt. eigenvalues --    0.25114   0.25168   0.25249   0.25340   0.25471

  Beta  occ. eigenvalues --  -19.00159 -19.00136 -10.17698 -10.17504 -10.17499
  Beta  occ. eigenvalues --  -10.17486 -10.17459 -10.17398 -10.17376 -10.17173
  Beta  occ. eigenvalues --  -10.16759 -10.16752 -10.16749 -10.16732 -10.16698
  Beta  occ. eigenvalues --  -10.16695 -10.16694 -10.16684 -10.16665 -10.16663
  Beta  occ. eigenvalues --  -10.16630 -10.16598 -10.16560 -10.16481 -10.16251
  Beta  occ. eigenvalues --  -10.16229 -10.16152 -10.16120 -10.16112 -10.16100
  Beta  occ. eigenvalues --  -10.16093 -10.16076 -10.16075 -10.16069 -10.16062
  Beta  occ. eigenvalues --  -10.16055 -10.16028 -10.16016 -10.16010 -10.15994
  Beta  occ. eigenvalues --  -10.15978 -10.15930 -10.15770 -10.15760 -10.15373
  Beta  occ. eigenvalues --  -10.15250 -10.15145 -10.14862 -10.14355 -10.13033
  Beta  occ. eigenvalues --  -10.13000 -10.11976 -10.11788 -10.11627 -10.10608
  Beta  occ. eigenvalues --   -0.90585  -0.90084  -0.83180  -0.82990  -0.82727
  Beta  occ. eigenvalues --   -0.82383  -0.81975  -0.81509  -0.81005  -0.80542
  Beta  occ. eigenvalues --   -0.80277  -0.77935  -0.77630  -0.76966  -0.76202
  Beta  occ. eigenvalues --   -0.75427  -0.74647  -0.73856  -0.73105  -0.72483
  Beta  occ. eigenvalues --   -0.72078  -0.69639  -0.69186  -0.68919  -0.68784
  Beta  occ. eigenvalues --   -0.68727  -0.68641  -0.68468  -0.68253  -0.67904
  Beta  occ. eigenvalues --   -0.67389  -0.66830  -0.65208  -0.64307  -0.63235
  Beta  occ. eigenvalues --   -0.62148  -0.62009  -0.61119  -0.60213  -0.59427
  Beta  occ. eigenvalues --   -0.58791  -0.58336  -0.58047  -0.52617  -0.52447
  Beta  occ. eigenvalues --   -0.52302  -0.52230  -0.52029  -0.51710  -0.51319
  Beta  occ. eigenvalues --   -0.51047  -0.50820  -0.49956  -0.49678  -0.48171
  Beta  occ. eigenvalues --   -0.47956  -0.47611  -0.47273  -0.47004  -0.46928
  Beta  occ. eigenvalues --   -0.46774  -0.46630  -0.45834  -0.44982  -0.44866
  Beta  occ. eigenvalues --   -0.44598  -0.44465  -0.44341  -0.43766  -0.43656
  Beta  occ. eigenvalues --   -0.43412  -0.43101  -0.42905  -0.42436  -0.42099
  Beta  occ. eigenvalues --   -0.41969  -0.41721  -0.41490  -0.41199  -0.40896
  Beta  occ. eigenvalues --   -0.40840  -0.40731  -0.40621  -0.40267  -0.40109
  Beta  occ. eigenvalues --   -0.40010  -0.39703  -0.39557  -0.39496  -0.39117
  Beta  occ. eigenvalues --   -0.39012  -0.38678  -0.38440  -0.37739  -0.37470
  Beta  occ. eigenvalues --   -0.37409  -0.37399  -0.37333  -0.37230  -0.37182
  Beta  occ. eigenvalues --   -0.37113  -0.37030  -0.36984  -0.36954  -0.36744
  Beta  occ. eigenvalues --   -0.36676  -0.36650  -0.36545  -0.36516  -0.36403
  Beta  occ. eigenvalues --   -0.36231  -0.36161  -0.35827  -0.35647  -0.35466
  Beta  occ. eigenvalues --   -0.34927  -0.34573  -0.34532  -0.34408  -0.34200
  Beta  occ. eigenvalues --   -0.33963  -0.33703  -0.33549  -0.33324  -0.33227
  Beta  occ. eigenvalues --   -0.33109  -0.33077  -0.32900  -0.32674  -0.32500
  Beta  occ. eigenvalues --   -0.32255  -0.31924  -0.31661  -0.31298  -0.30969
  Beta  occ. eigenvalues --   -0.30717  -0.29603  -0.29034  -0.28690  -0.25082
  Beta  occ. eigenvalues --   -0.24817  -0.24391  -0.24016  -0.23715  -0.23348
  Beta  occ. eigenvalues --   -0.23073  -0.22871  -0.22263  -0.20689  -0.18752
  Beta  occ. eigenvalues --   -0.18400  -0.17864  -0.10741
  Beta virt. eigenvalues --   -0.01075  -0.00877  -0.00632  -0.00339  -0.00090
  Beta virt. eigenvalues --    0.00247   0.00357   0.00423   0.00571   0.00580
  Beta virt. eigenvalues --    0.00662   0.00699   0.00718   0.00770   0.00815

 Mulliken charges and spin densities:
               1          2
     1  C   -1.152287   0.000000
     2  C   -0.780356  -0.000000
     3  C    0.841634  -0.000000
     4  C   -0.871492   0.000000
     5  C    0.345595   0.000000
     6  C    0.962233  -0.000000
     7  O   -0.758414  -0.000000
     8  O   -0.730920   0.000000
     9  C   -0.467226   0.000000
    10  C   -0.492503  -0.000000
    11  H    0.079541   0.000000
    12  H    0.123873  -0.000000
    13  H    0.172559   0.000000
    14  H    0.124541  -0.000000
    15  H    0.176106  -0.000000
    16  H    0.122306   0.000000
    17  H    0.125087  -0.000000
    18  C   -0.174459   0.000000
    19  C   -0.380169   0.000000
    20  C    0.667745   0.000000
    21  C   -0.686510  -0.000000
    22  C   -0.266834   0.000000
    23  C   -0.065788  -0.000000
    24  C    0.531765   0.000000
    25  C   -0.665352  -0.000000
    26  C   -0.436633   0.000000
    27  C   -0.327994   0.000000
    28  C    0.898911   0.000000
    29  C   -0.635190  -0.000000
    30  C   -0.616711   0.000000
    31  C   -0.753932  -0.000000
    32  C   -0.721009  -0.000000
    33  C   -0.305584  -0.000000
    34  C   -0.341665  -0.000000
    35  C    0.809936   0.000000
    36  C   -0.720092   0.000000
    37  C   -0.394287  -0.000000
    38  C   -0.291828   0.000000
    39  C    0.949904   0.000000
    40  C   -0.813032  -0.000000
    41  C   -0.390669   0.000000
    42  C   -0.293715   0.000000
    43  C    0.938338  -0.000000
    44  C   -0.795447  -0.000000
    45  C   -0.394207   0.000000
    46  C   -0.264602   0.000000
    47  C    0.923545  -0.000000
    48  C   -0.712646   0.000000
    49  C   -0.736705  -0.000000
    50  C   -0.733132  -0.000000
    51  C   -0.731111  -0.000000
    52  C   -0.800378  -0.000000
    53  C   -0.419270   0.000000
    54  C   -0.099138  -0.000000
    55  C    0.885989   0.000000
    56  C   -0.763743  -0.000000
    57  C   -0.917835   0.000000
    58  C   -0.271966  -0.000000
    59  C   -0.083755   0.000000
    60  C    0.431448  -0.000000
    61  C   -0.674799  -0.000000
    62  C   -0.623805   0.000000
    63  H    0.170855  -0.000000
    64  H    0.134380   0.000000
    65  H    0.149463   0.000000
    66  H    0.201461  -0.000000
    67  H    0.126511   0.000000
    68  H    0.126347  -0.000000
    69  H    0.182090   0.000000
    70  H    0.200735   0.000000
    71  H    0.158163  -0.000000
    72  H    0.163530   0.000000
    73  H    0.112583   0.000000
    74  H    0.176409  -0.000000
    75  H    0.174253   0.000000
    76  H    0.157839  -0.000000
    77  H    0.156149  -0.000000
    78  H    0.129189   0.000000
    79  H    0.164488   0.000000
    80  H    0.156452  -0.000000
    81  H    0.116764  -0.000000
    82  H    0.166979  -0.000000
    83  H    0.155816   0.000000
    84  H    0.134227  -0.000000
    85  H    0.171777  -0.000000
    86  H    0.163921   0.000000
    87  H    0.143647   0.000000
    88  H    0.136521   0.000000
    89  H    0.196988   0.000000
    90  H    0.179617   0.000000
    91  H    0.147541   0.000000
    92  H    0.178421   0.000000
    93  H    0.127211  -0.000000
    94  H    0.180232  -0.000000
    95  H    0.179800   0.000000
    96  H    0.143422  -0.000000
    97  H    0.181526  -0.000000
    98  H    0.131875   0.000000
    99  H    0.182985   0.000000
   100  H    0.179815   0.000000
   101  H    0.144147   0.000000
   102  H    0.181204  -0.000000
   103  H    0.131368  -0.000000
   104  H    0.184415   0.000000
   105  H    0.126838   0.000000
   106  H    0.156684  -0.000000
   107  H    0.170509   0.000000
   108  H    0.126849  -0.000000
   109  H    0.158474  -0.000000
   110  H    0.168810  -0.000000
   111  H    0.126827  -0.000000
   112  H    0.158200   0.000000
   113  H    0.168721  -0.000000
   114  H    0.125829   0.000000
   115  H    0.158116   0.000000
   116  H    0.169124  -0.000000
   117  H    0.180065   0.000000
   118  H    0.145290  -0.000000
   119  H    0.179918   0.000000
   120  H    0.134174   0.000000
   121  H    0.188612  -0.000000
   122  H    0.121408  -0.000000
   123  H    0.160437   0.000000
   124  H    0.172473  -0.000000
   125  H    0.178121  -0.000000
   126  H    0.145226   0.000000
   127  H    0.174155  -0.000000
   128  H    0.119200   0.000000
   129  H    0.165590   0.000000
   130  H    0.134963   0.000000
   131  H    0.151026  -0.000000
   132  H    0.147012   0.000000
   133  H    0.156968  -0.000000
   134  H    0.144728  -0.000000
   135  H    0.150674  -0.000000
 Sum of Mulliken charges =  -2.00000   0.00000

 Dipole moment (field-independent basis, Debye):
    X=           -167.3688    Y=            -11.4241    Z=            -29.1590  Tot=            170.2735
 Quadrupole moment (field-independent basis, Debye-Ang):
   XX=          -3221.9381   YY=           -381.5949   ZZ=           -471.5469
   XY=           -196.3444   XZ=           -435.8104   YZ=            -19.8823

 Normal termination of Gaussian 16 at Sun Feb 18 08:35:45 2024.

 ----------------------------------------------------------------------
 #P Geom=AllCheck Guess=TCheck SCRF=Check GenChk UB3LYP/6-311++G(d,p) F
 req
 ----------------------------------------------------------------------

 Structure from the checkpoint file:  "041-an.chk"
 -------
 Reduced
 -------
 Charge = -2 Multiplicity = 1

                          Input orientation:
 ---------------------------------------------------------------------
 Center     Atomic      Atomic             Coordinates (Angstroms)
 Number     Number       Type             X           Y           Z
 ---------------------------------------------------------------------
      1          6           0       16.726482    0.763111    4.101368
      2          6           0       16.114496    1.488699    3.045566
      3          6           0       16.761888    1.840727    1.854924
      4          6           0       18.128607    1.486589    1.628937
      5          6           0       18.758987    0.741733    2.677366
      6          6           0       18.089101    0.393056    3.871517
      7          8           0       16.068395    0.455872    5.209951
      8          8           0       18.761919    1.836593    0.521327
      9          6           0       18.815703   -0.389538    4.944005
     10          6           0       20.202271    0.325865    2.486034
     11          1           0       15.075224    1.780931    3.184057
     12          1           0       19.168071   -1.366517    4.585805
     13          1           0       18.142977   -0.559848    5.785667
     14          1           0       19.705335    0.135251    5.318159
     15          1           0       20.546648    0.648546    1.502983
     16          1           0       20.336469   -0.761473    2.559790
     17          1           0       20.868923    0.765722    3.240708
     18          6           0       16.051471    2.644233    0.771302
     19          6           0       14.549073    2.594920    0.799247
     20          6           0       13.667379    3.596096    0.947873
     21          6           0       12.177290    3.312769    0.920165
     22          6           0       11.475039    3.463808    2.294036
     23          6           0        9.988452    3.251949    2.202421
     24          6           0        9.242209    2.277232    2.744593
     25          6           0        7.744437    2.244863    2.511298
     26          6           0        7.258733    1.054787    1.645908
     27          6           0        5.782043    1.122381    1.365395
     28          6           0        4.817317    0.263463    1.729074
     29          6           0        3.376398    0.528558    1.339748
     30          6           0       14.045507    5.045451    1.143309
     31          6           0        9.785224    1.168140    3.613392
     32          6           0        5.051550   -0.994120    2.531488
     33          6           0        2.796714   -0.480968    0.317508
     34          6           0        1.344598   -0.219783    0.023571
     35          6           0        0.767785    0.109581   -1.142222
     36          6           0       -0.730387    0.328587   -1.214593
     37          6           0       -1.488608   -0.725518   -2.059993
     38          6           0       -2.980182   -0.539336   -1.993672
     39          6           0       -3.836568   -0.247977   -2.984646
     40          6           0       -5.317522   -0.106650   -2.693735
     41          6           0       -6.198550   -1.212142   -3.328108
     42          6           0       -7.639633   -1.098690   -2.910778
     43          6           0       -8.721508   -0.878460   -3.673259
     44          6           0      -10.096767   -0.804274   -3.039965
     45          6           0      -11.038165   -1.972586   -3.426312
     46          6           0      -12.347339   -1.915018   -2.687020
     47          6           0      -13.587803   -1.785058   -3.181734
     48          6           0        1.512509    0.289244   -2.443430
     49          6           0       -3.437046   -0.039661   -4.425804
     50          6           0       -8.687516   -0.689884   -5.171076
     51          6           0      -13.913599   -1.662465   -4.651070
     52          6           0      -14.780651   -1.752316   -2.246967
     53          6           0      -15.714803   -2.982885   -2.364065
     54          6           0      -16.818009   -2.957049   -1.341289
     55          6           0      -18.144732   -2.909180   -1.536186
     56          6           0      -18.808335   -2.867054   -2.891928
     57          6           0      -19.088346   -2.893058   -0.350027
     58          6           0      -19.960031   -4.166930   -0.212925
     59          6           0      -20.794810   -4.151039    1.038783
     60          6           0      -22.130808   -4.134272    1.155214
     61          6           0      -23.098821   -4.139071   -0.001759
     62          6           0      -22.788566   -4.111254    2.514579
     63          1           0       16.394693    2.253179   -0.195705
     64          1           0       16.407185    3.682122    0.786358
     65          1           0       14.132774    1.595048    0.669466
     66          1           0       12.005127    2.295781    0.554468
     67          1           0       11.689306    3.991513    0.207066
     68          1           0       11.660519    4.473963    2.678540
     69          1           0       11.937480    2.772269    3.001727
     70          1           0        9.466703    3.994956    1.597950
     71          1           0        7.431286    3.177784    2.031804
     72          1           0        7.226638    2.196996    3.478324
     73          1           0        7.526248    0.111526    2.124913
     74          1           0        7.804020    1.085199    0.693506
     75          1           0        5.473332    2.001920    0.799374
     76          1           0        3.289752    1.536047    0.921918
     77          1           0        2.749200    0.504095    2.241144
     78          1           0       15.123847    5.201842    1.163343
     79          1           0       13.635966    5.440572    2.079386
     80          1           0       13.629393    5.663275    0.337935
     81          1           0       10.851913    1.265196    3.812267
     82          1           0        9.622599    0.188542    3.151437
     83          1           0        9.261644    1.148364    4.576368
     84          1           0        6.073842   -1.080808    2.898488
     85          1           0        4.835588   -1.890086    1.939475
     86          1           0        4.378644   -1.022743    3.396048
     87          1           0        2.892721   -1.494582    0.725162
     88          1           0        3.403087   -0.454743   -0.590867
     89          1           0        0.690902   -0.305233    0.892346
     90          1           0       -0.933258    1.319150   -1.642559
     91          1           0       -1.145745    0.331108   -0.201837
     92          1           0       -1.236894   -1.719143   -1.666361
     93          1           0       -1.132931   -0.702641   -3.091488
     94          1           0       -3.400437   -0.650315   -0.993520
     95          1           0       -5.670322    0.865230   -3.063059
     96          1           0       -5.476387   -0.109687   -1.610729
     97          1           0       -5.808899   -2.184548   -2.999137
     98          1           0       -6.099023   -1.191096   -4.414697
     99          1           0       -7.803891   -1.203525   -1.837808
    100          1           0      -10.581834    0.136398   -3.331867
    101          1           0       -9.993886   -0.782003   -1.950424
    102          1           0      -10.529222   -2.912816   -3.176009
    103          1           0      -11.194629   -1.984131   -4.506289
    104          1           0      -12.251703   -1.980562   -1.602670
    105          1           0        2.594930    0.256214   -2.322526
    106          1           0        1.252098    1.250965   -2.899847
    107          1           0        1.236482   -0.484156   -3.168603
    108          1           0       -2.357179   -0.022941   -4.570621
    109          1           0       -3.842788    0.907786   -4.798261
    110          1           0       -3.845531   -0.827082   -5.068615
    111          1           0       -7.675536   -0.619211   -5.568931
    112          1           0       -9.224999    0.223453   -5.450173
    113          1           0       -9.189323   -1.515942   -5.686784
    114          1           0      -13.027631   -1.561004   -5.277258
    115          1           0      -14.553020   -0.789771   -4.825822
    116          1           0      -14.473014   -2.534289   -5.007513
    117          1           0      -15.375505   -0.851583   -2.447457
    118          1           0      -14.429584   -1.675511   -1.213030
    119          1           0      -15.106821   -3.883998   -2.209096
    120          1           0      -16.116459   -3.051684   -3.376450
    121          1           0      -16.470083   -2.970295   -0.307843
    122          1           0      -18.099072   -2.744079   -3.709967
    123          1           0      -19.524421   -2.038760   -2.937803
    124          1           0      -19.378911   -3.782501   -3.083037
    125          1           0      -19.759252   -2.027708   -0.430253
    126          1           0      -18.511444   -2.761461    0.570856
    127          1           0      -19.287636   -5.034330   -0.183002
    128          1           0      -20.583174   -4.287881   -1.100718
    129          1           0      -20.217152   -4.139686    1.963474
    130          1           0      -22.610150   -4.138814   -0.975633
    131          1           0      -23.755740   -3.262888    0.047715
    132          1           0      -23.751881   -5.018255    0.049471
    133          1           0      -22.053506   -4.109055    3.322157
    134          1           0      -23.442144   -4.981625    2.647652
    135          1           0      -23.424706   -3.225187    2.626397
 ---------------------------------------------------------------------

 SCF Done:  E(UB3LYP) =  -2219.00307810     A.U. after    2 cycles
