 Q-Chem 5.4, Q-Chem, Inc., Pleasanton, CA (2021)
 Q-Chem 5.4.0 for Intel X86 EM64T Linux

User input:
--------------------------------------------------------------
$molecule
-1 2
C                 -1.5659660000     -1.5467150000     -0.6388920000
C                 -1.1726870000     -0.1385550000     -0.1295840000
C                 -1.5563800000     -0.0031230000      1.3641990000
C                 -2.0008850000      0.8925350000     -0.9202580000
C                  0.3429290000      0.0757560000     -0.3021370000
C                  0.8487710000      1.0824070000     -1.0815740000
C                  2.2548030000      1.3525040000     -1.2967350000
O                  2.6473060000      2.2951380000     -2.0262360000
C                  3.1589890000      0.4482840000     -0.6030400000
C                  2.6855260000     -0.5710290000      0.1859350000
Cl                 3.7858490000     -1.6585820000      1.0201860000
C                  1.2625170000     -0.8318990000      0.3938160000
O                  0.8762460000     -1.7773350000      1.1254570000
Cl                 4.8780140000      0.7291410000     -0.8278730000
H                 -1.0285870000     -2.3177020000     -0.0881060000
H                 -2.6443710000     -1.7048850000     -0.5146010000
H                 -1.3300330000     -1.6476130000     -1.7033400000
H                 -1.0190160000     -0.7349020000      1.9660970000
H                 -2.6348290000     -0.1582100000      1.4919090000
H                 -1.3132030000      0.9992410000      1.7316670000
H                 -3.0665950000      0.6953790000     -0.7628960000
H                 -1.8063210000      0.8352570000     -1.9951340000
H                 -1.7992610000      1.9164590000     -0.5925230000
H                  0.1971830000      1.7684470000     -1.6079290000
$end
$rem
MAX_SCF_CYCLES=200
BASIS  =  6-311++G(d,p)
GUI  =  2
JOB_TYPE  =  SP
METHOD  =  B3LYP
SOLVENT_METHOD = COSMO
$end
$solvent
dielectric 37.219
opticaldielectric 1.43
$end

--------------------------------------------------------------

             Standard Nuclear Orientation (Angstroms)
    I     Atom           X                Y                Z
 ----------------------------------------------------------------
    1      C      -3.1652999930     0.6415709754     1.2649791954
    2      C      -2.7099125977    -0.1260613625    -0.0000664600
    3      C      -3.1653283355     0.6435600898    -1.2638817637
    4      C      -3.4247909669    -1.4910418727    -0.0010732519
    5      C      -1.1764009279    -0.2714489835    -0.0000786137
    6      C      -0.5642706224    -1.4970267609    -0.0000309067
    7      C       0.8660131524    -1.7216619147     0.0000093915
    8      O       1.3583187085    -2.8759688099     0.0000655633
    9      C       1.6701621380    -0.5093404671    -0.0000168360
   10      C       1.0889482825     0.7347809935     0.0000007450
   11      Cl      2.0689102077     2.1939354022    -0.0000054259
   12      C      -0.3572525922     0.9462645375     0.0001489948
   13      O      -0.8436480291     2.1046135970     0.0000875489
   14      Cl      3.4135353757    -0.7217721849    -0.0000635748
   15      H      -2.7101412017     1.6306612181     1.2980447081
   16      H      -4.2568903321     0.7504225868     1.2672603846
   17      H      -2.8784079693     0.0934315463     2.1683785892
   18      H      -2.7104405662     1.6328203953    -1.2952336529
   19      H      -4.2569497500     0.7520562818    -1.2661906832
   20      H      -2.8780782414     0.0970175763    -2.1681383851
   21      H      -4.5080776962    -1.3302285089    -0.0011980141
   22      H      -3.1757133757    -2.0834544107     0.8840832728
   23      H      -3.1753645491    -2.0823026027    -0.8868949251
   24      H      -1.1400818949    -2.4139284799    -0.0001061470
 ----------------------------------------------------------------

   10   -1458.1903984907      4.90e-06  Convergence criterion met
 Total energy in the final basis set =    -1458.1903984907
    4   -1458.2684560458      8.60e-06  Convergence criterion met
 Total energy in the final basis set =    -1458.2684560458

                    Orbital Energies (a.u.)
 --------------------------------------------------------------

 Alpha MOs
 -- Occupied --
********-101.5558 -19.0921 -19.0889 -10.2401 -10.2395 -10.2362 -10.2349
-10.1856 -10.1834 -10.1685 -10.1503 -10.1464 -10.1463  -9.4711  -9.4703
 -7.2354  -7.2347  -7.2265  -7.2256  -7.2255  -7.2244  -1.0199  -1.0168
 -0.8965  -0.8490  -0.8354  -0.7927  -0.7244  -0.6916  -0.6763  -0.6763
 -0.6069  -0.5846  -0.5331  -0.5045  -0.4797  -0.4578  -0.4459  -0.4414
 -0.4289  -0.4274  -0.4228  -0.4092  -0.4021  -0.3824  -0.3790  -0.3718
 -0.3623  -0.3529  -0.3427  -0.3356  -0.3272  -0.3271  -0.3216  -0.3054
 -0.2845  -0.2595  -0.2504  -0.2500  -0.1738

 Beta MOs
 -- Occupied --
********-101.5557 -19.0854 -19.0821 -10.2386 -10.2381 -10.2348 -10.2335
-10.1856 -10.1824 -10.1677 -10.1503 -10.1463 -10.1463  -9.4710  -9.4702
 -7.2354  -7.2347  -7.2262  -7.2255  -7.2254  -7.2244  -1.0084  -1.0050
 -0.8936  -0.8477  -0.8328  -0.7900  -0.7223  -0.6843  -0.6760  -0.6732
 -0.6033  -0.5806  -0.5312  -0.5025  -0.4765  -0.4559  -0.4442  -0.4335
 -0.4262  -0.4214  -0.4167  -0.4065  -0.3888  -0.3801  -0.3716  -0.3675
 -0.3583  -0.3461  -0.3417  -0.3293  -0.3263  -0.3233  -0.3211  -0.3050
 -0.2574  -0.2533  -0.2441  -0.2433

          Ground-State Mulliken Net Atomic Charges

     Atom                 Charge (a.u.)    Spin (a.u.)
  --------------------------------------------------------
      1 C                    -0.702420       0.010123
      2 C                     0.451090      -0.024783
      3 C                    -0.701515       0.010124
      4 C                    -0.508040       0.001552
      5 C                     0.703915       0.106719
      6 C                    -0.407566       0.047136
      7 C                    -0.847687       0.100391
      8 O                    -0.464403       0.235488
      9 C                     0.750287       0.094311
     10 C                    -0.071755       0.060561
     11 Cl                    0.359268       0.005907
     12 C                    -1.153367       0.104233
     13 O                    -0.388082       0.248968
     14 Cl                    0.328636       0.007138
     15 H                     0.180664      -0.001263
     16 H                     0.160256       0.000327
     17 H                     0.142733       0.000288
     18 H                     0.180608      -0.001266
     19 H                     0.160128       0.000320
     20 H                     0.142629       0.000295
     21 H                     0.181852       0.000086
     22 H                     0.141180      -0.000213
     23 H                     0.141338      -0.000213
     24 H                     0.220252      -0.006231
  --------------------------------------------------------
  Sum of atomic charges =    -1.000000

                    Cartesian Multipole Moments
 -----------------------------------------------------------------
    Charge (ESU x 10^10)
                -4.8032
    Dipole Moment (Debye)
         X      -5.5282      Y       0.9043      Z      -0.0011
       Tot       5.6017
    Quadrupole Moments (Debye-Ang)
        XX    -113.8554     XY      14.2661     YY    -136.1554
        XZ       0.0005     YZ      -0.0012     ZZ    -101.2185

 Total job time:  55.47s(wall), 421.14s(cpu)
        *  Thank you very much for using Q-Chem.  Have a nice day.  *
