 Q-Chem 5.4, Q-Chem, Inc., Pleasanton, CA (2021)
 Q-Chem 5.4.0 for Intel X86 EM64T Linux

User input:
--------------------------------------------------------------
$molecule
-1 2
N                 -4.5278940000     -0.9334030000     -0.7758020000
C                 -3.2440470000     -0.6647050000     -0.2384180000
C                 -3.0494330000     -0.7365530000      1.1632230000
C                 -1.7969290000     -0.5222910000      1.6981900000
C                 -0.6811770000     -0.2376070000      0.8836710000
C                  0.6253570000     -0.0180710000      1.5047030000
O                  0.7914630000     -0.0754120000      2.7481120000
C                  1.7294710000      0.2740560000      0.5861980000
C                  3.0210440000      0.4967860000      1.1101490000
C                  4.0923940000      0.7766820000      0.2848600000
C                  3.9015310000      0.8438540000     -1.1138640000
C                  2.6480070000      0.6301450000     -1.6501060000
C                  1.5355540000      0.3416800000     -0.8262470000
C                  0.2283530000      0.1237070000     -1.4424650000
O                  0.0562360000      0.1877520000     -2.6893580000
C                 -0.8730280000     -0.1722000000     -0.5262500000
C                 -2.1639590000     -0.3878420000     -1.0558340000
H                 -5.2834190000     -0.6085250000     -0.1860660000
H                 -4.6419490000     -0.5776030000     -1.7159200000
H                 -3.8920560000     -0.9686750000      1.8096490000
H                 -1.6321000000     -0.5698200000      2.7687270000
H                  3.1360680000      0.4388660000      2.1866560000
H                  5.0786550000      0.9447620000      0.7075440000
H                  4.7423810000      1.0636880000     -1.7656160000
H                  2.4744260000      0.6758890000     -2.7191870000
H                 -2.2749490000     -0.3251580000     -2.1338750000
$end
$rem
MAX_SCF_CYCLES=200
BASIS  =  6-311++G(d,p)
GUI  =  2
JOB_TYPE  =  SP
METHOD  =  B3LYP
SOLVENT_METHOD = COSMO
$end
$solvent
dielectric 37.219
opticaldielectric 1.43
$end

--------------------------------------------------------------

             Standard Nuclear Orientation (Angstroms)
    I     Atom           X                Y                Z
 ----------------------------------------------------------------
    1      N       4.6791715395    -0.8304459702    -0.0619713395
    2      C       3.3780152002    -0.2705842073    -0.0091481910
    3      C       3.2280825286     1.1383685261    -0.0117223257
    4      C       1.9683271145     1.6985916626    -0.0061996680
    5      C       0.8030605566     0.9038954134    -0.0068532598
    6      C      -0.5090569712     1.5513609041    -0.0002256668
    7      O      -0.6369150968     2.8005886293     0.0050207578
    8      C      -1.6663611909     0.6520816539     0.0008314592
    9      C      -2.9662906345     1.2020352118     0.0061833975
   10      C      -4.0872952739     0.3954517968     0.0086973444
   11      C      -3.9400627069    -1.0101391324     0.0061870347
   12      C      -2.6794406784    -1.5717063451     0.0013080172
   13      C      -1.5164852329    -0.7673226577    -0.0016753212
   14      C      -0.2039301866    -1.4101207132    -0.0062815086
   15      O      -0.0715669720    -2.6634934556    -0.0040622115
   16      C       0.9513961733    -0.5127678370    -0.0117407867
   17      C       2.2491927616    -1.0688132374    -0.0107112691
   18      H       5.3669743798    -0.2905724413     0.4475540436
   19      H       4.7029841785    -1.7965020601     0.2373489342
   20      H       4.1120688971     1.7709313521    -0.0256179349
   21      H       1.8364974790     2.7747393177    -0.0041392856
   22      H      -3.0471398221     2.2831974173     0.0082479393
   23      H      -5.0791135517     0.8380636048     0.0125316056
   24      H      -4.8199917714    -1.6472089049     0.0080107565
   25      H      -2.5386528116    -2.6465700027    -0.0006809066
   26      H       2.3251200388    -2.1517041132    -0.0090196817
 ----------------------------------------------------------------

   10    -744.3934489139      9.45e-06  Convergence criterion met
 Total energy in the final basis set =     -744.3934489139
    5    -744.4839836101      6.34e-06  Convergence criterion met
 Total energy in the final basis set =     -744.4839836101

                    Orbital Energies (a.u.)
 --------------------------------------------------------------

 Alpha MOs
 -- Occupied --
-19.0780 -19.0765 -14.3148 -10.2267 -10.2221 -10.2137 -10.1738 -10.1721
-10.1716 -10.1714 -10.1709 -10.1701 -10.1696 -10.1686 -10.1680 -10.1669
-10.1619  -1.0054  -1.0014  -0.9149  -0.8575  -0.8407  -0.7779  -0.7506
 -0.7472  -0.7289  -0.6655  -0.6377  -0.6131  -0.5906  -0.5572  -0.5357
 -0.5282  -0.4995  -0.4787  -0.4674  -0.4561  -0.4426  -0.4250  -0.4236
 -0.4212  -0.4179  -0.4094  -0.4009  -0.3877  -0.3826  -0.3775  -0.3521
 -0.3490  -0.3447  -0.3328  -0.3074  -0.2651  -0.2573  -0.2536  -0.2492
 -0.2395  -0.2199  -0.1412

 Beta MOs
 -- Occupied --
-19.0732 -19.0708 -14.3147 -10.2250 -10.2199 -10.2134 -10.1731 -10.1717
-10.1714 -10.1706 -10.1704 -10.1694 -10.1693 -10.1687 -10.1678 -10.1665
-10.1614  -0.9969  -0.9913  -0.9143  -0.8549  -0.8395  -0.7742  -0.7477
 -0.7457  -0.7272  -0.6579  -0.6361  -0.6106  -0.5899  -0.5547  -0.5333
 -0.5271  -0.4988  -0.4765  -0.4650  -0.4550  -0.4417  -0.4243  -0.4205
 -0.4141  -0.4110  -0.4064  -0.3989  -0.3855  -0.3746  -0.3594  -0.3502
 -0.3441  -0.3413  -0.3313  -0.2994  -0.2535  -0.2469  -0.2454  -0.2444
 -0.2346  -0.2139

          Ground-State Mulliken Net Atomic Charges

     Atom                 Charge (a.u.)    Spin (a.u.)
  --------------------------------------------------------
      1 N                    -0.402974       0.007882
      2 C                    -0.493381       0.018878
      3 C                    -0.169286       0.022560
      4 C                     0.118292       0.019907
      5 C                     0.132593       0.005207
      6 C                    -0.514961       0.096212
      7 O                    -0.499720       0.174711
      8 C                     0.105577       0.046191
      9 C                     0.101283       0.014318
     10 C                    -0.488679       0.057428
     11 C                    -0.467341       0.025982
     12 C                     0.067422       0.044423
     13 C                     0.255723       0.027213
     14 C                    -0.622800       0.136424
     15 O                    -0.507314       0.210194
     16 C                     0.519686       0.043481
     17 C                    -0.023616       0.065504
     18 H                     0.281848       0.000528
     19 H                     0.289614      -0.000168
     20 H                     0.217260      -0.002157
     21 H                     0.180625      -0.000961
     22 H                     0.177522      -0.000364
     23 H                     0.199712      -0.004341
     24 H                     0.201408      -0.002429
     25 H                     0.175253      -0.002362
     26 H                     0.166254      -0.004261
  --------------------------------------------------------
  Sum of atomic charges =    -1.000000

                    Cartesian Multipole Moments
 -----------------------------------------------------------------
    Charge (ESU x 10^10)
                -4.8032
    Dipole Moment (Debye)
         X       3.5613      Y      -0.5853      Z       1.5434
       Tot       3.9252
    Quadrupole Moments (Debye-Ang)
        XX     -85.8335     XY       2.6365     YY    -134.0123
        XZ       8.1973     YZ      -1.4070     ZZ    -106.7678

 Total job time:  82.97s(wall), 631.75s(cpu)
        *  Thank you very much for using Q-Chem.  Have a nice day.  *
