 Gaussian 16, Revision A.03,
 Gaussian 16:  ES64L-G16RevA.03 25-Dec-2016

 ----------------------------------------------------------------------
 #P UB3LYP/6-311++G(d,p) nosym opt freq SCRF=(PCM,Solvent=n,n-DiMethylF
 ormamide)
 ----------------------------------------------------------------------

 --------
 Oxidized
 --------
 Symbolic Z-matrix:
 Charge =  0 Multiplicity = 1

 SCF Done:  E(UB3LYP) =  -696.166549251     A.U. after   13 cycles
 SCF Done:  E(UB3LYP) =  -696.166570852     A.U. after   10 cycles
 SCF Done:  E(UB3LYP) =  -696.166615196     A.U. after   10 cycles
 SCF Done:  E(UB3LYP) =  -696.166597707     A.U. after    9 cycles
 SCF Done:  E(UB3LYP) =  -696.166594526     A.U. after    9 cycles
 SCF Done:  E(UB3LYP) =  -696.166596721     A.U. after    9 cycles
 SCF Done:  E(UB3LYP) =  -696.166598307     A.U. after    8 cycles
 SCF Done:  E(UB3LYP) =  -696.166598264     A.U. after    8 cycles
 Optimization completed.
    -- Stationary point found.
 Normal termination of Gaussian 16 at Sat Feb 10 10:56:12 2024.

 ----------------------------------------------------------------------
 #P Geom=AllCheck Guess=TCheck SCRF=Check GenChk UB3LYP/6-311++G(d,p) F
 req
 ----------------------------------------------------------------------

 Structure from the checkpoint file:  "045.chk"
 --------
 Oxidized
 --------
 Charge =  0 Multiplicity = 1

                          Input orientation:
 ---------------------------------------------------------------------
 Center     Atomic      Atomic             Coordinates (Angstroms)
 Number     Number       Type             X           Y           Z
 ---------------------------------------------------------------------
      1          6           0       -1.433551    2.138036    0.034444
      2          6           0       -2.751228    1.461958    0.031901
      3          6           0       -2.936089    0.129263    0.033697
      4          6           0       -1.688809   -0.706423    0.038548
      5          6           0       -0.371132   -0.030346    0.040683
      6          6           0       -0.186270    1.302349    0.038941
      7          8           0       -1.405540    3.363540    0.031721
      8          8           0       -1.716820   -1.931929    0.040398
      9          6           0        1.192288    1.967067    0.041219
     10          6           0        1.353245    2.840042   -1.228742
     11          6           0        1.347664    2.843048    1.309802
     12          6           0        2.320366    0.918741    0.044939
     13          6           0       -4.314646   -0.535450    0.030981
     14          6           0       -5.442707    0.512885    0.025475
     15          6           0       -4.476613   -1.407310    1.301584
     16          6           0       -4.469024   -1.412541   -1.236954
     17          1           0       -3.582148    2.155603    0.028368
     18          1           0        0.459788   -0.723993    0.043921
     19          1           0        1.249154    2.233089   -2.132757
     20          1           0        2.352226    3.285152   -1.236227
     21          1           0        0.618586    3.643332   -1.262083
     22          1           0        0.613065    3.646584    1.337844
     23          1           0        2.346710    3.287934    1.320779
     24          1           0        1.239298    2.238299    2.214793
     25          1           0        3.284064    1.433544    0.046567
     26          1           0        2.284340    0.281524    0.932752
     27          1           0        2.288397    0.279566   -0.841622
     28          1           0       -5.406062    1.149252   -0.862923
     29          1           0       -5.411340    1.152909    0.911445
     30          1           0       -6.406410   -0.001908    0.023672
     31          1           0       -4.373126   -0.799578    2.205147
     32          1           0       -3.742063   -2.210640    1.336164
     33          1           0       -5.475647   -1.852308    1.308728
     34          1           0       -4.360044   -0.808572   -2.142392
     35          1           0       -5.468021   -1.857527   -1.248274
     36          1           0       -3.734333   -2.216041   -1.263758
 ---------------------------------------------------------------------

 SCF Done:  E(UB3LYP) =  -696.166598264     A.U. after    1 cycles

 Alpha  occ. eigenvalues --  -19.13836 -19.13836 -10.28476 -10.28475 -10.21554
 Alpha  occ. eigenvalues --  -10.21553 -10.20385 -10.20385 -10.20096 -10.20095
 Alpha  occ. eigenvalues --  -10.16254 -10.16254 -10.16066 -10.16066 -10.16064
 Alpha  occ. eigenvalues --  -10.16063  -1.06919  -1.06732  -0.87152  -0.84617
 Alpha  occ. eigenvalues --   -0.80928  -0.76478  -0.70591  -0.69478  -0.69063
 Alpha  occ. eigenvalues --   -0.69057  -0.68783  -0.64301  -0.60896  -0.56822
 Alpha  occ. eigenvalues --   -0.54612  -0.52440  -0.49597  -0.48018  -0.47533
 Alpha  occ. eigenvalues --   -0.45775  -0.45246  -0.44610  -0.44183  -0.44007
 Alpha  occ. eigenvalues --   -0.43922  -0.42813  -0.42533  -0.39746  -0.38964
 Alpha  occ. eigenvalues --   -0.38860  -0.38765  -0.38252  -0.37048  -0.36976
 Alpha  occ. eigenvalues --   -0.36086  -0.35675  -0.34477  -0.34334  -0.34236
 Alpha  occ. eigenvalues --   -0.33563  -0.30170  -0.28455  -0.28224  -0.27129
 Alpha virt. eigenvalues --   -0.13159  -0.02370  -0.00891  -0.00582  -0.00040
 Alpha virt. eigenvalues --    0.01017   0.01626   0.01839   0.02198   0.02392
 Alpha virt. eigenvalues --    0.03298   0.03458   0.03485   0.04208   0.04726

  Beta  occ. eigenvalues --  -19.13836 -19.13836 -10.28476 -10.28475 -10.21554
  Beta  occ. eigenvalues --  -10.21553 -10.20385 -10.20385 -10.20096 -10.20095
  Beta  occ. eigenvalues --  -10.16254 -10.16254 -10.16066 -10.16066 -10.16064
  Beta  occ. eigenvalues --  -10.16063  -1.06919  -1.06732  -0.87152  -0.84617
  Beta  occ. eigenvalues --   -0.80928  -0.76478  -0.70591  -0.69478  -0.69063
  Beta  occ. eigenvalues --   -0.69057  -0.68783  -0.64301  -0.60896  -0.56822
  Beta  occ. eigenvalues --   -0.54612  -0.52440  -0.49597  -0.48018  -0.47533
  Beta  occ. eigenvalues --   -0.45775  -0.45246  -0.44610  -0.44183  -0.44007
  Beta  occ. eigenvalues --   -0.43922  -0.42813  -0.42533  -0.39746  -0.38964
  Beta  occ. eigenvalues --   -0.38860  -0.38765  -0.38252  -0.37048  -0.36976
  Beta  occ. eigenvalues --   -0.36086  -0.35675  -0.34477  -0.34334  -0.34236
  Beta  occ. eigenvalues --   -0.33563  -0.30170  -0.28455  -0.28224  -0.27129
  Beta virt. eigenvalues --   -0.13159  -0.02370  -0.00891  -0.00582  -0.00040
  Beta virt. eigenvalues --    0.01017   0.01626   0.01839   0.02198   0.02392
  Beta virt. eigenvalues --    0.03298   0.03458   0.03485   0.04208   0.04726

 Mulliken charges and spin densities:
               1          2
     1  C   -0.938156  -0.000000
     2  C   -0.383404   0.000000
     3  C    1.257101   0.000000
     4  C   -0.938153  -0.000000
     5  C   -0.383404   0.000000
     6  C    1.257107   0.000000
     7  O   -0.246216  -0.000000
     8  O   -0.246218   0.000000
     9  C    0.529938  -0.000000
    10  C   -0.690313   0.000000
    11  C   -0.690515   0.000000
    12  C   -0.534298  -0.000000
    13  C    0.529941   0.000000
    14  C   -0.534301  -0.000000
    15  C   -0.690470  -0.000000
    16  C   -0.690361   0.000000
    17  H    0.242536   0.000000
    18  H    0.242535   0.000000
    19  H    0.149260   0.000000
    20  H    0.165927  -0.000000
    21  H    0.176334  -0.000000
    22  H    0.176394  -0.000000
    23  H    0.165968  -0.000000
    24  H    0.149272   0.000000
    25  H    0.183549  -0.000000
    26  H    0.143281   0.000000
    27  H    0.143338   0.000000
    28  H    0.143334   0.000000
    29  H    0.143286   0.000000
    30  H    0.183550  -0.000000
    31  H    0.149270   0.000000
    32  H    0.176382  -0.000000
    33  H    0.165960   0.000000
    34  H    0.149262   0.000000
    35  H    0.165938   0.000000
    36  H    0.176347  -0.000000
 Sum of Mulliken charges =  -0.00000  -0.00000

 Dipole moment (field-independent basis, Debye):
    X=             -0.0000    Y=              0.0000    Z=              0.0016  Tot=              0.0016
 Quadrupole moment (field-independent basis, Debye-Ang):
   XX=            -85.3906   YY=           -118.3477   ZZ=            -98.9477
   XY=              2.2405   XZ=              0.0302   YZ=              0.0432

  Exact polarizability: 236.048  28.656 295.986   0.108  -0.137 176.132
 Approx polarizability: 232.898  25.146 381.268   0.062  -0.268 192.784

                      1                      2                      3
                      A                      A                      A
 Frequencies --     32.0794                56.4150                85.7600
 Red. masses --      4.0833                 3.0240                 4.0804
 Frc consts  --      0.0025                 0.0057                 0.0177
 IR Inten    --      4.7099                 0.0488                 0.0000

                      4                      5                      6
                      A                      A                      A
 Frequencies --    128.2460               138.8583               154.4105
 Red. masses --      3.3411                 4.4641                 3.5940
 Frc consts  --      0.0324                 0.0507                 0.0505
 IR Inten    --      0.0000                12.3709                 1.1341

                      7                      8                      9
                      A                      A                      A
 Frequencies --    202.6292               215.4226               220.1027
 Red. masses --      1.4256                 1.1660                 3.6724
 Frc consts  --      0.0345                 0.0319                 0.1048
 IR Inten    --      0.0000                 1.7928                 0.0003

                     10                     11                     12
                      A                      A                      A
 Frequencies --    237.5831               247.8594               252.1410
 Red. masses --      1.7825                 1.0597                 1.6888
 Frc consts  --      0.0593                 0.0384                 0.0633
 IR Inten    --      0.0000                 0.3664                 0.0000

                     13                     14                     15
                      A                      A                      A
 Frequencies --    253.6941               283.6355               299.1751
 Red. masses --      1.9804                 2.6377                 2.6709
 Frc consts  --      0.0751                 0.1250                 0.1408
 IR Inten    --      0.0000                 0.0130                 0.1289

                     16                     17                     18
                      A                      A                      A
 Frequencies --    313.9819               329.7244               332.0365
 Red. masses --      2.6528                 1.0554                 1.0537
 Frc consts  --      0.1541                 0.0676                 0.0684
 IR Inten    --      0.0000                 0.0578                 0.0000

                     19                     20                     21
                      A                      A                      A
 Frequencies --    345.5216               375.7535               384.6124
 Red. masses --      4.5911                 2.2359                 2.2106
 Frc consts  --      0.3229                 0.1860                 0.1927
 IR Inten    --     15.9358                 0.0000                 0.6812

                     22                     23                     24
                      A                      A                      A
 Frequencies --    403.1361               417.9908               465.2134
 Red. masses --      2.6795                 2.7007                 6.1034
 Frc consts  --      0.2566                 0.2780                 0.7783
 IR Inten    --      0.0000                 2.2703                 0.0000

                     25                     26                     27
                      A                      A                      A
 Frequencies --    474.2993               474.7140               513.3995
 Red. masses --      2.9818                 3.5924                 3.5413
 Frc consts  --      0.3952                 0.4770                 0.5500
 IR Inten    --      0.1054                31.7671                 0.0000

                     28                     29                     30
                      A                      A                      A
 Frequencies --    532.0403               625.6901               627.7432
 Red. masses --      5.0054                 3.8287                 4.8862
 Frc consts  --      0.8348                 0.8831                 1.1345
 IR Inten    --      0.0001                14.4766                 0.0000

                     31                     32                     33
                      A                      A                      A
 Frequencies --    690.8910               756.2727               799.6612
 Red. masses --      5.4237                 6.3480                 3.2760
 Frc consts  --      1.5253                 2.1392                 1.2342
 IR Inten    --      0.0000                12.9992                 0.0000

                     34                     35                     36
                      A                      A                      A
 Frequencies --    805.9664               807.3708               848.9621
 Red. masses --      3.2421                 3.8850                 2.7283
 Frc consts  --      1.2408                 1.4921                 1.1586
 IR Inten    --      0.0000                 0.3825                35.5459

                     37                     38                     39
                      A                      A                      A
 Frequencies --    903.8949               928.8109               934.4729
 Red. masses --      1.7703                 1.8594                 1.6587
 Frc consts  --      0.8522                 0.9451                 0.8534
 IR Inten    --      0.0000                 2.3041                 0.0000

                     40                     41                     42
                      A                      A                      A
 Frequencies --    935.9229               936.9250               948.7735
 Red. masses --      1.7635                 1.7344                 1.4831
 Frc consts  --      0.9101                 0.8970                 0.7866
 IR Inten    --      3.8760                 0.0000                68.2755

                     43                     44                     45
                      A                      A                      A
 Frequencies --    964.2024               964.2373               979.8778
 Red. masses --      1.1975                 1.1978                 3.4229
 Frc consts  --      0.6559                 0.6561                 1.9364
 IR Inten    --      0.0000                 0.0026                 0.0000

                     46                     47                     48
                      A                      A                      A
 Frequencies --   1031.8628              1045.6304              1046.2465
 Red. masses --      1.7505                 1.3863                 1.3860
 Frc consts  --      1.0982                 0.8930                 0.8939
 IR Inten    --    101.9657                 0.0000                 0.1377

                     49                     50                     51
                      A                      A                      A
 Frequencies --   1047.4015              1084.6455              1198.0833
 Red. masses --      1.3911                 2.1300                 2.6651
 Frc consts  --      0.8992                 1.4764                 2.2539
 IR Inten    --      0.0000               114.6421               105.9873

                     52                     53                     54
                      A                      A                      A
 Frequencies --   1213.7467              1214.1281              1222.7558
 Red. masses --      2.6866                 2.7069                 2.7648
 Frc consts  --      2.3319                 2.3510                 2.4356
 IR Inten    --      0.0000                11.9062                 0.0000

                     55                     56                     57
                      A                      A                      A
 Frequencies --   1237.9025              1258.2304              1271.6465
 Red. masses --      2.2707                 4.5921                 2.5229
 Frc consts  --      2.0501                 4.2834                 2.4037
 IR Inten    --      0.0000               112.8155                56.7370

                     58                     59                     60
                      A                      A                      A
 Frequencies --   1273.1131              1356.3902              1364.1584
 Red. masses --      1.8291                 2.7321                 1.8019
 Frc consts  --      1.7467                 2.9616                 1.9756
 IR Inten    --      0.0000                 0.0000                61.7342

                     61                     62                     63
                      A                      A                      A
 Frequencies --   1386.8301              1386.8559              1394.1506
 Red. masses --      1.1973                 1.1973                 1.2616
 Frc consts  --      1.3567                 1.3568                 1.4447
 IR Inten    --      0.0311                19.4400                 0.0230

                     64                     65                     66
                      A                      A                      A
 Frequencies --   1394.2036              1420.3456              1420.5200
 Red. masses --      1.2374                 1.2181                 1.2232
 Frc consts  --      1.4172                 1.4479                 1.4543
 IR Inten    --     41.2864                10.6223                 0.0000

                     67                     68                     69
                      A                      A                      A
 Frequencies --   1474.8991              1474.9150              1489.0825
 Red. masses --      1.0462                 1.0462                 1.0465
 Frc consts  --      1.3409                 1.3410                 1.3672
 IR Inten    --      0.0001                 0.0754                 0.1866

                     70                     71                     72
                      A                      A                      A
 Frequencies --   1489.0993              1489.2293              1489.2413
 Red. masses --      1.0499                 1.0447                 1.0448
 Frc consts  --      1.3716                 1.3652                 1.3652
 IR Inten    --      4.7057                 0.0439                 0.3178

                     73                     74                     75
                      A                      A                      A
 Frequencies --   1491.3183              1491.3327              1502.6581
 Red. masses --      1.0559                 1.0526                 1.0486
 Frc consts  --      1.3836                 1.3793                 1.3950
 IR Inten    --      0.8007                50.6507                 0.0114

                     76                     77                     78
                      A                      A                      A
 Frequencies --   1502.6997              1516.7630              1516.9807
 Red. masses --      1.0486                 1.0618                 1.0609
 Frc consts  --      1.3950                 1.4392                 1.4385
 IR Inten    --     26.5191                52.0685                 0.0005

                     79                     80                     81
                      A                      A                      A
 Frequencies --   1638.6065              1667.6961              1678.8546
 Red. masses --      7.9932                11.0528                11.5936
 Frc consts  --     12.6450                18.1115                19.2528
 IR Inten    --    207.2742                 0.0000              1100.1305

                     82                     83                     84
                      A                      A                      A
 Frequencies --   1698.1673              3023.9104              3023.9150
 Red. masses --      8.3366                 1.0354                 1.0355
 Frc consts  --     14.1644                 5.5784                 5.5786
 IR Inten    --      0.0000                 7.8575                45.1087

                     85                     86                     87
                      A                      A                      A
 Frequencies --   3025.4732              3025.4959              3031.5140
 Red. masses --      1.0374                 1.0374                 1.0380
 Frc consts  --      5.5948                 5.5949                 5.6204
 IR Inten    --      0.2394               125.6176                80.5303

                     88                     89                     90
                      A                      A                      A
 Frequencies --   3031.7621              3083.7418              3083.7685
 Red. masses --      1.0380                 1.1026                 1.1026
 Frc consts  --      5.6214                 6.1776                 6.1778
 IR Inten    --      0.0004                 0.0124                30.5282

                     91                     92                     93
                      A                      A                      A
 Frequencies --   3084.8544              3084.8721              3091.0706
 Red. masses --      1.1020                 1.1020                 1.1025
 Frc consts  --      6.1789                 6.1789                 6.2063
 IR Inten    --     77.5500                 0.0711                 2.0403

                     94                     95                     96
                      A                      A                      A
 Frequencies --   3091.0900              3095.3506              3095.4475
 Red. masses --      1.1025                 1.1011                 1.1010
 Frc consts  --      6.2064                 6.2159                 6.2158
 IR Inten    --    111.7866               163.3923                 0.0087

                     97                     98                     99
                      A                      A                      A
 Frequencies --   3129.1955              3129.2114              3131.4165
 Red. masses --      1.0989                 1.0989                 1.0983
 Frc consts  --      6.3397                 6.3398                 6.3453
 IR Inten    --      0.0053                 0.1509                 1.2533

                    100                    101                    102
                      A                      A                      A
 Frequencies --   3131.4345              3202.1643              3203.9361
 Red. masses --      1.0983                 1.0902                 1.0906
 Frc consts  --      6.3453                 6.5863                 6.5960
 IR Inten    --     75.5982                 6.3459                 0.0000

 - Thermochemistry -
 -------------------
 Temperature   298.150 Kelvin.  Pressure   1.00000 Atm.
 Atom     1 has atomic number  6 and mass  12.00000

 Molecular mass:   220.14633 amu.
 Principal axes and moments of inertia in atomic units:
                           1         2         3
     Eigenvalues --  1680.669925858.016396731.94432
           X            0.87765  -0.47930  -0.00266
           Y            0.47930   0.87765   0.00176
           Z            0.00149  -0.00282   0.99999
 This molecule is an asymmetric top.
 Rotational symmetry number  1.
 Warning -- assumption of classical behavior for rotation
           may cause significant error
 Rotational temperatures (Kelvin)      0.05154     0.01479     0.01287
 Rotational constants (GHZ):           1.07382     0.30808     0.26809
 Zero-point vibrational energy     809334.3 (Joules/Mol)
                                  193.43554 (Kcal/Mol)
 Warning -- explicit consideration of  28 degrees of freedom as
           vibrations may cause significant error
 Vibrational temperatures:     46.16    81.17   123.39   184.52   199.79
          (Kelvin)            222.16   291.54   309.95   316.68   341.83
                              356.61   362.77   365.01   408.09   430.45
                              451.75   474.40   477.73   497.13   540.63
                              553.37   580.02   601.40   669.34   682.41
                              683.01   738.67   765.49   900.23   903.18
                              994.04  1088.11  1150.53  1159.61  1161.63
                             1221.47  1300.50  1336.35  1344.50  1346.58
                             1348.03  1365.07  1387.27  1387.32  1409.83
                             1484.62  1504.43  1505.32  1506.98  1560.56
                             1723.77  1746.31  1746.86  1759.27  1781.07
                             1810.31  1829.62  1831.73  1951.54  1962.72
                             1995.34  1995.38  2005.87  2005.95  2043.56
                             2043.81  2122.05  2122.07  2142.46  2142.48
                             2142.67  2142.69  2145.67  2145.70  2161.99
                             2162.05  2182.28  2182.60  2357.59  2399.44
                             2415.50  2443.28  4350.73  4350.74  4352.98
                             4353.01  4361.67  4362.03  4436.82  4436.86
                             4438.42  4438.44  4447.36  4447.39  4453.52
                             4453.66  4502.21  4502.24  4505.41  4505.44
                             4607.20  4609.75

 Zero-point correction=                           0.308259 (Hartree/Particle)
 Thermal correction to Energy=                    0.325529
 Thermal correction to Enthalpy=                  0.326473
 Thermal correction to Gibbs Free Energy=         0.264881
 Sum of electronic and zero-point Energies=           -695.858339
 Sum of electronic and thermal Energies=              -695.841069
 Sum of electronic and thermal Enthalpies=            -695.840125
 Sum of electronic and thermal Free Energies=         -695.901717

                     E (Thermal)             CV                S
                      KCal/Mol        Cal/Mol-Kelvin    Cal/Mol-Kelvin
 Total                  204.272             67.309            129.631
 Electronic               0.000              0.000              0.000
 Translational            0.889              2.981             42.070
 Rotational               0.889              2.981             32.561
 Vibrational            202.495             61.347             55.000
 Vibration     1          0.594              1.983              5.696
 Vibration     2          0.596              1.975              4.579
 Vibration     3          0.601              1.959              3.755
 Vibration     4          0.611              1.925              2.972
 Vibration     5          0.614              1.914              2.820
 Vibration     6          0.620              1.898              2.617
 Vibration     7          0.639              1.836              2.109
 Vibration     8          0.645              1.818              1.997
 Vibration     9          0.647              1.810              1.958
 Vibration    10          0.656              1.783              1.821
 Vibration    11          0.661              1.766              1.746
 Vibration    12          0.664              1.759              1.716
 Vibration    13          0.665              1.757              1.705
 Vibration    14          0.682              1.704              1.512
 Vibration    15          0.692              1.675              1.422
 Vibration    16          0.702              1.647              1.341
 Vibration    17          0.713              1.616              1.261
 Vibration    18          0.714              1.612              1.250
 Vibration    19          0.724              1.584              1.187
 Vibration    20          0.747              1.522              1.056
 Vibration    21          0.754              1.503              1.021
 Vibration    22          0.769              1.463              0.951
 Vibration    23          0.781              1.431              0.899
 Vibration    24          0.823              1.327              0.751
 Vibration    25          0.831              1.307              0.726
 Vibration    26          0.831              1.306              0.724
 Vibration    27          0.868              1.220              0.625
 Vibration    28          0.887              1.179              0.583

                           ! Non-Optimized Parameters !
 Normal termination of Gaussian 16 at Sat Feb 10 12:26:44 2024.
