 Q-Chem 5.4, Q-Chem, Inc., Pleasanton, CA (2021)
 Q-Chem 5.4.0 for Intel X86 EM64T Linux

User input:
--------------------------------------------------------------
$molecule
0 1
Br                -1.6035740000      2.5479510000      1.3449810000
C                 -0.7747680000      1.0562010000      0.5049100000
C                 -1.4771220000      0.0518120000     -0.0572180000
C                 -0.7262620000     -1.0400130000     -0.7750530000
O                 -1.3269220000     -1.9461160000     -1.3106010000
C                  0.7692750000     -0.9700100000     -0.8080620000
C                  1.4734110000      0.0063010000     -0.2005050000
C                  0.7218020000      1.1103830000      0.4975010000
O                  1.3225150000      2.0157900000      1.0341660000
C                  2.9547030000      0.0939180000     -0.1584770000
C                  3.6171320000      1.1924880000     -0.7190060000
C                  5.0058130000      1.2710280000     -0.6769350000
C                  5.7461660000      0.2687620000     -0.0523950000
C                  5.0916870000     -0.8175980000      0.5254680000
C                  3.7041550000     -0.9086350000      0.4677080000
Br                 1.5914560000     -2.3589840000     -1.8143010000
C                 -2.9558120000     -0.0769770000     -0.0331360000
C                 -3.6866730000     -0.0913820000     -1.2270810000
C                 -5.0725490000     -0.2137500000     -1.2002490000
C                 -5.7409900000     -0.3496650000      0.0152440000
C                 -5.0175150000     -0.3562780000      1.2064560000
C                 -3.6332300000     -0.2144160000      1.1838570000
H                  3.0472600000      1.9831010000     -1.1913940000
H                  5.5084180000      2.1207760000     -1.1243910000
H                  6.8273940000      0.3363740000     -0.0121450000
H                  5.6603760000     -1.5961990000      1.0208360000
H                  3.2000230000     -1.7561030000      0.9166920000
H                 -3.1723080000     -0.0028790000     -2.1760700000
H                 -5.6289000000     -0.2122890000     -2.1305000000
H                 -6.8198320000     -0.4545940000      0.0337240000
H                 -5.5298000000     -0.4706670000      2.1548710000
H                 -3.0753260000     -0.2183310000      2.1126530000
$end

$rem
BASIS  =  6-311++G(d,p)
GUI  =  2
JOB_TYPE  =  SP
METHOD  =  B3LYP
SCF_CONVERGENCE  = 8
SOLVENT_METHOD = sm12
$end

$smx
solvent dimethylformamide
charges CM5
$end

--------------------------------------------------------------

             Standard Nuclear Orientation (Angstroms)
    I     Atom           X                Y                Z
 ----------------------------------------------------------------
    1      Br     -1.6035740000     2.5479510000     1.3449810000
    2      C      -0.7747680000     1.0562010000     0.5049100000
    3      C      -1.4771220000     0.0518120000    -0.0572180000
    4      C      -0.7262620000    -1.0400130000    -0.7750530000
    5      O      -1.3269220000    -1.9461160000    -1.3106010000
    6      C       0.7692750000    -0.9700100000    -0.8080620000
    7      C       1.4734110000     0.0063010000    -0.2005050000
    8      C       0.7218020000     1.1103830000     0.4975010000
    9      O       1.3225150000     2.0157900000     1.0341660000
   10      C       2.9547030000     0.0939180000    -0.1584770000
   11      C       3.6171320000     1.1924880000    -0.7190060000
   12      C       5.0058130000     1.2710280000    -0.6769350000
   13      C       5.7461660000     0.2687620000    -0.0523950000
   14      C       5.0916870000    -0.8175980000     0.5254680000
   15      C       3.7041550000    -0.9086350000     0.4677080000
   16      Br      1.5914560000    -2.3589840000    -1.8143010000
   17      C      -2.9558120000    -0.0769770000    -0.0331360000
   18      C      -3.6866730000    -0.0913820000    -1.2270810000
   19      C      -5.0725490000    -0.2137500000    -1.2002490000
   20      C      -5.7409900000    -0.3496650000     0.0152440000
   21      C      -5.0175150000    -0.3562780000     1.2064560000
   22      C      -3.6332300000    -0.2144160000     1.1838570000
   23      H       3.0472600000     1.9831010000    -1.1913940000
   24      H       5.5084180000     2.1207760000    -1.1243910000
   25      H       6.8273940000     0.3363740000    -0.0121450000
   26      H       5.6603760000    -1.5961990000     1.0208360000
   27      H       3.2000230000    -1.7561030000     0.9166920000
   28      H      -3.1723080000    -0.0028790000    -2.1760700000
   29      H      -5.6289000000    -0.2122890000    -2.1305000000
   30      H      -6.8198320000    -0.4545940000     0.0337240000
   31      H      -5.5298000000    -0.4706670000     2.1548710000
   32      H      -3.0753260000    -0.2183310000     2.1126530000
 ----------------------------------------------------------------

   15   -5990.8485874354      8.65e-09  Convergence criterion met
 Total energy in the final basis set =    -5990.8724784438

                    Orbital Energies (a.u.)
 --------------------------------------------------------------

 Alpha MOs
 -- Occupied --
********-482.8491 -62.5020 -62.5019 -56.3226 -56.3226 -56.3187 -56.3187
-56.3182 -56.3181 -19.1534 -19.1534 -10.3069 -10.3068 -10.2717 -10.2717
-10.2416 -10.2416 -10.2073 -10.2072 -10.1915 -10.1914 -10.1911 -10.1910
-10.1870 -10.1868 -10.1860 -10.1858 -10.1857 -10.1856  -8.7108  -8.7108
 -6.5428  -6.5427  -6.5297  -6.5297  -6.5280  -6.5280  -2.6538  -2.6536
 -2.6502  -2.6500  -2.6488  -2.6487  -2.6386  -2.6385  -2.6385  -2.6385
 -1.0912  -1.0892  -0.9057  -0.8869  -0.8685  -0.8545  -0.8062  -0.7970
 -0.7710  -0.7622  -0.7621  -0.7381  -0.7060  -0.6634  -0.6265  -0.6233
 -0.6155  -0.6042  -0.5925  -0.5554  -0.5394  -0.5347  -0.4993  -0.4855
 -0.4851  -0.4751  -0.4713  -0.4663  -0.4571  -0.4440  -0.4414  -0.4413
 -0.4387  -0.4352  -0.4338  -0.4191  -0.3851  -0.3825  -0.3709  -0.3681
 -0.3659  -0.3623  -0.3573  -0.3508  -0.3119  -0.3108  -0.3061  -0.3008
 -0.2909  -0.2875  -0.2680  -0.2677  -0.2630  -0.2586

          Ground-State Mulliken Net Atomic Charges

     Atom                 Charge (a.u.)
  ----------------------------------------
      1 Br                   -0.053794
      2 C                    -0.230412
      3 C                     1.153690
      4 C                    -1.489745
      5 O                    -0.144652
      6 C                    -0.233739
      7 C                     1.159639
      8 C                    -1.487237
      9 O                    -0.144376
     10 C                     1.069895
     11 C                    -0.368751
     12 C                    -0.190523
     13 C                    -0.219837
     14 C                    -0.262279
     15 C                    -0.523774
     16 Br                   -0.053748
     17 C                     1.066838
     18 C                    -0.361769
     19 C                    -0.192368
     20 C                    -0.221511
     21 C                    -0.265017
     22 C                    -0.525888
     23 H                     0.230034
     24 H                     0.267480
     25 H                     0.258869
     26 H                     0.272250
     27 H                     0.230970
     28 H                     0.229910
     29 H                     0.267594
     30 H                     0.258707
     31 H                     0.272029
     32 H                     0.231516
  ----------------------------------------
  Sum of atomic charges =     0.000000

                    Cartesian Multipole Moments
 -----------------------------------------------------------------
    Charge (ESU x 10^10)
                 0.0000
    Dipole Moment (Debye)
         X       0.0096      Y      -0.0750      Z       0.1210
       Tot       0.1427
    Quadrupole Moments (Debye-Ang)
        XX    -122.5691     XY      -3.8781     YY    -159.5069
        XZ      -3.1983     YZ     -10.1386     ZZ    -149.0066

 Total job time:  1164.45s(wall), 8977.29s(cpu)
        *  Thank you very much for using Q-Chem.  Have a nice day.  *
