 Q-Chem 5.4, Q-Chem, Inc., Pleasanton, CA (2021)
 Q-Chem 5.4.0 for Intel X86 EM64T Linux

User input:
--------------------------------------------------------------
$molecule
-1 2
C                 -3.4256490000      3.5983460000      0.0758580000
C                 -4.6007520000      2.8592040000      0.1079210000
C                 -4.6002720000      1.4517700000      0.1248000000
C                 -2.1676900000      2.9088510000      0.0592150000
C                 -2.1793490000      1.4792230000      0.0764310000
C                 -3.4025600000      0.7759650000      0.1091380000
C                 -0.8917270000      3.6423760000      0.0254180000
C                  0.3544980000      2.8588130000      0.0087120000
C                  0.3100830000      1.4298310000      0.0266820000
C                 -0.9496000000      0.6903660000      0.0612890000
C                  1.6385020000      3.4977920000     -0.0256570000
C                  2.7836780000      2.7125570000     -0.0399170000
C                  2.7280080000      1.3062440000     -0.0217100000
C                  1.5047450000      0.6785430000      0.0111130000
O                 -0.8670940000      4.9006110000      0.0113370000
O                 -0.9742300000     -0.5678480000      0.0770990000
C                 -3.5589380000      5.1058900000      0.0603860000
H                 -5.5486610000      3.3902960000      0.1202190000
H                 -5.5414540000      0.9100260000      0.1499210000
H                 -3.3511530000     -0.3060410000      0.1210280000
C                  1.8309060000      4.9988590000     -0.0481320000
H                  1.4109170000     -0.4005740000      0.0260320000
H                  3.7516510000      3.2056020000     -0.0660760000
H                  3.6471950000      0.7275470000     -0.0337220000
H                 -4.6202760000      5.3777850000      0.0771110000
H                 -3.0895540000      5.5447990000     -0.8217470000
H                 -3.0569620000      5.5654260000      0.9136120000
H                  1.3444340000      5.4564710000     -0.9113040000
H                  2.9020400000      5.2282730000     -0.0742250000
H                  1.3821740000      5.4776870000      0.8239390000
$end
$rem
MAX_SCF_CYCLES=200
BASIS  =  6-311++G(d,p)
GUI  =  2
JOB_TYPE  =  SP
METHOD  =  B3LYP
SOLVENT_METHOD = COSMO
$end
$solvent
dielectric 37.219
opticaldielectric 1.43
$end

--------------------------------------------------------------

             Standard Nuclear Orientation (Angstroms)
    I     Atom           X                Y                Z
 ----------------------------------------------------------------
    1      C       2.5330734113    -1.0095884096    -0.0003143262
    2      C       3.6936843612    -0.2472185060    -0.0009022869
    3      C       3.6656143399     1.1600368598    -0.0008342304
    4      C       1.2615992261    -0.3451381027     0.0002989268
    5      C       1.2452297253     1.0845473765     0.0001927467
    6      C       2.4546545092     1.8119937077    -0.0002974516
    7      C       0.0000221799    -1.1038906356     0.0011299576
    8      C      -1.2615905529    -0.3451683741     0.0003185417
    9      C      -1.2451891553     1.0845225588     0.0003101444
   10      C       0.0000127103     1.8489044324     0.0005477962
   11      C      -2.5330929645    -1.0095649268    -0.0003889704
   12      C      -3.6936810577    -0.2471604976    -0.0008225719
   13      C      -3.6655745590     1.1600910253    -0.0005512433
   14      C      -2.4545961703     1.8120030791    -0.0000237736
   15      O       0.0000846009    -2.3624446680     0.0025853584
   16      O      -0.0000176727     3.1074587567     0.0008212287
   17      C       2.6959143402    -2.5143066755    -0.0004707363
   18      H       4.6520015227    -0.7594384997    -0.0014694649
   19      H       4.5961752887     1.7203914969    -0.0012638766
   20      H       2.3820354084     2.8928486943    -0.0002968845
   21      C      -2.6960843457    -2.5142775137    -0.0010243903
   22      H      -2.3819200131     2.8928536384     0.0000966110
   23      H      -4.6520094937    -0.7593670809    -0.0014696337
   24      H      -4.5961200505     1.7204696889    -0.0008489152
   25      H       3.7625607324    -2.7651215066    -0.0020074057
   26      H       2.2177632100    -2.9731874033    -0.8676045517
   27      H       2.2203408443    -2.9730240708     0.8681811204
   28      H      -2.2180085644    -2.9728886982    -0.8683472713
   29      H      -3.7627627798    -2.7649448243    -0.0026650027
   30      H      -2.2205675192    -2.9734165334     0.8674337830
 ----------------------------------------------------------------

    9    -767.6610942957      9.90e-06  Convergence criterion met
 Total energy in the final basis set =     -767.6610942957
    4    -767.7389646213      8.93e-06  Convergence criterion met
 Total energy in the final basis set =     -767.7389646213

                    Orbital Energies (a.u.)
 --------------------------------------------------------------

 Alpha MOs
 -- Occupied --
-19.0745 -19.0689 -10.2257 -10.2205 -10.1825 -10.1825 -10.1738 -10.1738
-10.1695 -10.1695 -10.1684 -10.1684 -10.1643 -10.1643 -10.1632 -10.1632
-10.1511 -10.1511  -1.0024  -0.9995  -0.8591  -0.8505  -0.7842  -0.7683
 -0.7653  -0.7348  -0.6911  -0.6759  -0.6548  -0.6213  -0.6148  -0.5633
 -0.5423  -0.5241  -0.5148  -0.4692  -0.4609  -0.4589  -0.4548  -0.4295
 -0.4204  -0.4105  -0.4086  -0.4068  -0.4015  -0.3971  -0.3965  -0.3744
 -0.3721  -0.3689  -0.3552  -0.3513  -0.3433  -0.3389  -0.3356  -0.3302
 -0.2657  -0.2475  -0.2466  -0.2453  -0.2435  -0.2279  -0.1384

 Beta MOs
 -- Occupied --
-19.0691 -19.0633 -10.2243 -10.2184 -10.1826 -10.1826 -10.1730 -10.1730
-10.1688 -10.1688 -10.1680 -10.1680 -10.1636 -10.1636 -10.1630 -10.1630
-10.1511 -10.1511  -0.9928  -0.9896  -0.8565  -0.8493  -0.7803  -0.7674
 -0.7635  -0.7329  -0.6876  -0.6753  -0.6493  -0.6194  -0.6122  -0.5625
 -0.5400  -0.5214  -0.5137  -0.4665  -0.4603  -0.4580  -0.4531  -0.4215
 -0.4177  -0.4075  -0.4060  -0.4058  -0.4010  -0.3957  -0.3866  -0.3741
 -0.3705  -0.3541  -0.3491  -0.3483  -0.3425  -0.3379  -0.3289  -0.3240
 -0.2458  -0.2416  -0.2410  -0.2386  -0.2373  -0.2230

          Ground-State Mulliken Net Atomic Charges

     Atom                 Charge (a.u.)    Spin (a.u.)
  --------------------------------------------------------
      1 C                     0.557153      -0.000759
      2 C                    -0.566079       0.057074
      3 C                    -0.438308       0.024808
      4 C                     0.200311       0.053173
      5 C                     0.427157       0.027475
      6 C                     0.010511       0.042917
      7 C                    -0.855173       0.079103
      8 C                     0.200909       0.053161
      9 C                     0.427163       0.027458
     10 C                    -0.670361       0.114896
     11 C                     0.557106      -0.000764
     12 C                    -0.566253       0.057067
     13 C                    -0.438169       0.024801
     14 C                     0.010529       0.042913
     15 O                    -0.402625       0.202733
     16 O                    -0.495313       0.198746
     17 C                    -0.485209       0.007592
     18 H                     0.138358      -0.004722
     19 H                     0.213023      -0.002423
     20 H                     0.168656      -0.002024
     21 C                    -0.485119       0.007589
     22 H                     0.168713      -0.002024
     23 H                     0.138352      -0.004721
     24 H                     0.213024      -0.002423
     25 H                     0.154797      -0.000327
     26 H                     0.165626      -0.000248
     27 H                     0.165439      -0.000247
     28 H                     0.165391      -0.000248
     29 H                     0.154650      -0.000327
     30 H                     0.165744      -0.000247
  --------------------------------------------------------
  Sum of atomic charges =    -1.000000

                    Cartesian Multipole Moments
 -----------------------------------------------------------------
    Charge (ESU x 10^10)
                -4.8032
    Dipole Moment (Debye)
         X      -0.0002      Y      -3.6554      Z      -0.0089
       Tot       3.6554
    Quadrupole Moments (Debye-Ang)
        XX    -103.6930     XY      -0.0001     YY    -142.0735
        XZ      -0.0052     YZ       0.0114     ZZ    -112.7627

 Total job time:  142.59s(wall), 755.94s(cpu)
        *  Thank you very much for using Q-Chem.  Have a nice day.  *
