 Q-Chem 5.4, Q-Chem, Inc., Pleasanton, CA (2021)
 Q-Chem 5.4.0 for Intel X86 EM64T Linux

User input:
--------------------------------------------------------------
$molecule
-2 1
O                 -1.2737810000      2.5864140000      0.3420740000
C                 -1.2420620000      1.3010460000      0.2201600000
C                 -2.4105110000      0.4863270000      0.1943640000
C                 -2.3509850000     -0.9035010000      0.0618090000
O                 -3.4939810000     -1.6871740000      0.0377370000
C                 -1.1624450000     -1.6624490000     -0.0601670000
O                 -1.2776810000     -2.9774100000     -0.1780190000
C                  0.0384730000     -0.9017420000     -0.0405930000
C                  1.3118080000     -1.5330020000     -0.1543930000
C                  2.4917350000     -0.8177570000     -0.1380840000
C                  2.4653820000      0.5995150000     -0.0040620000
C                  1.2403680000      1.2428010000      0.1086210000
C                  0.0121430000      0.5541690000      0.0966770000
H                 -3.3790600000      0.9751300000      0.2816810000
H                  1.3137120000     -2.6149100000     -0.2558660000
H                  3.4455990000     -1.3384900000     -0.2276540000
H                  3.3938350000      1.1687620000      0.0094880000
H                  1.1806530000      2.3232790000      0.2122870000
H                 -3.0537260000     -2.5738760000     -0.0642350000
$end

$rem
BASIS  =  6-311++G(d,p)
GUI  =  2
JOB_TYPE  =  SP
METHOD  =  B3LYP
SCF_CONVERGENCE  = 8
SOLVENT_METHOD = sm12
$end

$smx
solvent dimethylformamide
charges CM5
$end

--------------------------------------------------------------

             Standard Nuclear Orientation (Angstroms)
    I     Atom           X                Y                Z
 ----------------------------------------------------------------
    1      O      -1.2737810000     2.5864140000     0.3420740000
    2      C      -1.2420620000     1.3010460000     0.2201600000
    3      C      -2.4105110000     0.4863270000     0.1943640000
    4      C      -2.3509850000    -0.9035010000     0.0618090000
    5      O      -3.4939810000    -1.6871740000     0.0377370000
    6      C      -1.1624450000    -1.6624490000    -0.0601670000
    7      O      -1.2776810000    -2.9774100000    -0.1780190000
    8      C       0.0384730000    -0.9017420000    -0.0405930000
    9      C       1.3118080000    -1.5330020000    -0.1543930000
   10      C       2.4917350000    -0.8177570000    -0.1380840000
   11      C       2.4653820000     0.5995150000    -0.0040620000
   12      C       1.2403680000     1.2428010000     0.1086210000
   13      C       0.0121430000     0.5541690000     0.0966770000
   14      H      -3.3790600000     0.9751300000     0.2816810000
   15      H       1.3137120000    -2.6149100000    -0.2558660000
   16      H       3.4455990000    -1.3384900000    -0.2276540000
   17      H       3.3938350000     1.1687620000     0.0094880000
   18      H       1.1806530000     2.3232790000     0.2122870000
   19      H      -3.0537260000    -2.5738760000    -0.0642350000
 ----------------------------------------------------------------

   17    -610.4915411517      9.46e-09  Convergence criterion met
 Total energy in the final basis set =     -610.7845453827

                    Orbital Energies (a.u.)
 --------------------------------------------------------------

 Alpha MOs
 -- Occupied --
-19.1233 -19.0359 -19.0323 -10.1985 -10.1958 -10.1785 -10.1777 -10.1731
-10.1725 -10.1718 -10.1607 -10.1569 -10.1415  -1.0330  -0.9448  -0.9298
 -0.8454  -0.7829  -0.7460  -0.7200  -0.6601  -0.6117  -0.5949  -0.5537
 -0.5179  -0.4990  -0.4608  -0.4503  -0.4406  -0.4252  -0.4022  -0.4021
 -0.3759  -0.3710  -0.3642  -0.3620  -0.3360  -0.3323  -0.3192  -0.3060
 -0.2518  -0.2379  -0.2211  -0.2145  -0.2069  -0.1272

          Ground-State Mulliken Net Atomic Charges

     Atom                 Charge (a.u.)
  ----------------------------------------
      1 O                    -0.376175
      2 C                    -1.256536
      3 C                    -0.162412
      4 C                     0.341835
      5 O                    -0.126169
      6 C                    -1.326604
      7 O                    -0.408070
      8 C                    -1.305509
      9 C                     0.140886
     10 C                     1.545430
     11 C                     1.564661
     12 C                    -0.068566
     13 C                    -1.951701
     14 H                     0.039058
     15 H                     0.128717
     16 H                     0.414989
     17 H                     0.392403
     18 H                     0.091159
     19 H                     0.322604
  ----------------------------------------
  Sum of atomic charges =    -2.000000

                    Cartesian Multipole Moments
 -----------------------------------------------------------------
    Charge (ESU x 10^10)
                -9.6064
    Dipole Moment (Debye)
         X       9.3665      Y       1.4210      Z      -0.7049
       Tot       9.4998
    Quadrupole Moments (Debye-Ang)
        XX    -120.2384     XY      -2.6021     YY    -135.6331
        XZ       1.5749     YZ      -4.2762     ZZ     -88.3369

 Total job time:  315.45s(wall), 1830.41s(cpu)
        *  Thank you very much for using Q-Chem.  Have a nice day.  *
