 Q-Chem 5.4, Q-Chem, Inc., Pleasanton, CA (2021)
 Q-Chem 5.4.0 for Intel X86 EM64T Linux

User input:
--------------------------------------------------------------
$molecule
0 1
C                 -1.6656700000      2.8687520000     -0.7049980000
C                 -2.8539220000      2.2217990000     -0.3807880000
C                 -2.8243350000      0.8891110000      0.0272830000
C                 -0.4474330000      2.1926290000     -0.6241570000
C                 -0.4153300000      0.8449410000     -0.2118100000
C                 -1.6144870000      0.2033940000      0.1119170000
C                  0.8091860000      2.9116110000     -0.9775670000
C                  2.1410530000      2.1145320000     -0.8713460000
C                  2.0612630000      0.7297200000     -0.4363230000
C                  0.8779510000      0.1363320000     -0.1290450000
O                  0.8225140000      4.0669530000     -1.3350900000
O                  3.1891160000      2.6638740000     -1.1508790000
O                  0.7479060000     -1.1398330000      0.2781690000
C                  1.9176150000     -1.9541470000      0.4060780000
C                  1.5490400000     -3.3289270000      0.8694710000
C                  0.3262700000     -3.7741010000      1.1361130000
H                 -1.6571020000      3.9036400000     -1.0251400000
H                 -3.7969640000      2.7519270000     -0.4454530000
H                 -3.7463050000      0.3786710000      0.2814550000
H                 -1.5956680000     -0.8298620000      0.4287090000
H                  3.0045940000      0.2054710000     -0.3738210000
H                  2.6081560000     -1.4873050000      1.1199900000
H                  2.4304300000     -2.0068620000     -0.5627930000
H                  2.4058860000     -3.9891380000      0.9827870000
H                 -0.5466260000     -3.1422030000      1.0332180000
H                  0.1667540000     -4.7930050000      1.4675290000
$end

$rem
BASIS  =  6-311++G(d,p)
GUI  =  2
JOB_TYPE  =  SP
METHOD  =  B3LYP
SCF_CONVERGENCE  = 8
SOLVENT_METHOD = sm12
$end

$smx
solvent dimethylformamide
charges CM5
$end

--------------------------------------------------------------

             Standard Nuclear Orientation (Angstroms)
    I     Atom           X                Y                Z
 ----------------------------------------------------------------
    1      C      -1.6656700000     2.8687520000    -0.7049980000
    2      C      -2.8539220000     2.2217990000    -0.3807880000
    3      C      -2.8243350000     0.8891110000     0.0272830000
    4      C      -0.4474330000     2.1926290000    -0.6241570000
    5      C      -0.4153300000     0.8449410000    -0.2118100000
    6      C      -1.6144870000     0.2033940000     0.1119170000
    7      C       0.8091860000     2.9116110000    -0.9775670000
    8      C       2.1410530000     2.1145320000    -0.8713460000
    9      C       2.0612630000     0.7297200000    -0.4363230000
   10      C       0.8779510000     0.1363320000    -0.1290450000
   11      O       0.8225140000     4.0669530000    -1.3350900000
   12      O       3.1891160000     2.6638740000    -1.1508790000
   13      O       0.7479060000    -1.1398330000     0.2781690000
   14      C       1.9176150000    -1.9541470000     0.4060780000
   15      C       1.5490400000    -3.3289270000     0.8694710000
   16      C       0.3262700000    -3.7741010000     1.1361130000
   17      H      -1.6571020000     3.9036400000    -1.0251400000
   18      H      -3.7969640000     2.7519270000    -0.4454530000
   19      H      -3.7463050000     0.3786710000     0.2814550000
   20      H      -1.5956680000    -0.8298620000     0.4287090000
   21      H       3.0045940000     0.2054710000    -0.3738210000
   22      H       2.6081560000    -1.4873050000     1.1199900000
   23      H       2.4304300000    -2.0068620000    -0.5627930000
   24      H       2.4058860000    -3.9891380000     0.9827870000
   25      H      -0.5466260000    -3.1422030000     1.0332180000
   26      H       0.1667540000    -4.7930050000     1.4675290000
 ----------------------------------------------------------------

   15    -727.2230454458      9.36e-09  Convergence criterion met
 Total energy in the final basis set =     -727.2463694143

                    Orbital Energies (a.u.)
 --------------------------------------------------------------

 Alpha MOs
 -- Occupied --
-19.1890 -19.1392 -19.1230 -10.2820 -10.2805 -10.2712 -10.2439 -10.2188
-10.2085 -10.2000 -10.1998 -10.1992 -10.1962 -10.1871 -10.1854 -10.1690
 -1.1073  -1.0783  -1.0480  -0.8955  -0.8380  -0.8040  -0.7805  -0.7662
 -0.7238  -0.6886  -0.6482  -0.6270  -0.6104  -0.5670  -0.5572  -0.5388
 -0.5238  -0.4988  -0.4907  -0.4771  -0.4683  -0.4603  -0.4544  -0.4521
 -0.4473  -0.4301  -0.4271  -0.4049  -0.3961  -0.3874  -0.3742  -0.3680
 -0.3660  -0.3594  -0.3073  -0.2973  -0.2810  -0.2709  -0.2575  -0.2538

          Ground-State Mulliken Net Atomic Charges

     Atom                 Charge (a.u.)
  ----------------------------------------
      1 C                    -0.301077
      2 C                     0.267692
      3 C                     0.468380
      4 C                     0.002269
      5 C                    -0.219347
      6 C                    -0.043449
      7 C                    -1.332518
      8 C                    -1.774775
      9 C                     0.805824
     10 C                     0.626539
     11 O                    -0.294174
     12 O                    -0.383231
     13 O                    -0.020074
     14 C                     0.824991
     15 C                    -0.154550
     16 C                    -0.829866
     17 H                     0.175385
     18 H                     0.307193
     19 H                     0.344189
     20 H                     0.196100
     21 H                     0.325544
     22 H                     0.248538
     23 H                     0.249033
     24 H                     0.295363
     25 H                     0.042538
     26 H                     0.173482
  ----------------------------------------
  Sum of atomic charges =     0.000000

                    Cartesian Multipole Moments
 -----------------------------------------------------------------
    Charge (ESU x 10^10)
                 0.0000
    Dipole Moment (Debye)
         X      -4.2603      Y      -6.9874      Z       2.6006
       Tot       8.5870
    Quadrupole Moments (Debye-Ang)
        XX     -88.8043     XY     -25.4636     YY    -109.0380
        XZ       7.1402     YZ       6.8588     ZZ     -98.2040

 Total job time:  448.61s(wall), 3497.64s(cpu)
        *  Thank you very much for using Q-Chem.  Have a nice day.  *
