 Q-Chem 5.4, Q-Chem, Inc., Pleasanton, CA (2021)
 Q-Chem 5.4.0 for Intel X86 EM64T Linux

User input:
--------------------------------------------------------------
$molecule
-2 1
C                 -1.3537460000     -2.0395930000      1.1747220000
C                 -1.4260640000     -1.9955420000     -0.2562120000
C                 -0.7915620000     -1.0231180000     -1.0146200000
C                 -0.0019150000      0.0316830000     -0.4331670000
C                  0.0721090000     -0.0132240000      1.0066600000
C                 -0.5616030000     -0.9844080000      1.7672830000
O                 -1.9369760000     -2.9349330000      1.8980760000
O                  0.5878890000      0.9316750000     -1.1362320000
C                 -0.5009940000     -1.0498220000      3.2679650000
O                  0.2804940000      0.0330320000      3.8227810000
C                  0.4115210000      0.1218400000      5.1616870000
C                 -0.1676580000     -0.7590630000      6.0899210000
C                  1.1948540000      1.1890300000      5.6398440000
C                  1.3903780000      1.3686530000      7.0028460000
C                  0.0443600000     -0.5657210000      7.4580300000
C                  0.8175910000      0.4910660000      7.9288040000
H                 -2.0162980000     -2.7747020000     -0.7376240000
H                 -0.8753600000     -1.0296760000     -2.1008560000
H                  0.6590860000      0.7597360000      1.4932390000
H                 -0.0670660000     -2.0051130000      3.5910200000
H                 -1.5156800000     -1.0122770000      3.6870880000
H                 -0.7778650000     -1.5847620000      5.7503070000
H                  1.6355750000      1.8617420000      4.9124650000
H                  1.9961100000      2.2015970000      7.3525400000
H                 -0.4097890000     -1.2562320000      8.1647020000
H                  0.9725380000      0.6334220000      8.9950000000
$end

$rem
BASIS  =  6-311++G(d,p)
GUI  =  2
JOB_TYPE  =  SP
METHOD  =  B3LYP
SCF_CONVERGENCE  = 8
SOLVENT_METHOD = sm12
$end

$smx
solvent dimethylformamide
charges CM5
$end

--------------------------------------------------------------

             Standard Nuclear Orientation (Angstroms)
    I     Atom           X                Y                Z
 ----------------------------------------------------------------
    1      C      -1.3537460000    -2.0395930000     1.1747220000
    2      C      -1.4260640000    -1.9955420000    -0.2562120000
    3      C      -0.7915620000    -1.0231180000    -1.0146200000
    4      C      -0.0019150000     0.0316830000    -0.4331670000
    5      C       0.0721090000    -0.0132240000     1.0066600000
    6      C      -0.5616030000    -0.9844080000     1.7672830000
    7      O      -1.9369760000    -2.9349330000     1.8980760000
    8      O       0.5878890000     0.9316750000    -1.1362320000
    9      C      -0.5009940000    -1.0498220000     3.2679650000
   10      O       0.2804940000     0.0330320000     3.8227810000
   11      C       0.4115210000     0.1218400000     5.1616870000
   12      C      -0.1676580000    -0.7590630000     6.0899210000
   13      C       1.1948540000     1.1890300000     5.6398440000
   14      C       1.3903780000     1.3686530000     7.0028460000
   15      C       0.0443600000    -0.5657210000     7.4580300000
   16      C       0.8175910000     0.4910660000     7.9288040000
   17      H      -2.0162980000    -2.7747020000    -0.7376240000
   18      H      -0.8753600000    -1.0296760000    -2.1008560000
   19      H       0.6590860000     0.7597360000     1.4932390000
   20      H      -0.0670660000    -2.0051130000     3.5910200000
   21      H      -1.5156800000    -1.0122770000     3.6870880000
   22      H      -0.7778650000    -1.5847620000     5.7503070000
   23      H       1.6355750000     1.8617420000     4.9124650000
   24      H       1.9961100000     2.2015970000     7.3525400000
   25      H      -0.4097890000    -1.2562320000     8.1647020000
   26      H       0.9725380000     0.6334220000     8.9950000000
 ----------------------------------------------------------------

   20    -727.1957338065      6.36e-09  Convergence criterion met
 Total energy in the final basis set =     -727.5023846896

                    Orbital Energies (a.u.)
 --------------------------------------------------------------

 Alpha MOs
 -- Occupied --
-19.1569 -19.0227 -19.0204 -10.2459 -10.2270 -10.1871 -10.1870 -10.1824
-10.1814 -10.1803 -10.1799 -10.1788 -10.1492 -10.1426 -10.1413 -10.1389
 -1.0734  -0.9395  -0.9355  -0.8632  -0.8002  -0.7680  -0.7581  -0.7319
 -0.6878  -0.6484  -0.6196  -0.6056  -0.5701  -0.5455  -0.5351  -0.4955
 -0.4801  -0.4765  -0.4534  -0.4418  -0.4366  -0.4316  -0.4226  -0.4008
 -0.3950  -0.3773  -0.3686  -0.3613  -0.3591  -0.3417  -0.3352  -0.3344
 -0.3257  -0.3132  -0.2678  -0.2365  -0.2335  -0.2302  -0.1989  -0.1966
 -0.1229

          Ground-State Mulliken Net Atomic Charges

     Atom                 Charge (a.u.)
  ----------------------------------------
      1 C                    -1.107992
      2 C                    -1.069558
      3 C                    -1.224454
      4 C                    -1.317544
      5 C                    -1.888705
      6 C                     2.330283
      7 O                    -0.337798
      8 O                    -0.421179
      9 C                    -0.439070
     10 O                    -0.125473
     11 C                    -1.244462
     12 C                    -0.660575
     13 C                     0.114956
     14 C                     0.933205
     15 C                     1.113487
     16 C                     1.378123
     17 H                    -0.008772
     18 H                    -0.046156
     19 H                    -0.087771
     20 H                     0.260103
     21 H                     0.265961
     22 H                     0.253400
     23 H                     0.205606
     24 H                     0.389847
     25 H                     0.334110
     26 H                     0.400427
  ----------------------------------------
  Sum of atomic charges =    -2.000000

                    Cartesian Multipole Moments
 -----------------------------------------------------------------
    Charge (ESU x 10^10)
                -9.6064
    Dipole Moment (Debye)
         X       5.5435      Y       8.3344      Z      -4.1785
       Tot      10.8468
    Quadrupole Moments (Debye-Ang)
        XX    -122.6957     XY     -21.8533     YY    -140.8280
        XZ      10.5424     YZ      17.8440     ZZ    -136.5818

 Total job time:  610.71s(wall), 4760.22s(cpu)
        *  Thank you very much for using Q-Chem.  Have a nice day.  *
