 Gaussian 16, Revision A.03,
 Gaussian 16:  ES64L-G16RevA.03 25-Dec-2016

 --------------------------------------
 #P UB3LYP/6-311++G(d,p) nosym opt freq
 --------------------------------------

 -------
 Reduced
 -------
 Symbolic Z-matrix:
 Charge = -2 Multiplicity = 1

 SCF Done:  E(UB3LYP) =  -727.225075777     A.U. after   47 cycles
 SCF Done:  E(UB3LYP) =  -727.225075879     A.U. after   20 cycles
 Optimization completed.
    -- Stationary point found.
 Normal termination of Gaussian 16 at Wed Jan 10 05:09:48 2024.

 ----------------------------------------------------------------------
 #P Geom=AllCheck Guess=TCheck SCRF=Check GenChk UB3LYP/6-311++G(d,p) F
 req
 ----------------------------------------------------------------------

 Structure from the checkpoint file:  "065-an.chk"
 -------
 Reduced
 -------
 Charge = -2 Multiplicity = 1

                          Input orientation:
 ---------------------------------------------------------------------
 Center     Atomic      Atomic             Coordinates (Angstroms)
 Number     Number       Type             X           Y           Z
 ---------------------------------------------------------------------
      1          6           0       -1.353746   -2.039593    1.174722
      2          6           0       -1.426064   -1.995542   -0.256212
      3          6           0       -0.791562   -1.023118   -1.014620
      4          6           0       -0.001915    0.031683   -0.433167
      5          6           0        0.072109   -0.013224    1.006660
      6          6           0       -0.561603   -0.984408    1.767283
      7          8           0       -1.936976   -2.934933    1.898076
      8          8           0        0.587889    0.931675   -1.136232
      9          6           0       -0.500994   -1.049822    3.267965
     10          8           0        0.280494    0.033032    3.822781
     11          6           0        0.411521    0.121840    5.161687
     12          6           0       -0.167658   -0.759063    6.089921
     13          6           0        1.194854    1.189030    5.639844
     14          6           0        1.390378    1.368653    7.002846
     15          6           0        0.044360   -0.565721    7.458030
     16          6           0        0.817591    0.491066    7.928804
     17          1           0       -2.016298   -2.774702   -0.737624
     18          1           0       -0.875360   -1.029676   -2.100856
     19          1           0        0.659086    0.759736    1.493239
     20          1           0       -0.067066   -2.005113    3.591020
     21          1           0       -1.515680   -1.012277    3.687088
     22          1           0       -0.777865   -1.584762    5.750307
     23          1           0        1.635575    1.861742    4.912465
     24          1           0        1.996110    2.201597    7.352540
     25          1           0       -0.409789   -1.256232    8.164702
     26          1           0        0.972538    0.633422    8.995000
 ---------------------------------------------------------------------

 SCF Done:  E(UB3LYP) =  -727.225075879     A.U. after    4 cycles

 Alpha  occ. eigenvalues --  -18.95310 -18.80614 -18.79977 -10.05162 -10.00797
 Alpha  occ. eigenvalues --   -9.99893  -9.99845  -9.99009  -9.98990  -9.98878
 Alpha  occ. eigenvalues --   -9.95844  -9.95644  -9.92431  -9.91298  -9.91133
 Alpha  occ. eigenvalues --   -9.90861  -0.86959  -0.71825  -0.71078  -0.67202
 Alpha  occ. eigenvalues --   -0.58194  -0.56965  -0.55706  -0.51851  -0.46642
 Alpha  occ. eigenvalues --   -0.43245  -0.42357  -0.40218  -0.35770  -0.33435
 Alpha  occ. eigenvalues --   -0.31441  -0.29558  -0.28349  -0.26529  -0.26322
 Alpha  occ. eigenvalues --   -0.24470  -0.21578  -0.20872  -0.19732  -0.19470
 Alpha  occ. eigenvalues --   -0.18659  -0.18315  -0.16232  -0.14386  -0.13512
 Alpha  occ. eigenvalues --   -0.13230  -0.12299  -0.10733  -0.10247  -0.08902
 Alpha  occ. eigenvalues --   -0.07896  -0.03796  -0.00404   0.00019   0.02212
 Alpha  occ. eigenvalues --    0.02923   0.11277
 Alpha virt. eigenvalues --    0.12317   0.14048   0.15623   0.16260   0.17535
 Alpha virt. eigenvalues --    0.17854   0.18527   0.18918   0.19580   0.20577
 Alpha virt. eigenvalues --    0.21699   0.22336   0.22964   0.23573   0.24018

  Beta  occ. eigenvalues --  -18.95310 -18.80614 -18.79977 -10.05162 -10.00797
  Beta  occ. eigenvalues --   -9.99893  -9.99845  -9.99009  -9.98990  -9.98878
  Beta  occ. eigenvalues --   -9.95844  -9.95644  -9.92431  -9.91298  -9.91133
  Beta  occ. eigenvalues --   -9.90861  -0.86959  -0.71825  -0.71078  -0.67202
  Beta  occ. eigenvalues --   -0.58194  -0.56965  -0.55706  -0.51851  -0.46642
  Beta  occ. eigenvalues --   -0.43245  -0.42357  -0.40218  -0.35770  -0.33435
  Beta  occ. eigenvalues --   -0.31441  -0.29558  -0.28349  -0.26529  -0.26322
  Beta  occ. eigenvalues --   -0.24470  -0.21578  -0.20872  -0.19732  -0.19470
  Beta  occ. eigenvalues --   -0.18659  -0.18315  -0.16232  -0.14386  -0.13512
  Beta  occ. eigenvalues --   -0.13230  -0.12299  -0.10733  -0.10247  -0.08902
  Beta  occ. eigenvalues --   -0.07896  -0.03796  -0.00404   0.00019   0.02212
  Beta  occ. eigenvalues --    0.02923   0.11277
  Beta virt. eigenvalues --    0.12317   0.14048   0.15623   0.16260   0.17535
  Beta virt. eigenvalues --    0.17854   0.18527   0.18918   0.19580   0.20577
  Beta virt. eigenvalues --    0.21699   0.22336   0.22964   0.23573   0.24018

 Mulliken charges and spin densities:
               1          2
     1  C   -1.270051  -0.000000
     2  C    0.261759   0.000000
     3  C    0.207256  -0.000000
     4  C   -0.847238   0.000000
     5  C   -0.182976  -0.000000
     6  C    0.683793   0.000000
     7  O   -0.510240   0.000000
     8  O   -0.514758   0.000000
     9  C    0.182459   0.000000
    10  O   -0.074118   0.000000
    11  C    0.580693   0.000000
    12  C    0.592464   0.000000
    13  C   -1.602069  -0.000000
    14  C    0.618872   0.000000
    15  C   -0.739809  -0.000000
    16  C    1.937677   0.000000
    17  H    0.088211  -0.000000
    18  H    0.091744   0.000000
    19  H    0.121616   0.000000
    20  H    0.203759   0.000000
    21  H    0.142672  -0.000000
    22  H    0.308603   0.000000
    23  H    0.199923   0.000000
    24  H   -0.640568  -0.000000
    25  H   -0.424027  -0.000000
    26  H   -1.415646  -0.000000
 Sum of Mulliken charges =  -2.00000  -0.00000

 Dipole moment (field-independent basis, Debye):
    X=              0.7660    Y=              3.2194    Z=            -28.3076  Tot=             28.5004
 Quadrupole moment (field-independent basis, Debye-Ang):
   XX=           -130.7445   YY=           -146.3416   ZZ=           -371.5597
   XY=            -23.3754   XZ=            -18.9540   YZ=             -7.0872

  Exact polarizability: 653.712 664.3691092.412 171.490  77.7682151.554
 Approx polarizability:1500.7831464.0251940.1624567.8514741.261********

                      1                      2                      3
                      A                      A                      A
 Frequencies --      6.5717                43.4614                65.5893
 Red. masses --      4.1938                 5.2883                 6.4421
 Frc consts  --      0.0001                 0.0059                 0.0163
 IR Inten    --      0.0833                10.5827                 0.5642

                      4                      5                      6
                      A                      A                      A
 Frequencies --    110.0205               146.1053               180.1908
 Red. masses --      4.8880                 6.7308                 7.0248
 Frc consts  --      0.0349                 0.0847                 0.1344
 IR Inten    --      7.5880                 7.7619                 0.6851

                      7                      8                      9
                      A                      A                      A
 Frequencies --    210.8931               229.8114               245.7178
 Red. masses --      2.7933                 7.4345                 4.1732
 Frc consts  --      0.0732                 0.2313                 0.1485
 IR Inten    --     14.9661                 6.5630                 5.4782

                     10                     11                     12
                      A                      A                      A
 Frequencies --    328.4213               391.6061               426.2095
 Red. masses --      6.5321                 9.9131                 3.1330
 Frc consts  --      0.4151                 0.8957                 0.3353
 IR Inten    --      0.2163                 0.9894                 0.2745

                     13                     14                     15
                      A                      A                      A
 Frequencies --    430.1010               446.7221               461.5110
 Red. masses --      3.1132                 5.4785                10.8862
 Frc consts  --      0.3393                 0.6441                 1.3661
 IR Inten    --      3.1868                13.6240               832.5016

                     16                     17                     18
                      A                      A                      A
 Frequencies --    519.9458               522.8045               582.7835
 Red. masses --      2.5995                 6.1983                 2.0659
 Frc consts  --      0.4141                 0.9982                 0.4134
 IR Inten    --      1.2601                61.6623                10.9301

                     19                     20                     21
                      A                      A                      A
 Frequencies --    590.0198               620.8698               629.1205
 Red. masses --      5.3520                 6.2890                 6.4781
 Frc consts  --      1.0977                 1.4283                 1.5107
 IR Inten    --      4.7881                20.0666                51.5487

                     22                     23                     24
                      A                      A                      A
 Frequencies --    704.6575               729.5713               750.5976
 Red. masses --      2.6816                 3.7330                 5.9428
 Frc consts  --      0.7845                 1.1707                 1.9727
 IR Inten    --      5.0112                 0.0449                14.0233

                     25                     26                     27
                      A                      A                      A
 Frequencies --    791.9133               807.8771               816.9192
 Red. masses --      1.7070                 6.0370                 1.4404
 Frc consts  --      0.6307                 2.3215                 0.5664
 IR Inten    --     22.1732                36.4910                26.5771

                     28                     29                     30
                      A                      A                      A
 Frequencies --    844.0445               853.9988               857.9014
 Red. masses --      1.5784                 6.3835                 1.6224
 Frc consts  --      0.6625                 2.7430                 0.7035
 IR Inten    --     29.5134                 7.0733                35.2353

                     31                     32                     33
                      A                      A                      A
 Frequencies --    887.4493               941.0529               946.1264
 Red. masses --      1.2883                 1.2479                 2.6266
 Frc consts  --      0.5978                 0.6511                 1.3853
 IR Inten    --      0.9386               704.7604                68.8753

                     34                     35                     36
                      A                      A                      A
 Frequencies --    975.7861               986.1329               990.8860
 Red. masses --      1.3366                 1.2483                 7.4213
 Frc consts  --      0.7499                 0.7152                 4.2932
 IR Inten    --      1.8958                 1.0267               126.0584

                     37                     38                     39
                      A                      A                      A
 Frequencies --   1006.4403              1027.5433              1041.8720
 Red. masses --      6.1183                 1.6896                 2.0534
 Frc consts  --      3.6514                 1.0511                 1.3133
 IR Inten    --     33.0144                27.6836                 8.5432

                     40                     41                     42
                      A                      A                      A
 Frequencies --   1085.1528              1095.7862              1141.7368
 Red. masses --      1.6896                 1.5090                 2.2368
 Frc consts  --      1.1722                 1.0675                 1.7179
 IR Inten    --    448.3242               113.5643               213.1061

                     43                     44                     45
                      A                      A                      A
 Frequencies --   1168.4600              1185.4263              1199.9519
 Red. masses --      1.0986                 1.1655                 3.8832
 Frc consts  --      0.8838                 0.9650                 3.2944
 IR Inten    --    216.0768               102.4064               190.1905

                     46                     47                     48
                      A                      A                      A
 Frequencies --   1227.7629              1234.9138              1271.8045
 Red. masses --      1.0660                 1.4887                 3.8106
 Frc consts  --      0.9468                 1.3376                 3.6315
 IR Inten    --      6.4622               262.5618               177.9933

                     49                     50                     51
                      A                      A                      A
 Frequencies --   1312.4385              1324.9536              1354.5348
 Red. masses --      2.1449                 2.6598                 2.0081
 Frc consts  --      2.1768                 2.7510                 2.1708
 IR Inten    --    100.9355                50.9542                36.8179

                     52                     53                     54
                      A                      A                      A
 Frequencies --   1385.9806              1390.2645              1444.2432
 Red. masses --      1.7732                 9.9096                 4.7745
 Frc consts  --      2.0069                11.2850                 5.8676
 IR Inten    --     42.7261              2083.4495               300.5015

                     55                     56                     57
                      A                      A                      A
 Frequencies --   1470.9026              1479.3121              1493.2969
 Red. masses --      2.3669                 2.3405                 4.2439
 Frc consts  --      3.0171                 3.0177                 5.5758
 IR Inten    --    170.7914                20.6724               428.7431

                     58                     59                     60
                      A                      A                      A
 Frequencies --   1494.1224              1520.0467              1603.2853
 Red. masses --      1.4705                 2.2519                 6.1163
 Frc consts  --      1.9341                 3.0656                 9.2632
 IR Inten    --    405.3199               179.5025              4239.9975

                     61                     62                     63
                      A                      A                      A
 Frequencies --   1607.2526              1632.3093              2977.5680
 Red. masses --      5.8063                 5.6225                 1.0556
 Frc consts  --      8.8373                 8.8264                 5.5140
 IR Inten    --    149.7921                77.3259                82.0969

                     64                     65                     66
                      A                      A                      A
 Frequencies --   3001.4156              3089.3951              3115.7225
 Red. masses --      1.1061                 1.0836                 1.0926
 Frc consts  --      5.8706                 6.0935                 6.2492
 IR Inten    --     70.1943                43.1247               696.8340

                     67                     68                     69
                      A                      A                      A
 Frequencies --   3121.3244              3130.2365              3142.8842
 Red. masses --      1.0858                 1.0896                 1.0951
 Frc consts  --      6.2328                 6.2904                 6.3735
 IR Inten    --     47.4190               445.2941               145.1568

                     70                     71                     72
                      A                      A                      A
 Frequencies --   3153.7459              3174.5336              3204.6637
 Red. masses --      1.0878                 1.0919                 1.0909
 Frc consts  --      6.3747                 6.4831                 6.6006
 IR Inten    --     70.6791                16.8237                 1.3650

 - Thermochemistry -
 -------------------
 Temperature   298.150 Kelvin.  Pressure   1.00000 Atm.
 Atom     1 has atomic number  6 and mass  12.00000

 Molecular mass:   214.06299 amu.
 Principal axes and moments of inertia in atomic units:
                           1         2         3
     Eigenvalues --  1447.609317480.848388917.09839
           X            0.18096   0.54770   0.81687
           Y            0.17412   0.79962  -0.57471
           Z            0.96795  -0.24624  -0.04933
 This molecule is an asymmetric top.
 Rotational symmetry number  1.
 Warning -- assumption of classical behavior for rotation
           may cause significant error
 Rotational temperatures (Kelvin)      0.05983     0.01158     0.00971
 Rotational constants (GHZ):           1.24670     0.24125     0.20239
 Zero-point vibrational energy     510713.8 (Joules/Mol)
                                  122.06352 (Kcal/Mol)
 Warning -- explicit consideration of  19 degrees of freedom as
           vibrations may cause significant error
 Vibrational temperatures:      9.46    62.53    94.37   158.30   210.21
          (Kelvin)            259.25   303.43   330.65   353.53   472.52
                              563.43   613.22   618.82   642.73   664.01
                              748.09   752.20   838.50   848.91   893.29
                              905.16  1013.84  1049.69  1079.94  1139.39
                             1162.35  1175.36  1214.39  1228.71  1234.33
                             1276.84  1353.97  1361.26  1403.94  1418.83
                             1425.66  1448.04  1478.41  1499.02  1561.29
                             1576.59  1642.70  1681.15  1705.56  1726.46
                             1766.48  1776.77  1829.84  1888.31  1906.31
                             1948.87  1994.12  2000.28  2077.94  2116.30
                             2128.40  2148.52  2149.71  2187.01  2306.77
                             2312.48  2348.53  4284.06  4318.37  4444.95
                             4482.83  4490.89  4503.71  4521.91  4537.54
                             4567.45  4610.80

 Zero-point correction=                           0.194521 (Hartree/Particle)
 Thermal correction to Energy=                    0.207631
 Thermal correction to Enthalpy=                  0.208576
 Thermal correction to Gibbs Free Energy=         0.151951
 Sum of electronic and zero-point Energies=           -727.030555
 Sum of electronic and thermal Energies=              -727.017444
 Sum of electronic and thermal Enthalpies=            -727.016500
 Sum of electronic and thermal Free Energies=         -727.073124

                     E (Thermal)             CV                S
                      KCal/Mol        Cal/Mol-Kelvin    Cal/Mol-Kelvin
 Total                  130.291             50.971            119.176
 Electronic               0.000              0.000              0.000
 Translational            0.889              2.981             41.987
 Rotational               0.889              2.981             32.935
 Vibrational            128.513             45.010             44.254
 Vibration     1          0.593              1.987              8.845
 Vibration     2          0.595              1.980              5.095
 Vibration     3          0.597              1.971              4.282
 Vibration     4          0.606              1.941              3.269
 Vibration     5          0.617              1.907              2.722
 Vibration     6          0.629              1.867              2.326
 Vibration     7          0.643              1.824              2.036
 Vibration     8          0.652              1.795              1.880
 Vibration     9          0.660              1.770              1.761
 Vibration    10          0.712              1.619              1.268
 Vibration    11          0.759              1.488              0.994
 Vibration    12          0.788              1.413              0.871
 Vibration    13          0.791              1.405              0.858
 Vibration    14          0.806              1.368              0.806
 Vibration    15          0.819              1.335              0.762
 Vibration    16          0.875              1.206              0.610
 Vibration    17          0.878              1.200              0.603
 Vibration    18          0.940              1.069              0.480
 Vibration    19          0.947              1.053              0.467

                           ! Non-Optimized Parameters !
 Normal termination of Gaussian 16 at Wed Jan 10 06:19:20 2024.
