 Gaussian 16, Revision A.03,
 Gaussian 16:  ES64L-G16RevA.03 25-Dec-2016

 ----------------------------------------------------------------------
 #P UB3LYP/6-311++G(d,p) nosym opt freq SCRF=(PCM,Solvent=n,n-DiMethylF
 ormamide)
 ----------------------------------------------------------------------

 -------
 Reduced
 -------
 Symbolic Z-matrix:
 Charge = -2 Multiplicity = 1

 SCF Done:  E(UB3LYP) =  -964.686810284     A.U. after   17 cycles
 SCF Done:  E(UB3LYP) =  -964.689566786     A.U. after   14 cycles
 SCF Done:  E(UB3LYP) =  -964.689969945     A.U. after   13 cycles
 SCF Done:  E(UB3LYP) =  -964.689997961     A.U. after   14 cycles
 SCF Done:  E(UB3LYP) =  -964.690031251     A.U. after   12 cycles
 SCF Done:  E(UB3LYP) =  -964.690037462     A.U. after   12 cycles
 SCF Done:  E(UB3LYP) =  -964.690039520     A.U. after   11 cycles
 SCF Done:  E(UB3LYP) =  -964.690040196     A.U. after   11 cycles
 SCF Done:  E(UB3LYP) =  -964.690040496     A.U. after   11 cycles
 SCF Done:  E(UB3LYP) =  -964.690040557     A.U. after   10 cycles
 SCF Done:  E(UB3LYP) =  -964.690040572     A.U. after   10 cycles
 Optimization completed.
    -- Stationary point found.
 Normal termination of Gaussian 16 at Sun Feb 11 04:29:15 2024.

 ----------------------------------------------------------------------
 #P Geom=AllCheck Guess=TCheck SCRF=Check GenChk UB3LYP/6-311++G(d,p) F
 req
 ----------------------------------------------------------------------

 Structure from the checkpoint file:  "287-an.chk"
 -------
 Reduced
 -------
 Charge = -2 Multiplicity = 1

                          Input orientation:
 ---------------------------------------------------------------------
 Center     Atomic      Atomic             Coordinates (Angstroms)
 Number     Number       Type             X           Y           Z
 ---------------------------------------------------------------------
      1          6           0       -0.315227    3.831925   -0.224033
      2          6           0       -1.541224    3.237260   -0.432210
      3          6           0       -1.613820    1.857208   -0.756188
      4          6           0        0.904717    3.101670   -0.323799
      5          6           0        0.832377    1.689771   -0.656848
      6          6           0       -0.448451    1.121199   -0.861414
      7          6           0        2.165378    3.725926   -0.104806
      8          6           0        3.290210    2.891042   -0.231464
      9          6           0        3.268771    1.520578   -0.552366
     10          6           0        2.025660    0.867227   -0.784161
     11          8           0        2.366510    5.005223    0.204010
     12          8           0        1.945488   -0.400163   -1.088567
     13          1           0       -0.254168    4.886246    0.025432
     14          1           0       -2.452248    3.822954   -0.348244
     15          1           0       -2.578270    1.386339   -0.920222
     16          1           0       -0.487810    0.065757   -1.109969
     17          8           0        4.491654    3.545866   -0.002629
     18          6           0        4.560115    0.744645   -0.659779
     19          6           0        5.209307    0.788093   -2.057875
     20          6           0        6.499761   -0.032927   -2.160494
     21          6           0        7.149140    0.008698   -3.548753
     22          6           0        8.432850   -0.822471   -3.657455
     23          1           0        4.154325    4.453517    0.193027
     24          1           0        4.353899   -0.300696   -0.408500
     25          1           0        5.286132    1.123513    0.069049
     26          1           0        5.419713    1.831235   -2.323154
     27          1           0        4.485981    0.420791   -2.795259
     28          1           0        6.285331   -1.076649   -1.894029
     29          1           0        7.220018    0.329344   -1.414489
     30          1           0        7.371104    1.051323   -3.811929
     31          1           0        6.426461   -0.346375   -4.295208
     32          1           0        8.209935   -1.865836   -3.398264
     33          1           0        9.156028   -0.470340   -2.910144
     34          6           0        9.080058   -0.775776   -5.046460
     35          1           0        9.309062    0.266933   -5.302826
     36          1           0        8.354272   -1.121287   -5.794287
     37          6           0       10.357677   -1.614948   -5.160263
     38          1           0       10.128610   -2.658793   -4.908107
     39          1           0       11.083956   -1.272626   -4.411266
     40          6           0       11.006240   -1.564483   -6.548446
     41          6           0       12.279483   -2.409431   -6.654013
     42          1           0       11.238405   -0.522209   -6.799490
     43          1           0       10.280287   -1.904107   -7.297388
     44          1           0       13.037219   -2.072188   -5.939294
     45          1           0       12.716942   -2.350498   -7.654852
     46          1           0       12.071982   -3.463577   -6.443216
 ---------------------------------------------------------------------

 SCF Done:  E(UB3LYP) =  -964.690040573     A.U. after    1 cycles

 Alpha  occ. eigenvalues --  -19.10805 -19.02197 -19.01287 -10.17465 -10.16968
 Alpha  occ. eigenvalues --  -10.15928 -10.15835 -10.15653 -10.15592 -10.15509
 Alpha  occ. eigenvalues --  -10.15356 -10.15327 -10.15068 -10.14725 -10.14547
 Alpha  occ. eigenvalues --  -10.14369 -10.14357 -10.14270 -10.13929 -10.13725
 Alpha  occ. eigenvalues --  -10.13266 -10.12359  -1.01864  -0.92281  -0.91421
 Alpha  occ. eigenvalues --   -0.82152  -0.80605  -0.78801  -0.77019  -0.74975
 Alpha  occ. eigenvalues --   -0.72192  -0.71967  -0.69268  -0.66088  -0.63617
 Alpha  occ. eigenvalues --   -0.61294  -0.58426  -0.57690  -0.57163  -0.56543
 Alpha  occ. eigenvalues --   -0.55266  -0.53246  -0.49948  -0.47917  -0.46908
 Alpha  occ. eigenvalues --   -0.46035  -0.44421  -0.43289  -0.42889  -0.42439
 Alpha  occ. eigenvalues --   -0.41847  -0.41270  -0.39991  -0.39820  -0.39520
 Alpha  occ. eigenvalues --   -0.38256  -0.38222  -0.36586  -0.36432  -0.35926
 Alpha  occ. eigenvalues --   -0.35078  -0.34692  -0.34396  -0.34314  -0.33748
 Alpha  occ. eigenvalues --   -0.33156  -0.32409  -0.31996  -0.31728  -0.31607
 Alpha  occ. eigenvalues --   -0.31395  -0.30672  -0.30621  -0.29757  -0.29074
 Alpha  occ. eigenvalues --   -0.28853  -0.22684  -0.21959  -0.20991  -0.19238
 Alpha  occ. eigenvalues --   -0.18860  -0.11100
 Alpha virt. eigenvalues --   -0.00383  -0.00184   0.00116   0.00813   0.01039
 Alpha virt. eigenvalues --    0.01155   0.01660   0.01892   0.02024   0.02466
 Alpha virt. eigenvalues --    0.02880   0.03172   0.04013   0.04239   0.04653

  Beta  occ. eigenvalues --  -19.10805 -19.02197 -19.01287 -10.17465 -10.16968
  Beta  occ. eigenvalues --  -10.15928 -10.15835 -10.15653 -10.15592 -10.15509
  Beta  occ. eigenvalues --  -10.15356 -10.15327 -10.15068 -10.14725 -10.14547
  Beta  occ. eigenvalues --  -10.14369 -10.14357 -10.14270 -10.13929 -10.13725
  Beta  occ. eigenvalues --  -10.13266 -10.12359  -1.01864  -0.92281  -0.91421
  Beta  occ. eigenvalues --   -0.82152  -0.80605  -0.78801  -0.77019  -0.74975
  Beta  occ. eigenvalues --   -0.72192  -0.71967  -0.69268  -0.66088  -0.63617
  Beta  occ. eigenvalues --   -0.61294  -0.58426  -0.57690  -0.57163  -0.56543
  Beta  occ. eigenvalues --   -0.55266  -0.53246  -0.49948  -0.47917  -0.46908
  Beta  occ. eigenvalues --   -0.46035  -0.44421  -0.43289  -0.42889  -0.42439
  Beta  occ. eigenvalues --   -0.41847  -0.41270  -0.39991  -0.39820  -0.39520
  Beta  occ. eigenvalues --   -0.38256  -0.38222  -0.36586  -0.36432  -0.35926
  Beta  occ. eigenvalues --   -0.35078  -0.34692  -0.34396  -0.34314  -0.33748
  Beta  occ. eigenvalues --   -0.33156  -0.32409  -0.31996  -0.31728  -0.31607
  Beta  occ. eigenvalues --   -0.31395  -0.30672  -0.30621  -0.29757  -0.29074
  Beta  occ. eigenvalues --   -0.28853  -0.22684  -0.21959  -0.20991  -0.19238
  Beta  occ. eigenvalues --   -0.18860  -0.11100
  Beta virt. eigenvalues --   -0.00383  -0.00184   0.00116   0.00813   0.01039
  Beta virt. eigenvalues --    0.01155   0.01660   0.01892   0.02024   0.02466
  Beta virt. eigenvalues --    0.02880   0.03172   0.04013   0.04239   0.04653

 Mulliken charges and spin densities:
               1          2
     1  C   -0.135233   0.000000
     2  C   -0.367225   0.000000
     3  C   -0.484882  -0.000000
     4  C    0.556179  -0.000000
     5  C   -0.065380   0.000000
     6  C   -0.017191  -0.000000
     7  C   -1.023668  -0.000000
     8  C   -0.692867  -0.000000
     9  C    2.024169   0.000000
    10  C   -0.759952  -0.000000
    11  O   -0.756876  -0.000000
    12  O   -0.676634  -0.000000
    13  H    0.143195   0.000000
    14  H    0.155531  -0.000000
    15  H    0.149998  -0.000000
    16  H    0.146059   0.000000
    17  O   -0.335346   0.000000
    18  C   -0.286697   0.000000
    19  C   -0.772058  -0.000000
    20  C   -0.223911  -0.000000
    21  C    0.059497  -0.000000
    22  C    0.017196   0.000000
    23  H    0.273438   0.000000
    24  H    0.183732  -0.000000
    25  H    0.193046  -0.000000
    26  H    0.155422  -0.000000
    27  H    0.169870   0.000000
    28  H    0.107026   0.000000
    29  H    0.110881  -0.000000
    30  H    0.123349   0.000000
    31  H    0.119176   0.000000
    32  H    0.129945  -0.000000
    33  H    0.129384  -0.000000
    34  C   -0.183504   0.000000
    35  H    0.126456  -0.000000
    36  H    0.126717  -0.000000
    37  C   -0.396330   0.000000
    38  H    0.122768  -0.000000
    39  H    0.123123  -0.000000
    40  C   -0.265560  -0.000000
    41  C   -0.689660   0.000000
    42  H    0.130646   0.000000
    43  H    0.130782   0.000000
    44  H    0.139660  -0.000000
    45  H    0.145973   0.000000
    46  H    0.139756  -0.000000
 Sum of Mulliken charges =  -2.00000   0.00000

 Dipole moment (field-independent basis, Debye):
    X=            -19.6440    Y=            -21.9494    Z=              4.3924  Tot=             29.7818
 Quadrupole moment (field-independent basis, Debye-Ang):
   XX=           -206.7310   YY=           -246.9119   ZZ=           -153.5306
   XY=            -46.0385   XZ=              8.7709   YZ=             -1.7264

  Exact polarizability: 492.648 -17.887 396.868  -3.288  35.627 270.956
 Approx polarizability: 528.869  -1.779 446.716  14.352  38.453 286.901

                      1                      2                      3
                      A                      A                      A
 Frequencies --     18.4794                22.9712                27.2155
 Red. masses --      5.0561                 3.6005                 1.7649
 Frc consts  --      0.0010                 0.0011                 0.0008
 IR Inten    --      0.2960                 0.4500                 0.3489

                      4                      5                      6
                      A                      A                      A
 Frequencies --     45.3014                57.4052                81.8882
 Red. masses --      4.1436                 4.5013                 1.9631
 Frc consts  --      0.0050                 0.0087                 0.0078
 IR Inten    --      2.9591                 5.5231                 2.1637

                      7                      8                      9
                      A                      A                      A
 Frequencies --     95.3342               104.4206               121.2748
 Red. masses --      2.3289                 5.1962                 4.5739
 Frc consts  --      0.0125                 0.0334                 0.0396
 IR Inten    --      2.8060                13.5859                 0.9849

                     10                     11                     12
                      A                      A                      A
 Frequencies --    132.6921               144.1876               150.0123
 Red. masses --      1.9749                 3.7907                 2.1875
 Frc consts  --      0.0205                 0.0464                 0.0290
 IR Inten    --      0.7440                 2.7511                 0.4852

                     13                     14                     15
                      A                      A                      A
 Frequencies --    160.4709               164.1336               180.7497
 Red. masses --      5.4554                 1.9891                 7.6506
 Frc consts  --      0.0828                 0.0316                 0.1473
 IR Inten    --      0.3778                 0.0988                 4.8010

                     16                     17                     18
                      A                      A                      A
 Frequencies --    229.2988               243.5820               249.7994
 Red. masses --      3.9445                 1.1201                 4.7251
 Frc consts  --      0.1222                 0.0392                 0.1737
 IR Inten    --      0.0293                 0.0154                15.2409

                     19                     20                     21
                      A                      A                      A
 Frequencies --    292.2614               296.9317               314.7296
 Red. masses --      3.4967                 3.1511                 4.8276
 Frc consts  --      0.1760                 0.1637                 0.2817
 IR Inten    --      2.9289                 0.4818                20.5460

                     22                     23                     24
                      A                      A                      A
 Frequencies --    336.6659               357.2151               365.2479
 Red. masses --      5.6665                 6.0238                 5.4658
 Frc consts  --      0.3784                 0.4529                 0.4296
 IR Inten    --     21.3815                 2.9484                 0.9985

                     25                     26                     27
                      A                      A                      A
 Frequencies --    400.4721               439.7046               454.9650
 Red. masses --      4.8608                 8.6727                 3.8449
 Frc consts  --      0.4593                 0.9879                 0.4689
 IR Inten    --      2.0799                 6.4825                 6.9600

                     28                     29                     30
                      A                      A                      A
 Frequencies --    456.6288               487.0074               497.5831
 Red. masses --      3.6404                 3.0514                 5.3533
 Frc consts  --      0.4472                 0.4264                 0.7809
 IR Inten    --      3.5707                 1.9444                 4.7707

                     31                     32                     33
                      A                      A                      A
 Frequencies --    531.2622               561.5557               636.0683
 Red. masses --      5.8247                 5.0949                 6.0665
 Frc consts  --      0.9686                 0.9466                 1.4461
 IR Inten    --      1.4295                 5.4082                65.2967

                     34                     35                     36
                      A                      A                      A
 Frequencies --    667.1891               687.8906               693.8972
 Red. masses --      5.4233                 3.1686                 3.2120
 Frc consts  --      1.4224                 0.8834                 0.9112
 IR Inten    --      7.9294                 3.8321                81.7554

                     37                     38                     39
                      A                      A                      A
 Frequencies --    705.4692               726.8130               729.1643
 Red. masses --      3.1152                 1.1045                 1.1023
 Frc consts  --      0.9135                 0.3438                 0.3453
 IR Inten    --      8.6929                12.8799                 6.7940

                     40                     41                     42
                      A                      A                      A
 Frequencies --    731.3299               739.7039               754.6347
 Red. masses --      1.3316                 1.1848                 2.1024
 Frc consts  --      0.4196                 0.3820                 0.7054
 IR Inten    --    172.7069                 1.6102                24.3520

                     43                     44                     45
                      A                      A                      A
 Frequencies --    767.0130               776.8003               812.9313
 Red. masses --      1.2555                 3.5986                 1.4030
 Frc consts  --      0.4352                 1.2794                 0.5463
 IR Inten    --      3.2717                 7.0324                 8.5333

                     46                     47                     48
                      A                      A                      A
 Frequencies --    841.6575               861.6442               893.6090
 Red. masses --      1.4789                 1.8317                 1.9677
 Frc consts  --      0.6173                 0.8012                 0.9258
 IR Inten    --      0.3869                55.8428                 3.6409

                     49                     50                     51
                      A                      A                      A
 Frequencies --    906.5694               928.2142               964.6065
 Red. masses --      1.6735                 5.3624                 1.3371
 Frc consts  --      0.8104                 2.7221                 0.7330
 IR Inten    --     29.9512                63.0247                 3.7422

                     52                     53                     54
                      A                      A                      A
 Frequencies --    967.4875               973.2414               986.4382
 Red. masses --      1.4134                 1.2461                 4.4095
 Frc consts  --      0.7795                 0.6954                 2.5280
 IR Inten    --      0.1628                 0.5875                37.7263

                     55                     56                     57
                      A                      A                      A
 Frequencies --    995.9777              1014.9953              1019.4688
 Red. masses --      4.0619                 2.5793                 2.2925
 Frc consts  --      2.3740                 1.5656                 1.4038
 IR Inten    --      3.3145               179.0976                55.0170

                     58                     59                     60
                      A                      A                      A
 Frequencies --   1028.3526              1043.7414              1050.5538
 Red. masses --      2.2502                 1.6530                 2.6750
 Frc consts  --      1.4020                 1.0610                 1.7395
 IR Inten    --     63.6975               246.1874                11.2007

                     61                     62                     63
                      A                      A                      A
 Frequencies --   1061.1398              1064.2189              1071.4293
 Red. masses --      2.5350                 2.2116                 2.6688
 Frc consts  --      1.6818                 1.4757                 1.8051
 IR Inten    --      3.2411                 2.2057                 8.8615

                     64                     65                     66
                      A                      A                      A
 Frequencies --   1094.7073              1113.3451              1127.1747
 Red. masses --      2.4019                 1.8460                 1.6257
 Frc consts  --      1.6959                 1.3482                 1.2169
 IR Inten    --     80.1189               163.9967                19.7662

                     67                     68                     69
                      A                      A                      A
 Frequencies --   1135.6321              1159.6945              1178.5723
 Red. masses --      2.7147                 2.0451                 1.8436
 Frc consts  --      2.0627                 1.6205                 1.5088
 IR Inten    --      5.4960                54.0293               102.0342

                     70                     71                     72
                      A                      A                      A
 Frequencies --   1204.7384              1229.2624              1230.6909
 Red. masses --      1.7771                 1.2548                 2.4569
 Frc consts  --      1.5196                 1.1171                 2.1925
 IR Inten    --      1.9997                 0.4143               188.5577

                     73                     74                     75
                      A                      A                      A
 Frequencies --   1245.5353              1269.1528              1277.6545
 Red. masses --      1.5520                 1.3652                 1.7230
 Frc consts  --      1.4186                 1.2956                 1.6571
 IR Inten    --     76.1238                15.3456                14.8312

                     76                     77                     78
                      A                      A                      A
 Frequencies --   1287.5488              1309.5239              1313.4363
 Red. masses --      1.5763                 1.3458                 1.3567
 Frc consts  --      1.5396                 1.3597                 1.3790
 IR Inten    --    137.2281                33.0029                90.1887

                     79                     80                     81
                      A                      A                      A
 Frequencies --   1315.5269              1322.1986              1326.0729
 Red. masses --      4.8629                 1.0242                 1.1565
 Frc consts  --      4.9584                 1.0549                 1.1982
 IR Inten    --    509.5358                 3.0729                83.0159

                     82                     83                     84
                      A                      A                      A
 Frequencies --   1330.0768              1332.3385              1341.5079
 Red. masses --      1.1030                 1.1156                 1.4012
 Frc consts  --      1.1497                 1.1668                 1.4857
 IR Inten    --      7.7397                17.9209                63.0800

                     85                     86                     87
                      A                      A                      A
 Frequencies --   1346.9618              1365.6722              1379.2423
 Red. masses --      1.5833                 1.6688                 2.5837
 Frc consts  --      1.6925                 1.8337                 2.8958
 IR Inten    --     37.4864               122.2995               853.5166

                     88                     89                     90
                      A                      A                      A
 Frequencies --   1382.5695              1392.4285              1395.0376
 Red. masses --      2.0452                 1.6030                 1.6177
 Frc consts  --      2.3034                 1.8312                 1.8548
 IR Inten    --    521.7115                 1.3167                 2.3571

                     91                     92                     93
                      A                      A                      A
 Frequencies --   1403.4572              1419.9269              1435.3752
 Red. masses --      1.2605                 4.8218                 2.5388
 Frc consts  --      1.4628                 5.7278                 3.0818
 IR Inten    --      2.1293                81.7684               115.5888

                     94                     95                     96
                      A                      A                      A
 Frequencies --   1458.5562              1459.7457              1470.1922
 Red. masses --      1.5700                 1.6130                 1.0724
 Frc consts  --      1.9678                 2.0251                 1.3658
 IR Inten    --     17.4343                54.5662                 0.2020

                     97                     98                     99
                      A                      A                      A
 Frequencies --   1470.9710              1474.7182              1480.8344
 Red. masses --      1.0713                 1.0751                 1.0788
 Frc consts  --      1.3657                 1.3776                 1.3938
 IR Inten    --      0.6650                 0.4276                 1.8305

                    100                    101                    102
                      A                      A                      A
 Frequencies --   1487.9170              1488.2631              1495.8519
 Red. masses --      1.0428                 1.0819                 1.0923
 Frc consts  --      1.3603                 1.4118                 1.4400
 IR Inten    --     10.1841                 0.3947                 3.5882

                    103                    104                    105
                      A                      A                      A
 Frequencies --   1502.5224              1507.2085              1516.1043
 Red. masses --      1.0966                 1.0986                 4.2623
 Frc consts  --      1.4586                 1.4704                 5.7723
 IR Inten    --      0.1771                23.7746                 6.5034

                    106                    107                    108
                      A                      A                      A
 Frequencies --   1544.1207              1594.6568              1612.3168
 Red. masses --      5.2321                 5.2373                 5.8390
 Frc consts  --      7.3501                 7.8469                 8.9432
 IR Inten    --    295.6711               145.3313                12.3254

                    109                    110                    111
                      A                      A                      A
 Frequencies --   2984.3066              2986.8051              2989.2655
 Red. masses --      1.0573                 1.0573                 1.0574
 Frc consts  --      5.5482                 5.5574                 5.5669
 IR Inten    --     14.1644                 5.7549                 3.8771

                    112                    113                    114
                      A                      A                      A
 Frequencies --   2990.5711              2996.4795              3001.1009
 Red. masses --      1.0585                 1.0592                 1.0970
 Frc consts  --      5.5779                 5.6034                 5.8214
 IR Inten    --      1.9637               162.0352                 1.7155

                    115                    116                    117
                      A                      A                      A
 Frequencies --   3002.4884              3002.9034              3004.2863
 Red. masses --      1.0594                 1.0591                 1.0978
 Frc consts  --      5.6271                 5.6270                 5.8380
 IR Inten    --    165.9985                43.7681                 6.0753

                    118                    119                    120
                      A                      A                      A
 Frequencies --   3009.4117              3011.9539              3012.8326
 Red. masses --      1.0726                 1.0915                 1.0355
 Frc consts  --      5.7235                 5.8342                 5.5377
 IR Inten    --    169.7307                57.9930                56.2354

                    121                    122                    123
                      A                      A                      A
 Frequencies --   3022.0342              3031.9331              3037.3847
 Red. masses --      1.1029                 1.1029                 1.1030
 Frc consts  --      5.9344                 5.9737                 5.9957
 IR Inten    --      9.1813                 5.9149                 6.1997

                    124                    125                    126
                      A                      A                      A
 Frequencies --   3042.8443              3057.3166              3071.4944
 Red. masses --      1.1054                 1.1048                 1.1026
 Frc consts  --      6.0300                 6.0846                 6.1288
 IR Inten    --    321.9291               158.7949               118.1833

                    127                    128                    129
                      A                      A                      A
 Frequencies --   3076.2193              3134.5226              3149.8742
 Red. masses --      1.1011                 1.0842                 1.0878
 Frc consts  --      6.1393                 6.2762                 6.3588
 IR Inten    --     73.2094                15.2835                24.0711

                    130                    131                    132
                      A                      A                      A
 Frequencies --   3163.8146              3170.0841              3380.8955
 Red. masses --      1.0915                 1.0943                 1.0637
 Frc consts  --      6.4370                 6.4794                 7.1638
 IR Inten    --     59.8136                73.6068               268.4899

 - Thermochemistry -
 -------------------
 Temperature   298.150 Kelvin.  Pressure   1.00000 Atm.
 Atom     1 has atomic number  6 and mass  12.00000

 Molecular mass:   300.17254 amu.
 Principal axes and moments of inertia in atomic units:
                           1         2         3
     Eigenvalues --  2509.90255********************
           X            0.82904   0.51396   0.22031
           Y           -0.35895   0.79123  -0.49510
           Z           -0.42878   0.33137   0.84044
 This molecule is an asymmetric top.
 Rotational symmetry number  1.
 Warning -- assumption of classical behavior for rotation
           may cause significant error
 Rotational temperatures (Kelvin)      0.03451     0.00341     0.00323
 Rotational constants (GHZ):           0.71905     0.07100     0.06725
 Zero-point vibrational energy    1014933.1 (Joules/Mol)
                                  242.57483 (Kcal/Mol)
 Warning -- explicit consideration of  32 degrees of freedom as
           vibrations may cause significant error
 Vibrational temperatures:     26.59    33.05    39.16    65.18    82.59
          (Kelvin)            117.82   137.16   150.24   174.49   190.91
                              207.45   215.83   230.88   236.15   260.06
                              329.91   350.46   359.41   420.50   427.22
                              452.83   484.39   513.95   525.51   576.19
                              632.64   654.59   656.99   700.70   715.91
                              764.37   807.95   915.16   959.94   989.72
                              998.36  1015.01  1045.72  1049.10  1052.22
                             1064.27  1085.75  1103.56  1117.64  1169.63
                             1210.96  1239.71  1285.70  1304.35  1335.49
                             1387.85  1392.00  1400.28  1419.26  1432.99
                             1460.35  1466.79  1479.57  1501.71  1511.51
                             1526.74  1531.17  1541.55  1575.04  1601.86
                             1621.75  1633.92  1668.54  1695.70  1733.35
                             1768.63  1770.69  1792.05  1826.03  1838.26
                             1852.50  1884.11  1889.74  1892.75  1902.35
                             1907.92  1913.68  1916.94  1930.13  1937.98
                             1964.90  1984.42  1989.21  2003.39  2007.15
                             2019.26  2042.96  2065.18  2098.54  2100.25
                             2115.28  2116.40  2121.79  2130.59  2140.78
                             2141.28  2152.20  2161.79  2168.54  2181.34
                             2221.65  2294.36  2319.76  4293.75  4297.35
                             4300.89  4302.76  4311.27  4317.91  4319.91
                             4320.51  4322.50  4329.87  4333.53  4334.79
                             4348.03  4362.28  4370.12  4377.97  4398.80
                             4419.20  4425.99  4509.88  4531.97  4552.02
                             4561.04  4864.35

 Zero-point correction=                           0.386568 (Hartree/Particle)
 Thermal correction to Energy=                    0.408800
 Thermal correction to Enthalpy=                  0.409744
 Thermal correction to Gibbs Free Energy=         0.332489
 Sum of electronic and zero-point Energies=           -964.303473
 Sum of electronic and thermal Energies=              -964.281241
 Sum of electronic and thermal Enthalpies=            -964.280296
 Sum of electronic and thermal Free Energies=         -964.357552

                     E (Thermal)             CV                S
                      KCal/Mol        Cal/Mol-Kelvin    Cal/Mol-Kelvin
 Total                  256.526             83.877            162.598
 Electronic               0.000              0.000              0.000
 Translational            0.889              2.981             42.994
 Rotational               0.889              2.981             35.791
 Vibrational            254.748             77.915             83.812
 Vibration     1          0.593              1.986              6.791
 Vibration     2          0.593              1.985              6.359
 Vibration     3          0.593              1.984              6.023
 Vibration     4          0.595              1.979              5.013
 Vibration     5          0.596              1.975              4.544
 Vibration     6          0.600              1.962              3.845
 Vibration     7          0.603              1.953              3.548
 Vibration     8          0.605              1.946              3.370
 Vibration     9          0.609              1.931              3.080
 Vibration    10          0.613              1.921              2.907
 Vibration    11          0.616              1.909              2.748
 Vibration    12          0.618              1.903              2.672
 Vibration    13          0.622              1.891              2.544
 Vibration    14          0.623              1.886              2.502
 Vibration    15          0.630              1.866              2.321
 Vibration    16          0.652              1.796              1.884
 Vibration    17          0.659              1.773              1.777
 Vibration    18          0.663              1.763              1.732
 Vibration    19          0.688              1.688              1.461
 Vibration    20          0.691              1.679              1.434
 Vibration    21          0.702              1.646              1.337
 Vibration    22          0.717              1.602              1.228
 Vibration    23          0.732              1.560              1.134
 Vibration    24          0.738              1.544              1.100
 Vibration    25          0.766              1.469              0.961
 Vibration    26          0.800              1.384              0.828
 Vibration    27          0.813              1.350              0.781
 Vibration    28          0.815              1.346              0.776
 Vibration    29          0.843              1.279              0.691
 Vibration    30          0.853              1.255              0.664
 Vibration    31          0.886              1.181              0.584
 Vibration    32          0.917              1.114              0.521

 Optimization completed.
    -- Stationary point found.
 Normal termination of Gaussian 16 at Sun Feb 11 06:27:16 2024.
