 Gaussian 16, Revision A.03,
 Gaussian 16:  ES64L-G16RevA.03 25-Dec-2016

 ----------------------------------------------------------------------
 #P UB3LYP/6-311++G(d,p) nosym opt freq SCRF=(PCM,Solvent=n,n-DiMethylF
 ormamide)
 ----------------------------------------------------------------------

 --------
 Oxidized
 --------
 Symbolic Z-matrix:
 Charge =  0 Multiplicity = 1

 SCF Done:  E(UB3LYP) =  -771.223165405     A.U. after   15 cycles
 SCF Done:  E(UB3LYP) =  -771.223244304     A.U. after   11 cycles
 SCF Done:  E(UB3LYP) =  -771.223244668     A.U. after   10 cycles
 SCF Done:  E(UB3LYP) =  -771.223256999     A.U. after   10 cycles
 SCF Done:  E(UB3LYP) =  -771.223257546     A.U. after    9 cycles
 SCF Done:  E(UB3LYP) =  -771.223257930     A.U. after    9 cycles
 SCF Done:  E(UB3LYP) =  -771.223258068     A.U. after    7 cycles
 SCF Done:  E(UB3LYP) =  -771.223258233     A.U. after    8 cycles
 SCF Done:  E(UB3LYP) =  -771.223258380     A.U. after    8 cycles
 SCF Done:  E(UB3LYP) =  -771.223258479     A.U. after    8 cycles
 SCF Done:  E(UB3LYP) =  -771.223258566     A.U. after    8 cycles
 SCF Done:  E(UB3LYP) =  -771.223258617     A.U. after    8 cycles
 SCF Done:  E(UB3LYP) =  -771.223258638     A.U. after    8 cycles
 Optimization completed.
    -- Stationary point found.
 Normal termination of Gaussian 16 at Sun Feb 11 01:24:28 2024.

 ----------------------------------------------------------------------
 #P Geom=AllCheck Guess=TCheck SCRF=Check GenChk UB3LYP/6-311++G(d,p) F
 req
 ----------------------------------------------------------------------

 Structure from the checkpoint file:  "248.chk"
 --------
 Oxidized
 --------
 Charge =  0 Multiplicity = 1

                          Input orientation:
 ---------------------------------------------------------------------
 Center     Atomic      Atomic             Coordinates (Angstroms)
 Number     Number       Type             X           Y           Z
 ---------------------------------------------------------------------
      1          6           0        5.873738   -5.564145    0.878815
      2          6           0        6.394212   -5.549022   -0.412257
      3          6           0        5.980638   -4.573855   -1.322833
      4          6           0        4.936187   -4.603566    1.265848
      5          6           0        4.521406   -3.624145    0.352226
      6          6           0        5.047302   -3.613696   -0.941969
      7          6           0        4.376084   -4.618542    2.643336
      8          6           0        3.366746   -3.586963    3.029088
      9          6           0        2.979378   -2.623768    2.153856
     10          6           0        3.526101   -2.595823    0.761071
     11          8           0        4.732643   -5.462042    3.458368
     12          8           0        3.157689   -1.736138   -0.030992
     13          1           0        7.120996   -6.295495   -0.710420
     14          6           0        1.968907   -1.551684    2.474818
     15          1           0        6.386563   -4.563621   -2.327555
     16          6           0        2.851198   -3.714533    4.434294
     17          6           0        0.519746   -1.978999    2.155797
     18          6           0       -0.496931   -0.869382    2.443069
     19          6           0       -1.942699   -1.276050    2.135822
     20          6           0       -2.955625   -0.163855    2.423966
     21          1           0        6.185285   -6.314247    1.594601
     22          1           0        4.718663   -2.851931   -1.637447
     23          1           0        2.208748   -0.664212    1.885944
     24          1           0        2.041601   -1.270183    3.527038
     25          1           0        2.442646   -4.715676    4.594527
     26          1           0        2.079177   -2.984790    4.663421
     27          1           0        3.669496   -3.597619    5.150973
     28          1           0        0.267109   -2.869739    2.742350
     29          1           0        0.455402   -2.271088    1.101993
     30          1           0       -0.238341    0.019641    1.853800
     31          1           0       -0.421308   -0.572132    3.497014
     32          1           0       -2.199778   -2.165177    2.724170
     33          1           0       -2.016997   -1.573646    1.082897
     34          1           0       -2.928111    0.131666    3.477709
     35          1           0       -3.975757   -0.484875    2.195026
     36          1           0       -2.744425    0.727270    1.824196
 ---------------------------------------------------------------------

 SCF Done:  E(UB3LYP) =  -771.223258638     A.U. after    1 cycles

 Alpha  occ. eigenvalues --  -19.13336 -19.13306 -10.28199 -10.28126 -10.21445
 Alpha  occ. eigenvalues --  -10.21185 -10.20741 -10.20689 -10.19866 -10.19836
 Alpha  occ. eigenvalues --  -10.19800 -10.19777 -10.17720 -10.17484 -10.17074
 Alpha  occ. eigenvalues --  -10.16390 -10.16366 -10.15632  -1.06569  -1.06372
 Alpha  occ. eigenvalues --   -0.89060  -0.85380  -0.80700  -0.78751  -0.77815
 Alpha  occ. eigenvalues --   -0.76301  -0.72601  -0.69097  -0.67626  -0.63838
 Alpha  occ. eigenvalues --   -0.62220  -0.59862  -0.58319  -0.57990  -0.55150
 Alpha  occ. eigenvalues --   -0.52023  -0.50081  -0.48282  -0.47240  -0.46179
 Alpha  occ. eigenvalues --   -0.45982  -0.45661  -0.45193  -0.43814  -0.43215
 Alpha  occ. eigenvalues --   -0.42747  -0.41688  -0.41297  -0.40779  -0.40314
 Alpha  occ. eigenvalues --   -0.39621  -0.38512  -0.37741  -0.37143  -0.36877
 Alpha  occ. eigenvalues --   -0.36317  -0.34052  -0.33394  -0.33039  -0.32548
 Alpha  occ. eigenvalues --   -0.29087  -0.28869  -0.27893  -0.27303  -0.27143
 Alpha virt. eigenvalues --   -0.12387  -0.05714  -0.03006  -0.00839  -0.00137
 Alpha virt. eigenvalues --    0.00392   0.01065   0.01167   0.01784   0.02354
 Alpha virt. eigenvalues --    0.02528   0.03086   0.03227   0.03789   0.04220

  Beta  occ. eigenvalues --  -19.13336 -19.13306 -10.28199 -10.28126 -10.21445
  Beta  occ. eigenvalues --  -10.21185 -10.20741 -10.20689 -10.19866 -10.19836
  Beta  occ. eigenvalues --  -10.19800 -10.19777 -10.17720 -10.17484 -10.17074
  Beta  occ. eigenvalues --  -10.16390 -10.16366 -10.15632  -1.06569  -1.06372
  Beta  occ. eigenvalues --   -0.89060  -0.85380  -0.80700  -0.78751  -0.77815
  Beta  occ. eigenvalues --   -0.76301  -0.72601  -0.69097  -0.67626  -0.63838
  Beta  occ. eigenvalues --   -0.62220  -0.59862  -0.58319  -0.57990  -0.55150
  Beta  occ. eigenvalues --   -0.52023  -0.50081  -0.48282  -0.47240  -0.46179
  Beta  occ. eigenvalues --   -0.45982  -0.45661  -0.45193  -0.43814  -0.43215
  Beta  occ. eigenvalues --   -0.42747  -0.41688  -0.41297  -0.40779  -0.40314
  Beta  occ. eigenvalues --   -0.39621  -0.38512  -0.37741  -0.37143  -0.36877
  Beta  occ. eigenvalues --   -0.36317  -0.34052  -0.33394  -0.33039  -0.32548
  Beta  occ. eigenvalues --   -0.29087  -0.28869  -0.27893  -0.27303  -0.27143
  Beta virt. eigenvalues --   -0.12387  -0.05714  -0.03006  -0.00839  -0.00137
  Beta virt. eigenvalues --    0.00392   0.01065   0.01167   0.01784   0.02354
  Beta virt. eigenvalues --    0.02528   0.03086   0.03227   0.03789   0.04220

 Mulliken charges and spin densities:
               1          2
     1  C    0.225047   0.000000
     2  C   -0.455441  -0.000000
     3  C   -0.370843   0.000000
     4  C    0.135132   0.000000
     5  C   -0.100966   0.000000
     6  C    0.195109   0.000000
     7  C   -0.408093   0.000000
     8  C    0.785288  -0.000000
     9  C    1.102645  -0.000000
    10  C   -1.022836   0.000000
    11  O   -0.277806  -0.000000
    12  O   -0.264285   0.000000
    13  H    0.203973  -0.000000
    14  C   -0.533261  -0.000000
    15  H    0.203794   0.000000
    16  C   -0.416111   0.000000
    17  C   -0.548326   0.000000
    18  C   -0.191273   0.000000
    19  C   -0.185545  -0.000000
    20  C   -0.657422   0.000000
    21  H    0.189473   0.000000
    22  H    0.189391  -0.000000
    23  H    0.218809  -0.000000
    24  H    0.205856  -0.000000
    25  H    0.190072   0.000000
    26  H    0.140589  -0.000000
    27  H    0.200095   0.000000
    28  H    0.141318  -0.000000
    29  H    0.176465   0.000000
    30  H    0.115095   0.000000
    31  H    0.121654   0.000000
    32  H    0.132916   0.000000
    33  H    0.131852  -0.000000
    34  H    0.141074  -0.000000
    35  H    0.145055  -0.000000
    36  H    0.141503   0.000000
 Sum of Mulliken charges =  -0.00000   0.00000

 Dipole moment (field-independent basis, Debye):
    X=              0.0414    Y=             -0.2684    Z=             -0.4833  Tot=              0.5543
 Quadrupole moment (field-independent basis, Debye-Ang):
   XX=           -101.1275   YY=           -112.2737   ZZ=           -106.2550
   XY=             -3.6211   XZ=            -14.5756   YZ=             14.0417

  Exact polarizability: 250.104 -74.317 265.554 -27.477 -32.195 295.994
 Approx polarizability: 262.908 -79.811 319.036 -13.515 -63.434 348.765

                      1                      2                      3
                      A                      A                      A
 Frequencies --     23.3989                29.8650                46.2144
 Red. masses --      4.4330                 5.5447                 1.9742
 Frc consts  --      0.0014                 0.0029                 0.0025
 IR Inten    --      1.0355                 2.7388                 2.4118

                      4                      5                      6
                      A                      A                      A
 Frequencies --     60.9611                84.4873                99.7329
 Red. masses --      2.9223                 1.1202                 2.6124
 Frc consts  --      0.0064                 0.0047                 0.0153
 IR Inten    --      6.9659                 1.1446                 0.0995

                      7                      8                      9
                      A                      A                      A
 Frequencies --    103.1353               111.9037               140.1651
 Red. masses --      3.3349                 4.9319                 1.8229
 Frc consts  --      0.0209                 0.0364                 0.0211
 IR Inten    --      0.0109                 0.0164                 0.0257

                     10                     11                     12
                      A                      A                      A
 Frequencies --    157.6685               180.7082               243.4929
 Red. masses --      4.0108                 5.1366                 1.1232
 Frc consts  --      0.0587                 0.0988                 0.0392
 IR Inten    --      0.6391                 0.5153                 0.0285

                     13                     14                     15
                      A                      A                      A
 Frequencies --    252.2250               281.7059               332.7564
 Red. masses --      4.0380                 4.3579                 3.5337
 Frc consts  --      0.1514                 0.2038                 0.2305
 IR Inten    --      1.4093                 0.5070                 0.3608

                     16                     17                     18
                      A                      A                      A
 Frequencies --    347.4837               362.5240               393.4111
 Red. masses --      3.8295                 2.7156                 6.8877
 Frc consts  --      0.2724                 0.2103                 0.6281
 IR Inten    --      0.9902                 1.1604                14.7391

                     19                     20                     21
                      A                      A                      A
 Frequencies --    406.2578               419.9914               425.9932
 Red. masses --      3.5289                 6.7254                 3.3257
 Frc consts  --      0.3432                 0.6990                 0.3556
 IR Inten    --      0.5373                19.6727                 1.3600

                     22                     23                     24
                      A                      A                      A
 Frequencies --    443.3522               473.8381               516.7885
 Red. masses --      5.1435                 5.1448                 6.3643
 Frc consts  --      0.5957                 0.6806                 1.0014
 IR Inten    --     13.4103                 5.8533                 3.0298

                     25                     26                     27
                      A                      A                      A
 Frequencies --    565.3496               641.6130               675.1650
 Red. masses --      4.7562                 5.5198                 5.9123
 Frc consts  --      0.8957                 1.3388                 1.5879
 IR Inten    --      3.5989                 8.2741                 4.5696

                     28                     29                     30
                      A                      A                      A
 Frequencies --    680.0959               703.2974               730.0746
 Red. masses --      3.2052                 4.0623                 1.3328
 Frc consts  --      0.8735                 1.1839                 0.4185
 IR Inten    --      4.7049                17.3921                35.5132

                     31                     32                     33
                      A                      A                      A
 Frequencies --    731.6295               756.3320               797.8527
 Red. masses --      1.8127                 1.2770                 2.4038
 Frc consts  --      0.5717                 0.4304                 0.9016
 IR Inten    --     68.8487                 0.2040                17.5666

                     34                     35                     36
                      A                      A                      A
 Frequencies --    807.5449               810.8016               856.1425
 Red. masses --      2.5046                 2.9514                 1.5441
 Frc consts  --      0.9623                 1.1432                 0.6669
 IR Inten    --      7.9912                 4.1985                 2.6852

                     37                     38                     39
                      A                      A                      A
 Frequencies --    890.9247               912.1740               917.4103
 Red. masses --      2.1990                 1.3889                 2.4340
 Frc consts  --      1.0284                 0.6809                 1.2070
 IR Inten    --     16.4341                 0.2086                57.1852

                     40                     41                     42
                      A                      A                      A
 Frequencies --    968.8846               988.4851               996.9433
 Red. masses --      2.6222                 1.6999                 2.2001
 Frc consts  --      1.4503                 0.9786                 1.2883
 IR Inten    --     13.6843                39.3428                 2.7077

                     43                     44                     45
                      A                      A                      A
 Frequencies --   1000.3266              1021.5673              1028.2969
 Red. masses --      1.8057                 1.3298                 3.0568
 Frc consts  --      1.0646                 0.8176                 1.9044
 IR Inten    --      2.0313                 0.0059                 1.7588

                     46                     47                     48
                      A                      A                      A
 Frequencies --   1044.6639              1046.2443              1061.4390
 Red. masses --      1.6138                 2.2603                 2.3842
 Frc consts  --      1.0377                 1.4577                 1.5826
 IR Inten    --      1.7209                19.0225                 0.6519

                     49                     50                     51
                      A                      A                      A
 Frequencies --   1069.5671              1107.9669              1121.7559
 Red. masses --      1.6682                 2.2446                 2.2750
 Frc consts  --      1.1244                 1.6234                 1.6866
 IR Inten    --     31.8597                 2.4756                20.1078

                     52                     53                     54
                      A                      A                      A
 Frequencies --   1142.8376              1163.6329              1181.0064
 Red. masses --      2.0181                 2.1756                 1.2417
 Frc consts  --      1.5530                 1.7357                 1.0204
 IR Inten    --     30.8037                14.5552                 1.8057

                     55                     56                     57
                      A                      A                      A
 Frequencies --   1206.0548              1230.6648              1263.3739
 Red. masses --      2.2902                 1.5458                 1.3025
 Frc consts  --      1.9627                 1.3794                 1.2248
 IR Inten    --     15.3156                 9.7502                 5.5996

                     58                     59                     60
                      A                      A                      A
 Frequencies --   1277.3658              1290.8288              1302.1706
 Red. masses --      1.7976                 1.8672                 2.3362
 Frc consts  --      1.7281                 1.8331                 2.3340
 IR Inten    --     76.5196               274.3741               351.6389

                     61                     62                     63
                      A                      A                      A
 Frequencies --   1328.2167              1328.3750              1330.2608
 Red. masses --      1.4020                 1.2815                 1.0553
 Frc consts  --      1.4572                 1.3323                 1.1003
 IR Inten    --     17.0714                 0.8943                 2.3979

                     64                     65                     66
                      A                      A                      A
 Frequencies --   1348.5447              1360.6821              1369.9763
 Red. masses --      2.2437                 7.8024                 1.4166
 Frc consts  --      2.4040                 8.5112                 1.5664
 IR Inten    --     69.8624                31.3340                 4.8260

                     67                     68                     69
                      A                      A                      A
 Frequencies --   1392.7635              1403.8348              1407.6652
 Red. masses --      1.5776                 1.2403                 1.2863
 Frc consts  --      1.8030                 1.4402                 1.5017
 IR Inten    --      1.5444                 1.8734                42.9036

                     70                     71                     72
                      A                      A                      A
 Frequencies --   1461.1369              1465.7213              1472.8659
 Red. masses --      1.0901                 1.0537                 1.0648
 Frc consts  --      1.3712                 1.3337                 1.3610
 IR Inten    --      6.2653                12.2200                 0.9425

                     73                     74                     75
                      A                      A                      A
 Frequencies --   1480.4786              1481.8865              1488.2369
 Red. masses --      1.1820                 1.9259                 1.0400
 Frc consts  --      1.5265                 2.4918                 1.3572
 IR Inten    --      1.4084                 0.1854                10.3916

                     76                     77                     78
                      A                      A                      A
 Frequencies --   1490.6138              1499.5381              1506.0197
 Red. masses --      1.0925                 1.1199                 1.3069
 Frc consts  --      1.4302                 1.4837                 1.7464
 IR Inten    --      1.9372                 2.7181                13.4300

                     79                     80                     81
                      A                      A                      A
 Frequencies --   1507.5542              1613.3998              1620.4473
 Red. masses --      1.8417                 6.8097                 6.0312
 Frc consts  --      2.4662                10.4439                 9.3309
 IR Inten    --     20.3281                 5.2384               281.0876

                     82                     83                     84
                      A                      A                      A
 Frequencies --   1654.8435              1684.3531              1687.6680
 Red. masses --      8.0985                11.7001                11.5382
 Frc consts  --     13.0667                19.5572                19.3626
 IR Inten    --    106.5976               942.0857                13.1310

                     85                     86                     87
                      A                      A                      A
 Frequencies --   2994.4230              3003.9396              3013.9929
 Red. masses --      1.0575                 1.0592                 1.0580
 Frc consts  --      5.5870                 5.6313                 5.6628
 IR Inten    --     19.6290                58.7796                68.7882

                     88                     89                     90
                      A                      A                      A
 Frequencies --   3014.4003              3016.4053              3034.8692
 Red. masses --      1.0617                 1.0732                 1.1034
 Frc consts  --      5.6838                 5.7530                 5.9877
 IR Inten    --     21.4885                46.9294                22.2214

                     91                     92                     93
                      A                      A                      A
 Frequencies --   3040.5252              3053.4195              3058.5518
 Red. masses --      1.0413                 1.1038                 1.0597
 Frc consts  --      5.6720                 6.0635                 5.8405
 IR Inten    --     13.8451                74.4709                56.1175

                     94                     95                     96
                      A                      A                      A
 Frequencies --   3073.4028              3078.5091              3084.5386
 Red. masses --      1.1027                 1.1011                 1.0981
 Frc consts  --      6.1371                 6.1485                 6.1554
 IR Inten    --    116.3156                69.7199                11.7695

                     97                     98                     99
                      A                      A                      A
 Frequencies --   3098.9105              3154.5703              3178.0065
 Red. masses --      1.1043                 1.0973                 1.0874
 Frc consts  --      6.2485                 6.4335                 6.4704
 IR Inten    --     33.4287                20.1548                 3.3870

                    100                    101                    102
                      A                      A                      A
 Frequencies --   3190.4325              3202.6982              3205.7926
 Red. masses --      1.0913                 1.0926                 1.0955
 Frc consts  --      6.5450                 6.6028                 6.6332
 IR Inten    --     10.7105                 4.0725                17.0104

 - Thermochemistry -
 -------------------
 Temperature   298.150 Kelvin.  Pressure   1.00000 Atm.
 Atom     1 has atomic number  6 and mass  12.00000

 Molecular mass:   242.13068 amu.
 Principal axes and moments of inertia in atomic units:
                           1         2         3
     Eigenvalues --  2196.870398988.05538**********
           X            0.84043   0.04932   0.53967
           Y           -0.48478  -0.37667   0.78938
           Z           -0.24221   0.92503   0.29265
 This molecule is an asymmetric top.
 Rotational symmetry number  1.
 Warning -- assumption of classical behavior for rotation
           may cause significant error
 Rotational temperatures (Kelvin)      0.03943     0.00964     0.00815
 Rotational constants (GHZ):           0.82151     0.20079     0.16986
 Zero-point vibrational energy     788405.0 (Joules/Mol)
                                  188.43331 (Kcal/Mol)
 Warning -- explicit consideration of  25 degrees of freedom as
           vibrations may cause significant error
 Vibrational temperatures:     33.67    42.97    66.49    87.71   121.56
          (Kelvin)            143.49   148.39   161.00   201.67   226.85
                              260.00   350.33   362.90   405.31   478.76
                              499.95   521.59   566.03   584.51   604.27
                              612.91   637.88   681.75   743.54   813.41
                              923.14   971.41   978.51  1011.89  1050.41
                             1052.65  1088.19  1147.93  1161.88  1166.56
                             1231.80  1281.84  1312.41  1319.95  1394.01
                             1422.21  1434.38  1439.25  1469.81  1479.49
                             1503.04  1505.31  1527.17  1538.87  1594.12
                             1613.96  1644.29  1674.21  1699.20  1735.24
                             1770.65  1817.71  1837.84  1857.21  1873.53
                             1911.01  1911.24  1913.95  1940.26  1957.72
                             1971.09  2003.88  2019.81  2025.32  2102.25
                             2108.85  2119.13  2130.08  2132.10  2141.24
                             2144.66  2157.50  2166.83  2169.03  2321.32
                             2331.46  2380.95  2423.41  2428.18  4308.31
                             4322.00  4336.46  4337.05  4339.93  4366.50
                             4374.64  4393.19  4400.57  4421.94  4429.29
                             4437.96  4458.64  4538.72  4572.44  4590.32
                             4607.97  4612.42

 Zero-point correction=                           0.300288 (Hartree/Particle)
 Thermal correction to Energy=                    0.317891
 Thermal correction to Enthalpy=                  0.318835
 Thermal correction to Gibbs Free Energy=         0.252746
 Sum of electronic and zero-point Energies=           -770.922971
 Sum of electronic and thermal Energies=              -770.905368
 Sum of electronic and thermal Enthalpies=            -770.904423
 Sum of electronic and thermal Free Energies=         -770.970513

                     E (Thermal)             CV                S
                      KCal/Mol        Cal/Mol-Kelvin    Cal/Mol-Kelvin
 Total                  199.480             65.736            139.097
 Electronic               0.000              0.000              0.000
 Translational            0.889              2.981             42.354
 Rotational               0.889              2.981             33.705
 Vibrational            197.702             59.774             63.038
 Vibration     1          0.593              1.985              6.323
 Vibration     2          0.594              1.984              5.838
 Vibration     3          0.595              1.979              4.973
 Vibration     4          0.597              1.973              4.426
 Vibration     5          0.601              1.960              3.784
 Vibration     6          0.604              1.949              3.460
 Vibration     7          0.605              1.947              3.394
 Vibration     8          0.607              1.940              3.236
 Vibration     9          0.615              1.913              2.802
 Vibration    10          0.621              1.894              2.578
 Vibration    11          0.630              1.866              2.321
 Vibration    12          0.659              1.774              1.777
 Vibration    13          0.664              1.759              1.715
 Vibration    14          0.681              1.708              1.523
 Vibration    15          0.715              1.610              1.247
 Vibration    16          0.725              1.580              1.178
 Vibration    17          0.736              1.549              1.111
 Vibration    18          0.761              1.484              0.987
 Vibration    19          0.771              1.457              0.940
 Vibration    20          0.783              1.427              0.892
 Vibration    21          0.788              1.414              0.872
 Vibration    22          0.803              1.376              0.816
 Vibration    23          0.831              1.308              0.727
 Vibration    24          0.872              1.213              0.617
 Vibration    25          0.921              1.106              0.513

 Optimization completed.
    -- Stationary point found.
 Normal termination of Gaussian 16 at Sun Feb 11 03:17:33 2024.
