 Gaussian 16, Revision A.03,
 Gaussian 16:  ES64L-G16RevA.03 25-Dec-2016

 ----------------------------------------------------------------------
 #P UB3LYP/6-311++G(d,p) nosym opt freq SCRF=(PCM,Solvent=n,n-DiMethylF
 ormamide)
 ----------------------------------------------------------------------

 -------
 Reduced
 -------
 Symbolic Z-matrix:
 Charge = -2 Multiplicity = 1

 SCF Done:  E(UB3LYP) =  -725.326122308     A.U. after   17 cycles
 SCF Done:  E(UB3LYP) =  -725.327912162     A.U. after   14 cycles
 SCF Done:  E(UB3LYP) =  -725.328341885     A.U. after   13 cycles
 SCF Done:  E(UB3LYP) =  -725.328441452     A.U. after   13 cycles
 SCF Done:  E(UB3LYP) =  -725.328493589     A.U. after   12 cycles
 SCF Done:  E(UB3LYP) =  -725.328575570     A.U. after   12 cycles
 SCF Done:  E(UB3LYP) =  -725.328670206     A.U. after   13 cycles
 SCF Done:  E(UB3LYP) =  -725.328707581     A.U. after   12 cycles
 SCF Done:  E(UB3LYP) =  -725.328718423     A.U. after   11 cycles
 SCF Done:  E(UB3LYP) =  -725.328724106     A.U. after   11 cycles
 SCF Done:  E(UB3LYP) =  -725.328725247     A.U. after   11 cycles
 SCF Done:  E(UB3LYP) =  -725.328725425     A.U. after    9 cycles
 Optimization completed.
    -- Stationary point found.
 Normal termination of Gaussian 16 at Sun Feb 11 15:39:26 2024.

 ----------------------------------------------------------------------
 #P Geom=AllCheck Guess=TCheck SCRF=Check GenChk UB3LYP/6-311++G(d,p) F
 req
 ----------------------------------------------------------------------

 Structure from the checkpoint file:  "304-an.chk"
 -------
 Reduced
 -------
 Charge = -2 Multiplicity = 1

                          Input orientation:
 ---------------------------------------------------------------------
 Center     Atomic      Atomic             Coordinates (Angstroms)
 Number     Number       Type             X           Y           Z
 ---------------------------------------------------------------------
      1          6           0       -4.087131    3.619495    1.540717
      2          6           0       -4.565046    3.837881    0.265166
      3          6           0       -3.970108    3.185880   -0.843136
      4          6           0       -2.903824    2.329355   -0.618183
      5          6           0       -2.378469    2.072568    0.662712
      6          6           0       -2.993421    2.744398    1.792870
      7          6           0       -2.512505    2.529907    3.119846
      8          6           0       -1.434261    1.640998    3.232659
      9          6           0       -0.818034    0.974933    2.159679
     10          6           0       -1.251471    1.154881    0.829098
     11          8           0       -2.992682    3.089396    4.229573
     12          8           0       -0.700516    0.556571   -0.189195
     13          8           0       -0.987929    1.447488    4.529511
     14          8           0       -5.632839    4.711262    0.146771
     15          6           0       -6.171824    4.954636   -1.147929
     16          1           0       -4.556694    4.125647    2.376487
     17          1           0       -4.332097    3.344509   -1.850277
     18          1           0       -2.440475    1.823495   -1.458577
     19          1           0        0.014535    0.304544    2.358681
     20          1           0       -1.608745    2.036616    5.019506
     21          1           0       -6.992704    5.656256   -1.004104
     22          1           0       -6.559257    4.036971   -1.602891
     23          1           0       -5.429754    5.402904   -1.816885
 ---------------------------------------------------------------------

 SCF Done:  E(UB3LYP) =  -725.328725425     A.U. after    1 cycles

 Alpha  occ. eigenvalues --  -19.13982 -19.11179 -19.02093 -19.01805 -10.21210
 Alpha  occ. eigenvalues --  -10.21131 -10.17824 -10.17669 -10.15803 -10.15078
 Alpha  occ. eigenvalues --  -10.14837 -10.14392 -10.13978 -10.13547 -10.11727
 Alpha  occ. eigenvalues --   -1.04916  -1.02155  -0.92754  -0.91348  -0.82650
 Alpha  occ. eigenvalues --   -0.76577  -0.73648  -0.70789  -0.67905  -0.63990
 Alpha  occ. eigenvalues --   -0.59417  -0.57285  -0.54097  -0.51521  -0.49446
 Alpha  occ. eigenvalues --   -0.45946  -0.45767  -0.44971  -0.44069  -0.41246
 Alpha  occ. eigenvalues --   -0.40189  -0.39095  -0.38763  -0.37031  -0.36004
 Alpha  occ. eigenvalues --   -0.35937  -0.35268  -0.33485  -0.33125  -0.31589
 Alpha  occ. eigenvalues --   -0.30396  -0.30327  -0.28193  -0.22707  -0.21055
 Alpha  occ. eigenvalues --   -0.20927  -0.19721  -0.19386  -0.11308
 Alpha virt. eigenvalues --   -0.00558  -0.00035   0.00909   0.01547   0.02179
 Alpha virt. eigenvalues --    0.02707   0.02810   0.03868   0.04444   0.05281
 Alpha virt. eigenvalues --    0.05818   0.06534   0.06763   0.06987   0.08293

  Beta  occ. eigenvalues --  -19.13982 -19.11179 -19.02093 -19.01805 -10.21210
  Beta  occ. eigenvalues --  -10.21131 -10.17824 -10.17669 -10.15803 -10.15078
  Beta  occ. eigenvalues --  -10.14837 -10.14392 -10.13978 -10.13547 -10.11727
  Beta  occ. eigenvalues --   -1.04916  -1.02155  -0.92754  -0.91348  -0.82650
  Beta  occ. eigenvalues --   -0.76577  -0.73648  -0.70789  -0.67905  -0.63990
  Beta  occ. eigenvalues --   -0.59417  -0.57285  -0.54097  -0.51521  -0.49446
  Beta  occ. eigenvalues --   -0.45946  -0.45767  -0.44971  -0.44069  -0.41246
  Beta  occ. eigenvalues --   -0.40189  -0.39095  -0.38763  -0.37031  -0.36004
  Beta  occ. eigenvalues --   -0.35937  -0.35268  -0.33485  -0.33125  -0.31589
  Beta  occ. eigenvalues --   -0.30396  -0.30327  -0.28193  -0.22707  -0.21055
  Beta  occ. eigenvalues --   -0.20927  -0.19721  -0.19386  -0.11308
  Beta virt. eigenvalues --   -0.00558  -0.00035   0.00909   0.01547   0.02179
  Beta virt. eigenvalues --    0.02707   0.02810   0.03868   0.04444   0.05281
  Beta virt. eigenvalues --    0.05818   0.06534   0.06763   0.06987   0.08293

 Mulliken charges and spin densities:
               1          2
     1  C   -0.333796  -0.000000
     2  C   -0.489787   0.000000
     3  C    0.025836  -0.000000
     4  C    0.004777   0.000000
     5  C    0.370034   0.000000
     6  C    0.717290  -0.000000
     7  C   -0.916464   0.000000
     8  C   -0.316731   0.000000
     9  C    0.550829  -0.000000
    10  C   -0.634886   0.000000
    11  O   -0.757502  -0.000000
    12  O   -0.703151   0.000000
    13  O   -0.352419  -0.000000
    14  O   -0.240140  -0.000000
    15  C   -0.325871   0.000000
    16  H    0.162997   0.000000
    17  H    0.198388  -0.000000
    18  H    0.145412  -0.000000
    19  H    0.147080  -0.000000
    20  H    0.266640  -0.000000
    21  H    0.176868  -0.000000
    22  H    0.152750   0.000000
    23  H    0.151845   0.000000
 Sum of Mulliken charges =  -2.00000  -0.00000

 Dipole moment (field-independent basis, Debye):
    X=             17.9571    Y=            -17.9088    Z=            -20.8392  Tot=             32.8246
 Quadrupole moment (field-independent basis, Debye-Ang):
   XX=           -144.8388   YY=           -145.8239   ZZ=           -172.4954
   XY=             47.6912   XZ=             58.0876   YZ=            -58.8427

  Exact polarizability: 255.778 -95.757 212.686  40.694  -9.205 310.116
 Approx polarizability: 282.663-108.494 235.446  41.600  -5.750 352.240

                      1                      2                      3
                      A                      A                      A
 Frequencies --     46.8088                87.5777                94.1532
 Red. masses --      3.1970                 4.9721                 7.1901
 Frc consts  --      0.0041                 0.0225                 0.0376
 IR Inten    --      4.1062                15.3982                 0.7024

                      4                      5                      6
                      A                      A                      A
 Frequencies --    166.2583               169.0901               224.4935
 Red. masses --      7.6585                 5.3284                 1.3052
 Frc consts  --      0.1247                 0.0898                 0.0388
 IR Inten    --      6.2524                 8.4819                 0.2703

                      7                      8                      9
                      A                      A                      A
 Frequencies --    249.6867               283.2465               298.3355
 Red. masses --      3.8308                 4.1726                 5.7025
 Frc consts  --      0.1407                 0.1972                 0.2990
 IR Inten    --      0.8720                 7.1419                27.1306

                     10                     11                     12
                      A                      A                      A
 Frequencies --    315.7176               318.8112               360.3851
 Red. masses --      4.3104                 8.5705                 6.9247
 Frc consts  --      0.2531                 0.5132                 0.5299
 IR Inten    --      0.9692                 3.3286                 0.0703

                     13                     14                     15
                      A                      A                      A
 Frequencies --    399.8766               437.3052               454.3595
 Red. masses --      8.3651                 8.0825                 3.0467
 Frc consts  --      0.7881                 0.9107                 0.3706
 IR Inten    --      1.2662                10.6105                 9.4919

                     16                     17                     18
                      A                      A                      A
 Frequencies --    500.4087               545.5101               560.7114
 Red. masses --     10.8782                 4.7217                 3.8575
 Frc consts  --      1.6049                 0.8278                 0.7146
 IR Inten    --     17.0584                27.9691                25.8924

                     19                     20                     21
                      A                      A                      A
 Frequencies --    637.6515               643.9380               679.3748
 Red. masses --      6.0802                 2.3044                 6.9271
 Frc consts  --      1.4566                 0.5630                 1.8837
 IR Inten    --     15.6401                 1.4937                31.0155

                     22                     23                     24
                      A                      A                      A
 Frequencies --    690.4121               702.1978               703.0733
 Red. masses --      1.1784                 5.1760                 9.7987
 Frc consts  --      0.3309                 1.5037                 2.8538
 IR Inten    --    120.3073                12.9027                 0.4525

                     25                     26                     27
                      A                      A                      A
 Frequencies --    721.4362               754.3867               768.0406
 Red. masses --      3.0845                 6.2107                 1.4882
 Frc consts  --      0.9459                 2.0825                 0.5172
 IR Inten    --      1.4367               167.4803               105.5888

                     28                     29                     30
                      A                      A                      A
 Frequencies --    785.4563               858.4047               877.0051
 Red. masses --      2.1116                 1.4764                 5.0384
 Frc consts  --      0.7676                 0.6410                 2.2832
 IR Inten    --     37.0876                43.2697               209.7867

                     31                     32                     33
                      A                      A                      A
 Frequencies --    942.6749              1005.4926              1041.3337
 Red. masses --      1.3341                 3.8955                 3.4155
 Frc consts  --      0.6985                 2.3204                 2.1822
 IR Inten    --      3.0065               246.3855                90.7311

                     34                     35                     36
                      A                      A                      A
 Frequencies --   1088.7483              1132.3678              1156.2691
 Red. masses --      3.0649                 5.6665                 1.6066
 Frc consts  --      2.1406                 4.2809                 1.2656
 IR Inten    --     86.8974                21.3816                 2.7268

                     37                     38                     39
                      A                      A                      A
 Frequencies --   1164.6660              1173.4986              1181.3024
 Red. masses --      1.2705                 1.6745                 1.9667
 Frc consts  --      1.0154                 1.3586                 1.6170
 IR Inten    --      1.2337               768.2116               317.8596

                     40                     41                     42
                      A                      A                      A
 Frequencies --   1202.4850              1235.2407              1253.6292
 Red. masses --      2.5293                 2.2000                 2.9051
 Frc consts  --      2.1548                 1.9778                 2.6900
 IR Inten    --    391.1412                66.7202               132.5900

                     43                     44                     45
                      A                      A                      A
 Frequencies --   1311.9066              1329.6575              1377.0049
 Red. masses --      2.9580                 2.4655                 5.8650
 Frc consts  --      2.9995                 2.5683                 6.5523
 IR Inten    --    570.5897                91.3367              1035.0838

                     46                     47                     48
                      A                      A                      A
 Frequencies --   1407.5735              1429.9017              1457.8086
 Red. masses --      4.9151                 4.4349                 2.1294
 Frc consts  --      5.7376                 5.3426                 2.6663
 IR Inten    --     63.1541               558.7448               224.3916

                     49                     50                     51
                      A                      A                      A
 Frequencies --   1477.0758              1481.3359              1498.8182
 Red. masses --      1.3687                 1.0480                 1.0539
 Frc consts  --      1.7594                 1.3550                 1.3949
 IR Inten    --     18.9250                10.7023                42.1840

                     52                     53                     54
                      A                      A                      A
 Frequencies --   1523.4274              1551.8287              1590.4629
 Red. masses --      4.4020                 4.6598                 5.5482
 Frc consts  --      6.0193                 6.6116                 8.2690
 IR Inten    --     57.3096               521.2039               532.3699

                     55                     56                     57
                      A                      A                      A
 Frequencies --   1627.9739              3003.8461              3060.7740
 Red. masses --      7.1401                 1.0337                 1.1061
 Frc consts  --     11.1494                 5.4953                 6.1053
 IR Inten    --    151.9451               115.0537                67.8032

                     58                     59                     60
                      A                      A                      A
 Frequencies --   3123.1879              3134.1348              3161.6449
 Red. masses --      1.0997                 1.0885                 1.0875
 Frc consts  --      6.3198                 6.2994                 6.4047
 IR Inten    --     42.6336                88.4630                12.6464

                     61                     62                     63
                      A                      A                      A
 Frequencies --   3179.1954              3196.9963              3409.8376
 Red. masses --      1.0881                 1.0912                 1.0639
 Frc consts  --      6.4798                 6.5712                 7.2880
 IR Inten    --     19.2567                24.2102               227.3687

 - Thermochemistry -
 -------------------
 Temperature   298.150 Kelvin.  Pressure   1.00000 Atm.
 Atom     1 has atomic number  6 and mass  12.00000

 Molecular mass:   204.04226 amu.
 Principal axes and moments of inertia in atomic units:
                           1         2         3
     Eigenvalues --  1663.694914368.900706021.08461
           X            0.66831  -0.38587   0.63597
           Y           -0.47572   0.43556   0.76419
           Z            0.57188   0.81326  -0.10752
 This molecule is an asymmetric top.
 Rotational symmetry number  1.
 Warning -- assumption of classical behavior for rotation
           may cause significant error
 Rotational temperatures (Kelvin)      0.05206     0.01983     0.01439
 Rotational constants (GHZ):           1.08478     0.41309     0.29974
 Zero-point vibrational energy     432128.3 (Joules/Mol)
                                  103.28115 (Kcal/Mol)
 Warning -- explicit consideration of  18 degrees of freedom as
           vibrations may cause significant error
 Vibrational temperatures:     67.35   126.00   135.47   239.21   243.28
          (Kelvin)            323.00   359.24   407.53   429.24   454.25
                              458.70   518.51   575.33   629.18   653.72
                              719.98   784.87   806.74   917.44   926.48
                              977.47   993.35  1010.31  1011.57  1037.99
                             1085.39  1105.04  1130.10  1235.05  1261.81
                             1356.30  1446.68  1498.25  1566.47  1629.22
                             1663.61  1675.69  1688.40  1699.63  1730.11
                             1777.24  1803.69  1887.54  1913.08  1981.20
                             2025.18  2057.31  2097.46  2125.18  2131.31
                             2156.47  2191.87  2232.74  2288.32  2342.29
                             4321.86  4403.77  4493.57  4509.32  4548.90
                             4574.15  4599.76  4906.00

 Zero-point correction=                           0.164589 (Hartree/Particle)
 Thermal correction to Energy=                    0.177049
 Thermal correction to Enthalpy=                  0.177993
 Thermal correction to Gibbs Free Energy=         0.125706
 Sum of electronic and zero-point Energies=           -725.164136
 Sum of electronic and thermal Energies=              -725.151677
 Sum of electronic and thermal Enthalpies=            -725.150732
 Sum of electronic and thermal Free Energies=         -725.203020

                     E (Thermal)             CV                S
                      KCal/Mol        Cal/Mol-Kelvin    Cal/Mol-Kelvin
 Total                  111.100             48.676            110.048
 Electronic               0.000              0.000              0.000
 Translational            0.889              2.981             41.844
 Rotational               0.889              2.981             32.148
 Vibrational            109.322             42.714             36.056
 Vibration     1          0.595              1.979              4.948
 Vibration     2          0.601              1.958              3.713
 Vibration     3          0.603              1.953              3.572
 Vibration     4          0.624              1.884              2.477
 Vibration     5          0.625              1.881              2.446
 Vibration     6          0.649              1.804              1.923
 Vibration     7          0.662              1.763              1.733
 Vibration     8          0.682              1.705              1.514
 Vibration     9          0.691              1.677              1.426
 Vibration    10          0.703              1.644              1.332
 Vibration    11          0.705              1.638              1.316
 Vibration    12          0.735              1.554              1.120
 Vibration    13          0.766              1.470              0.963
 Vibration    14          0.798              1.389              0.835
 Vibration    15          0.813              1.351              0.783
 Vibration    16          0.856              1.249              0.657
 Vibration    17          0.901              1.150              0.554
 Vibration    18          0.916              1.116              0.522

                           ! Non-Optimized Parameters !
 Normal termination of Gaussian 16 at Sun Feb 11 16:12:47 2024.
