 Gaussian 16, Revision A.03,
 Gaussian 16:  ES64L-G16RevA.03 25-Dec-2016

 ----------------------------------------------------------------------
 #P UB3LYP/6-311++G(d,p) nosym opt freq SCRF=(PCM,Solvent=n,n-DiMethylF
 ormamide)
 ----------------------------------------------------------------------

 -------
 Radical
 -------
 Symbolic Z-matrix:
 Charge = -1 Multiplicity = 2

 SCF Done:  E(UB3LYP) =  -951.266118151     A.U. after   22 cycles
 SCF Done:  E(UB3LYP) =  -951.266375893     A.U. after   16 cycles
 SCF Done:  E(UB3LYP) =  -951.266516613     A.U. after   16 cycles
 SCF Done:  E(UB3LYP) =  -951.266529279     A.U. after   15 cycles
 SCF Done:  E(UB3LYP) =  -951.266532720     A.U. after   14 cycles
 SCF Done:  E(UB3LYP) =  -951.266534526     A.U. after   14 cycles
 SCF Done:  E(UB3LYP) =  -951.266535654     A.U. after   14 cycles
 SCF Done:  E(UB3LYP) =  -951.266536401     A.U. after   14 cycles
 SCF Done:  E(UB3LYP) =  -951.266536739     A.U. after   14 cycles
 SCF Done:  E(UB3LYP) =  -951.266536893     A.U. after   13 cycles
 SCF Done:  E(UB3LYP) =  -951.266536932     A.U. after   13 cycles
 Optimization completed.
    -- Stationary point found.
 Normal termination of Gaussian 16 at Sun Feb 11 15:58:44 2024.

 ----------------------------------------------------------------------
 #P Geom=AllCheck Guess=TCheck SCRF=Check GenChk UB3LYP/6-311++G(d,p) F
 req
 ----------------------------------------------------------------------

 Structure from the checkpoint file:  "301-rad.chk"
 -------
 Radical
 -------
 Charge = -1 Multiplicity = 2

                          Input orientation:
 ---------------------------------------------------------------------
 Center     Atomic      Atomic             Coordinates (Angstroms)
 Number     Number       Type             X           Y           Z
 ---------------------------------------------------------------------
      1          6           0       -0.704651    2.744026    0.627990
      2          6           0       -1.691713    2.572375   -0.329512
      3          6           0       -1.446209    1.770515   -1.454701
      4          6           0        0.548874    2.120649    0.483940
      5          6           0        0.799803    1.311260   -0.649593
      6          6           0       -0.214088    1.149477   -1.606094
      7          6           0        1.586784    2.300764    1.488129
      8          6           0        2.842418    1.641146    1.272961
      9          6           0        3.145556    0.833252    0.156377
     10          6           0        2.108645    0.623050   -0.862209
     11          8           0        1.451733    3.005846    2.539774
     12          8           0        2.264645   -0.091740   -1.866145
     13          8           0        3.754025    1.859791    2.243168
     14          1           0       -0.879363    3.359038    1.502337
     15          1           0       -2.653878    3.057986   -0.209355
     16          1           0       -2.217846    1.636104   -2.204360
     17          1           0       -0.010696    0.526914   -2.468535
     18          1           0        3.276757    2.442828    2.872722
     19          7           0        4.419101    0.304366    0.166983
     20          7           0        4.831964   -0.388949   -0.815005
     21          6           0        6.158159   -0.869382   -0.660614
     22          6           0        6.982485   -0.639481    0.456081
     23          6           0        6.655030   -1.632218   -1.728255
     24          6           0        7.944753   -2.156449   -1.686828
     25          6           0        8.757979   -1.926175   -0.576629
     26          6           0        8.268709   -1.165669    0.491114
     27          1           0        6.601434   -0.050614    1.279838
     28          1           0        6.012408   -1.803789   -2.584540
     29          1           0        8.314515   -2.744291   -2.519640
     30          1           0        9.762082   -2.333324   -0.540635
     31          1           0        8.898187   -0.984378    1.355884
 ---------------------------------------------------------------------

 SCF Done:  E(UB3LYP) =  -951.266536932     A.U. after    1 cycles

 Alpha  occ. eigenvalues --  -19.15606 -19.09616 -19.09031 -14.34677 -14.33853
 Alpha  occ. eigenvalues --  -10.24790 -10.23997 -10.23187 -10.20261 -10.19901
 Alpha  occ. eigenvalues --  -10.18670 -10.18434 -10.18091 -10.17916 -10.17907
 Alpha  occ. eigenvalues --  -10.17866 -10.17834 -10.17790 -10.17782 -10.17643
 Alpha  occ. eigenvalues --  -10.17476  -1.07996  -1.02712  -1.01063  -1.00641
 Alpha  occ. eigenvalues --   -0.87004  -0.86460  -0.82443  -0.78370  -0.75891
 Alpha  occ. eigenvalues --   -0.75252  -0.74356  -0.70028  -0.66754  -0.63273
 Alpha  occ. eigenvalues --   -0.61807  -0.60580  -0.58644  -0.57230  -0.54625
 Alpha  occ. eigenvalues --   -0.53315  -0.50513  -0.49286  -0.48278  -0.47214
 Alpha  occ. eigenvalues --   -0.45644  -0.45331  -0.45079  -0.43771  -0.43389
 Alpha  occ. eigenvalues --   -0.42683  -0.42580  -0.41837  -0.41058  -0.39913
 Alpha  occ. eigenvalues --   -0.39042  -0.38271  -0.38055  -0.36161  -0.35858
 Alpha  occ. eigenvalues --   -0.35710  -0.35181  -0.34773  -0.34516  -0.28334
 Alpha  occ. eigenvalues --   -0.27158  -0.26866  -0.26483  -0.26353  -0.26254
 Alpha  occ. eigenvalues --   -0.22739  -0.20813  -0.16385
 Alpha virt. eigenvalues --   -0.08050  -0.03523  -0.01853  -0.00874  -0.00425
 Alpha virt. eigenvalues --    0.00121   0.00756   0.01471   0.01897   0.01907
 Alpha virt. eigenvalues --    0.02964   0.03151   0.03987   0.04462   0.04970

  Beta  occ. eigenvalues --  -19.15473 -19.08933 -19.08748 -14.34698 -14.33665
  Beta  occ. eigenvalues --  -10.24737 -10.23722 -10.22935 -10.20291 -10.19867
  Beta  occ. eigenvalues --  -10.18709 -10.18336 -10.18122 -10.17931 -10.17879
  Beta  occ. eigenvalues --  -10.17858 -10.17794 -10.17764 -10.17748 -10.17609
  Beta  occ. eigenvalues --  -10.17440  -1.07607  -1.02369  -1.00680  -0.99526
  Beta  occ. eigenvalues --   -0.86838  -0.86398  -0.82157  -0.78101  -0.75738
  Beta  occ. eigenvalues --   -0.75212  -0.74235  -0.69373  -0.66374  -0.63099
  Beta  occ. eigenvalues --   -0.61649  -0.60462  -0.58530  -0.57023  -0.54474
  Beta  occ. eigenvalues --   -0.53217  -0.50353  -0.49050  -0.48159  -0.47089
  Beta  occ. eigenvalues --   -0.45593  -0.45013  -0.44169  -0.43714  -0.43321
  Beta  occ. eigenvalues --   -0.42611  -0.42171  -0.40923  -0.40801  -0.39011
  Beta  occ. eigenvalues --   -0.38891  -0.38086  -0.37266  -0.36054  -0.35643
  Beta  occ. eigenvalues --   -0.35214  -0.34671  -0.34485  -0.33530  -0.27497
  Beta  occ. eigenvalues --   -0.26731  -0.26159  -0.26033  -0.25934  -0.25717
  Beta  occ. eigenvalues --   -0.21740  -0.20630
  Beta virt. eigenvalues --   -0.10275  -0.07116  -0.02865  -0.01727  -0.00397
  Beta virt. eigenvalues --   -0.00147   0.00125   0.00781   0.01479   0.01910
  Beta virt. eigenvalues --    0.02336   0.02972   0.03162   0.04007   0.04653

 Mulliken charges and spin densities:
               1          2
     1  C    0.073748   0.080172
     2  C   -0.265305  -0.024809
     3  C   -0.423950   0.068902
     4  C    0.672422  -0.022611
     5  C    0.211545   0.051443
     6  C    0.075023  -0.019366
     7  C   -0.591610   0.159369
     8  C   -0.113926   0.155944
     9  C    0.184497   0.021607
    10  C   -0.502253   0.029243
    11  O   -0.489045   0.253641
    12  O   -0.372165   0.107161
    13  O   -0.250544   0.044957
    14  H    0.170704  -0.005287
    15  H    0.188912   0.001339
    16  H    0.186968  -0.004664
    17  H    0.172471   0.001280
    18  H    0.310324  -0.004623
    19  N   -0.214203  -0.034663
    20  N    0.100849   0.110293
    21  C   -0.345008  -0.030947
    22  C    0.203924   0.034929
    23  C   -0.106784   0.026867
    24  C   -0.154599  -0.012510
    25  C   -0.310918   0.031002
    26  C   -0.354690  -0.014353
    27  H    0.185336  -0.001934
    28  H    0.178635  -0.001888
    29  H    0.201208   0.000744
    30  H    0.171872  -0.001999
    31  H    0.206561   0.000762
 Sum of Mulliken charges =  -1.00000   1.00000

 Dipole moment (field-independent basis, Debye):
    X=            -14.3091    Y=             -4.3546    Z=             -0.8016  Tot=             14.9785
 Quadrupole moment (field-independent basis, Debye-Ang):
   XX=           -163.3780   YY=           -139.6263   ZZ=           -140.0488
   XY=            -12.0995   XZ=              4.9210   YZ=            -11.4546

  Exact polarizability: 679.305-218.181 309.876  -1.631 110.248 339.482
 Approx polarizability: 624.214-182.249 332.296   4.407 133.704 407.359

                      1                      2                      3
                      A                      A                      A
 Frequencies --     12.9361                31.7972                59.2489
 Red. masses --      4.0672                 6.6919                 6.1050
 Frc consts  --      0.0004                 0.0040                 0.0126
 IR Inten    --      1.1427                 4.8125                 6.2352

                      4                      5                      6
                      A                      A                      A
 Frequencies --     82.2793                87.3754               128.2129
 Red. masses --      7.5742                 7.5273                 5.4655
 Frc consts  --      0.0302                 0.0339                 0.0529
 IR Inten    --      1.4326                 3.5288                 0.6123

                      7                      8                      9
                      A                      A                      A
 Frequencies --    157.4681               179.1061               190.8587
 Red. masses --      8.6887                 6.4496                 8.3985
 Frc consts  --      0.1269                 0.1219                 0.1803
 IR Inten    --      1.0727                 2.2647                 5.0388

                     10                     11                     12
                      A                      A                      A
 Frequencies --    241.3109               251.1310               274.2926
 Red. masses --      6.1431                 5.8041                 6.3144
 Frc consts  --      0.2108                 0.2157                 0.2799
 IR Inten    --      4.6866                 1.1944                 5.9338

                     13                     14                     15
                      A                      A                      A
 Frequencies --    350.6361               352.5920               380.2345
 Red. masses --      5.7342                 5.9549                10.4015
 Frc consts  --      0.4154                 0.4362                 0.8860
 IR Inten    --      6.2055                19.8866                27.0699

                     16                     17                     18
                      A                      A                      A
 Frequencies --    419.0524               420.3537               430.4711
 Red. masses --      3.0324                10.3889                 6.0237
 Frc consts  --      0.3137                 1.0816                 0.6577
 IR Inten    --      0.1649                23.6639                 0.2046

                     19                     20                     21
                      A                      A                      A
 Frequencies --    444.1021               459.7456               474.2862
 Red. masses --      3.5680                 9.8374                 8.5541
 Frc consts  --      0.4146                 1.2251                 1.1337
 IR Inten    --      7.3886                24.8157                13.1808

                     22                     23                     24
                      A                      A                      A
 Frequencies --    519.8332               524.4846               569.1021
 Red. masses --      3.4757                 9.7792                 4.6463
 Frc consts  --      0.5534                 1.5850                 0.8866
 IR Inten    --      2.7220                 3.0335                 4.1947

                     25                     26                     27
                      A                      A                      A
 Frequencies --    601.4349               627.8620               663.9779
 Red. masses --      8.1941                 6.4937                 7.0327
 Frc consts  --      1.7463                 1.5083                 1.8268
 IR Inten    --     51.2151                 1.5479                 2.5658

                     28                     29                     30
                      A                      A                      A
 Frequencies --    682.8851               695.4948               701.9073
 Red. masses --      1.1112                 4.5118                 2.2577
 Frc consts  --      0.3053                 1.2858                 0.6553
 IR Inten    --    143.9668                25.3974                 4.5228

                     31                     32                     33
                      A                      A                      A
 Frequencies --    705.9766               711.9111               735.6517
 Red. masses --      6.8221                 2.9590                 6.8130
 Frc consts  --      2.0033                 0.8836                 2.1724
 IR Inten    --     27.6853               117.2098                 8.0766

                     34                     35                     36
                      A                      A                      A
 Frequencies --    757.3109               781.7347               795.8740
 Red. masses --      3.0554                 1.8391                 2.2432
 Frc consts  --      1.0324                 0.6622                 0.8372
 IR Inten    --     53.0542                28.4198                42.8548

                     37                     38                     39
                      A                      A                      A
 Frequencies --    850.8258               854.1161               889.0266
 Red. masses --      1.2578                 6.7950                 1.3615
 Frc consts  --      0.5365                 2.9206                 0.6340
 IR Inten    --      0.0736                10.2882                 0.1066

                     40                     41                     42
                      A                      A                      A
 Frequencies --    922.2418               933.9215               985.8618
 Red. masses --      6.2414                 1.4531                 1.3693
 Frc consts  --      3.1277                 0.7467                 0.7841
 IR Inten    --     78.6467                 8.9265                 2.5057

                     43                     44                     45
                      A                      A                      A
 Frequencies --    992.1790               992.4083              1002.8541
 Red. masses --      1.3786                 8.0872                 1.2852
 Frc consts  --      0.7996                 4.6928                 0.7615
 IR Inten    --      1.2613                83.3314                 0.2352

                     46                     47                     48
                      A                      A                      A
 Frequencies --   1003.8899              1007.7752              1035.8360
 Red. masses --      1.2954                 5.8976                 2.0877
 Frc consts  --      0.7692                 3.5290                 1.3198
 IR Inten    --      0.0264                21.4855                20.5672

                     49                     50                     51
                      A                      A                      A
 Frequencies --   1048.6913              1075.0545              1093.9318
 Red. masses --      2.1125                 5.1088                 1.5303
 Frc consts  --      1.3688                 3.4788                 1.0789
 IR Inten    --     40.8508               122.3404                35.6725

                     52                     53                     54
                      A                      A                      A
 Frequencies --   1109.3834              1140.6478              1162.3400
 Red. masses --      2.2386                 2.2399                 1.3518
 Frc consts  --      1.6233                 1.7170                 1.0760
 IR Inten    --     77.4950               602.5988                18.9848

                     55                     56                     57
                      A                      A                      A
 Frequencies --   1171.3998              1186.4431              1207.2349
 Red. masses --      1.1095                 1.4814                 2.6219
 Frc consts  --      0.8970                 1.2287                 2.2514
 IR Inten    --      4.5627               224.8847                 4.8356

                     58                     59                     60
                      A                      A                      A
 Frequencies --   1217.0308              1262.5267              1303.9320
 Red. masses --      2.5106                 2.4279                 4.2050
 Frc consts  --      2.1910                 2.2802                 4.2124
 IR Inten    --     78.6229                25.9436               341.5377

                     61                     62                     63
                      A                      A                      A
 Frequencies --   1312.0950              1331.0055              1339.9528
 Red. masses --      2.2680                 2.1420                 5.0538
 Frc consts  --      2.3005                 2.2358                 5.3463
 IR Inten    --    411.3107               542.0142                94.1370

                     64                     65                     66
                      A                      A                      A
 Frequencies --   1343.5762              1384.0334              1441.0106
 Red. masses --      3.4805                 4.0917                 4.5666
 Frc consts  --      3.7018                 4.6179                 5.5870
 IR Inten    --     35.5366              1294.8738               922.4566

                     67                     68                     69
                      A                      A                      A
 Frequencies --   1466.1154              1480.2075              1484.7403
 Red. masses --      3.0319                 2.5885                 2.8094
 Frc consts  --      3.8397                 3.3416                 3.6490
 IR Inten    --    131.1052                82.1200               216.1730

                     70                     71                     72
                      A                      A                      A
 Frequencies --   1508.4037              1516.5108              1558.0242
 Red. masses --      2.3063                 4.7714                 4.1067
 Frc consts  --      3.0917                 6.4653                 5.8735
 IR Inten    --     24.8698               705.3856                68.0120

                     73                     74                     75
                      A                      A                      A
 Frequencies --   1578.6032              1610.4292              1611.2329
 Red. masses --      8.4457                 5.8973                 6.6263
 Frc consts  --     12.4002                 9.0113                10.1353
 IR Inten    --    395.9909                 9.7892                 9.8683

                     76                     77                     78
                      A                      A                      A
 Frequencies --   1627.4003              1635.6382              3160.8875
 Red. masses --      5.8007                 6.8947                 1.0860
 Frc consts  --      9.0515                10.8678                 6.3930
 IR Inten    --      0.7751               107.2637                14.9055

                     79                     80                     81
                      A                      A                      A
 Frequencies --   3165.3407              3168.2801              3178.8200
 Red. masses --      1.0864                 1.0887                 1.0905
 Frc consts  --      6.4133                 6.4388                 6.4927
 IR Inten    --      7.4691                11.7847                21.1386

                     82                     83                     84
                      A                      A                      A
 Frequencies --   3179.4056              3188.5361              3192.3772
 Red. masses --      1.0920                 1.0971                 1.0924
 Frc consts  --      6.5040                 6.5719                 6.5596
 IR Inten    --     28.6138                57.2874                14.9628

                     85                     86                     87
                      A                      A                      A
 Frequencies --   3196.3460              3206.0882              3504.9709
 Red. masses --      1.0946                 1.0916                 1.0638
 Frc consts  --      6.5889                 6.6109                 7.6997
 IR Inten    --     41.6271                 8.0750               218.8460

 - Thermochemistry -
 -------------------
 Temperature   298.150 Kelvin.  Pressure   1.00000 Atm.
 Atom     1 has atomic number  6 and mass  12.00000

 Molecular mass:   278.06914 amu.
 Principal axes and moments of inertia in atomic units:
                           1         2         3
     Eigenvalues --  2234.73808********************
           X            0.90335   0.26894   0.33410
           Y           -0.42133   0.41082   0.80852
           Z           -0.08019   0.87115  -0.48443
 This molecule is an asymmetric top.
 Rotational symmetry number  1.
 Warning -- assumption of classical behavior for rotation
           may cause significant error
 Rotational temperatures (Kelvin)      0.03876     0.00724     0.00611
 Rotational constants (GHZ):           0.80759     0.15096     0.12722
 Zero-point vibrational energy     588099.2 (Joules/Mol)
                                  140.55909 (Kcal/Mol)
 Warning -- explicit consideration of  25 degrees of freedom as
           vibrations may cause significant error
 Vibrational temperatures:     18.61    45.75    85.25   118.38   125.71
          (Kelvin)            184.47   226.56   257.69   274.60   347.19
                              361.32   394.65   504.49   507.30   547.07
                              602.92   604.80   619.35   638.96   661.47
                              682.39   747.92   754.62   818.81   865.33
                              903.35   955.32   982.52  1000.66  1009.89
                             1015.74  1024.28  1058.44  1089.60  1124.74
                             1145.09  1224.15  1228.88  1279.11  1326.90
                             1343.70  1418.44  1427.52  1427.85  1442.88
                             1444.37  1449.96  1490.34  1508.83  1546.76
                             1573.92  1596.16  1641.14  1672.35  1685.38
                             1707.03  1736.94  1751.04  1816.49  1876.07
                             1887.81  1915.02  1927.89  1933.11  1991.32
                             2073.29  2109.41  2129.69  2136.21  2170.26
                             2181.92  2241.65  2271.26  2317.05  2318.20
                             2341.47  2353.32  4547.81  4554.22  4558.45
                             4573.61  4574.46  4587.59  4593.12  4598.83
                             4612.85  5042.87

 Zero-point correction=                           0.223995 (Hartree/Particle)
 Thermal correction to Energy=                    0.240380
 Thermal correction to Enthalpy=                  0.241324
 Thermal correction to Gibbs Free Energy=         0.177276
 Sum of electronic and zero-point Energies=           -951.042542
 Sum of electronic and thermal Energies=              -951.026157
 Sum of electronic and thermal Enthalpies=            -951.025213
 Sum of electronic and thermal Free Energies=         -951.089261

                     E (Thermal)             CV                S
                      KCal/Mol        Cal/Mol-Kelvin    Cal/Mol-Kelvin
 Total                  150.841             64.380            134.801
 Electronic               0.000              0.000              1.377
 Translational            0.889              2.981             42.766
 Rotational               0.889              2.981             34.293
 Vibrational            149.063             58.419             56.364
 Vibration     1          0.593              1.987              7.500
 Vibration     2          0.594              1.983              5.714
 Vibration     3          0.597              1.974              4.482
 Vibration     4          0.600              1.961              3.836
 Vibration     5          0.601              1.958              3.718
 Vibration     6          0.611              1.925              2.973
 Vibration     7          0.621              1.894              2.580
 Vibration     8          0.629              1.868              2.338
 Vibration     9          0.634              1.852              2.219
 Vibration    10          0.658              1.777              1.793
 Vibration    11          0.663              1.761              1.723
 Vibration    12          0.677              1.721              1.569
 Vibration    13          0.728              1.574              1.163
 Vibration    14          0.729              1.570              1.155
 Vibration    15          0.750              1.512              1.038
 Vibration    16          0.782              1.429              0.895
 Vibration    17          0.783              1.426              0.891
 Vibration    18          0.792              1.404              0.857
 Vibration    19          0.804              1.374              0.814
 Vibration    20          0.818              1.339              0.767
 Vibration    21          0.831              1.307              0.726
 Vibration    22          0.875              1.206              0.610
 Vibration    23          0.879              1.196              0.600
 Vibration    24          0.925              1.098              0.506
 Vibration    25          0.960              1.029              0.447

                           ! Non-Optimized Parameters !
 Normal termination of Gaussian 16 at Sun Feb 11 16:58:12 2024.
