 Q-Chem 5.4, Q-Chem, Inc., Pleasanton, CA (2021)
 Q-Chem 5.4.0 for Intel X86 EM64T Linux

User input:
--------------------------------------------------------------
$molecule
-1 2
O                  0.1257160000      0.4160440000      2.6820860000
C                  0.0676040000      0.2224540000      1.4334360000
C                 -1.1941730000      0.1129630000      0.7154750000
C                 -2.4432440000      0.2171740000      1.3754780000
C                 -3.6426330000      0.1104250000      0.6772810000
C                 -3.6440390000     -0.1038660000     -0.7029560000
C                 -2.4168030000     -0.2112770000     -1.3841000000
C                 -1.2268980000     -0.1037470000     -0.6811630000
O                 -0.0668140000     -0.2196510000     -1.4180670000
C                  1.1578300000     -0.1239960000     -0.7896630000
C                  2.2761310000     -0.2511080000     -1.5986570000
C                  3.5623190000     -0.1653650000     -1.0323480000
C                  3.6903880000      0.0473880000      0.3421710000
C                  2.5620710000      0.1739640000      1.1472260000
C                  1.2560330000      0.0919140000      0.6041130000
H                 -2.4192510000      0.3832710000      2.4459000000
H                 -4.5847720000      0.1947180000      1.2119720000
H                 -4.5761220000     -0.1877920000     -1.2516110000
H                 -2.3756920000     -0.3775940000     -2.4551280000
H                  2.1345560000     -0.4156030000     -2.6612830000
H                  4.4391720000     -0.2645220000     -1.6633290000
H                  4.6790250000      0.1148910000      0.7880240000
H                  2.6395980000      0.3393150000      2.2151460000
$end
$rem
MAX_SCF_CYCLES=200
BASIS  =  6-311++G(d,p)
GUI  =  2
JOB_TYPE  =  SP
METHOD  =  B3LYP
SOLVENT_METHOD = PCM
$end
$pcm
theory = CPCM
$end
$solvent
dielectric 37.219
opticaldielectric 1.43
$end

--------------------------------------------------------------

             Standard Nuclear Orientation (Angstroms)
    I     Atom           X                Y                Z
 ----------------------------------------------------------------
    1      O       0.1257160000     0.4160440000     2.6820860000
    2      C       0.0676040000     0.2224540000     1.4334360000
    3      C      -1.1941730000     0.1129630000     0.7154750000
    4      C      -2.4432440000     0.2171740000     1.3754780000
    5      C      -3.6426330000     0.1104250000     0.6772810000
    6      C      -3.6440390000    -0.1038660000    -0.7029560000
    7      C      -2.4168030000    -0.2112770000    -1.3841000000
    8      C      -1.2268980000    -0.1037470000    -0.6811630000
    9      O      -0.0668140000    -0.2196510000    -1.4180670000
   10      C       1.1578300000    -0.1239960000    -0.7896630000
   11      C       2.2761310000    -0.2511080000    -1.5986570000
   12      C       3.5623190000    -0.1653650000    -1.0323480000
   13      C       3.6903880000     0.0473880000     0.3421710000
   14      C       2.5620710000     0.1739640000     1.1472260000
   15      C       1.2560330000     0.0919140000     0.6041130000
   16      H      -2.4192510000     0.3832710000     2.4459000000
   17      H      -4.5847720000     0.1947180000     1.2119720000
   18      H      -4.5761220000    -0.1877920000    -1.2516110000
   19      H      -2.3756920000    -0.3775940000    -2.4551280000
   20      H       2.1345560000    -0.4156030000    -2.6612830000
   21      H       4.4391720000    -0.2645220000    -1.6633290000
   22      H       4.6790250000     0.1148910000     0.7880240000
   23      H       2.6395980000     0.3393150000     2.2151460000
 ----------------------------------------------------------------

    8    -650.9420698645      9.80e-06  Convergence criterion met
 Total energy in the final basis set =     -650.9420698645

                    Orbital Energies (a.u.)
 --------------------------------------------------------------

 Alpha MOs
 -- Occupied --
-19.1694 -19.0567 -10.2326 -10.2326 -10.2049 -10.1676 -10.1676 -10.1647
-10.1646 -10.1639 -10.1639 -10.1632 -10.1631 -10.1595 -10.1595  -1.0886
 -0.9812  -0.8551  -0.8423  -0.7679  -0.7621  -0.7381  -0.7228  -0.6481
 -0.6330  -0.5894  -0.5854  -0.5466  -0.5410  -0.4901  -0.4759  -0.4602
 -0.4530  -0.4529  -0.4253  -0.4250  -0.4107  -0.3999  -0.3847  -0.3784
 -0.3710  -0.3681  -0.3487  -0.3439  -0.3312  -0.3240  -0.2605  -0.2527
 -0.2500  -0.2313  -0.2234  -0.1069

 Beta MOs
 -- Occupied --
-19.1685 -19.0523 -10.2318 -10.2318 -10.2008 -10.1682 -10.1682 -10.1640
-10.1639 -10.1639 -10.1638 -10.1623 -10.1622 -10.1574 -10.1573  -1.0869
 -0.9723  -0.8530  -0.8397  -0.7635  -0.7597  -0.7355  -0.7205  -0.6413
 -0.6326  -0.5867  -0.5822  -0.5447  -0.5377  -0.4884  -0.4747  -0.4588
 -0.4515  -0.4475  -0.4241  -0.4236  -0.4091  -0.3951  -0.3836  -0.3701
 -0.3622  -0.3605  -0.3475  -0.3428  -0.3227  -0.3190  -0.2539  -0.2415
 -0.2377  -0.2274  -0.2152

          Ground-State Mulliken Net Atomic Charges

     Atom                 Charge (a.u.)    Spin (a.u.)
  --------------------------------------------------------
      1 O                    -0.588470       0.180708
      2 C                    -0.270884       0.264348
      3 C                     1.061250      -0.058214
      4 C                     0.233363       0.199596
      5 C                    -0.331940      -0.059073
      6 C                    -0.417143       0.169424
      7 C                    -0.395157      -0.012662
      8 C                    -0.898720       0.051079
      9 O                    -0.127251       0.020914
     10 C                    -0.901240       0.051662
     11 C                    -0.392248      -0.012931
     12 C                    -0.418876       0.170532
     13 C                    -0.332805      -0.059450
     14 C                     0.233063       0.200556
     15 C                     1.059380      -0.058276
     16 H                     0.173110      -0.013484
     17 H                     0.184341       0.003264
     18 H                     0.187688      -0.012017
     19 H                     0.198675      -0.001817
     20 H                     0.198876      -0.001809
     21 H                     0.187573      -0.012099
     22 H                     0.184296       0.003287
     23 H                     0.173118      -0.013538
  --------------------------------------------------------
  Sum of atomic charges =    -1.000000

                    Cartesian Multipole Moments
 -----------------------------------------------------------------
    Charge (ESU x 10^10)
                -4.8032
    Dipole Moment (Debye)
         X      -0.3438      Y      -1.1119      Z      -7.1867
       Tot       7.2803
    Quadrupole Moments (Debye-Ang)
        XX     -94.3502     XY      -0.1178     YY     -96.4949
        XZ      -0.7614     YZ      -2.2257     ZZ    -110.5700

 Total job time:  46.53s(wall), 256.85s(cpu)
        *  Thank you very much for using Q-Chem.  Have a nice day.  *
