 Q-Chem 5.4, Q-Chem, Inc., Pleasanton, CA (2021)
 Q-Chem 5.4.0 for Intel X86 EM64T Linux

User input:
--------------------------------------------------------------
$molecule
-2 2
C                  2.7533260000      0.5717490000      0.2141350000
C                  2.7000720000     -0.6068650000      0.9894610000
C                  1.5042510000     -1.2712300000      1.1546420000
C                 -0.9333840000     -1.5462090000      0.7704350000
O                 -0.9774890000     -2.5995340000      1.4640310000
C                 -2.1264690000     -1.0017560000      0.1284850000
C                 -3.3655800000     -1.6655360000      0.2832360000
C                 -4.5190690000     -1.1869680000     -0.3055370000
C                 -4.4731830000     -0.0053040000     -1.0845950000
C                 -3.2739550000      0.6600990000     -1.2497440000
C                 -2.0801090000      0.1909310000     -0.6578290000
C                 -0.8359820000      0.9371480000     -0.8666040000
O                 -0.8116390000      1.9836450000     -1.5602670000
C                  0.3645870000      0.3895140000     -0.2208510000
C                  1.6049540000      1.0565430000     -0.3774700000
H                  3.6103790000     -0.9769420000      1.4471660000
H                  1.4425120000     -2.1780410000      1.7457760000
H                 -3.3692120000     -2.5677180000      0.8853320000
H                 -5.4604430000     -1.7145170000     -0.1724090000
H                 -5.3787900000      0.3754270000     -1.5501950000
H                 -3.2063970000      1.5673320000     -1.8403240000
H                  1.6412820000      1.9594050000     -0.9732270000
C                  0.3101020000     -0.7996700000      0.5612640000
S                  4.3656290000      1.4149410000      0.0326970000
O                  5.2616120000      0.3861270000     -0.5719080000
O                  4.1140080000      2.5867620000     -0.8471430000
O                  4.7590690000      1.7783850000      1.4254540000
$end
$rem
MAX_SCF_CYCLES=200
BASIS  =  6-311++G(d,p)
GUI  =  2
JOB_TYPE  =  SP
METHOD  =  B3LYP
SOLVENT_METHOD = COSMO
$end
$solvent
dielectric 37.219
opticaldielectric 1.43
$end

--------------------------------------------------------------

             Standard Nuclear Orientation (Angstroms)
    I     Atom           X                Y                Z
 ----------------------------------------------------------------
    1      C       2.2231833230     0.2032859464     0.0029141500
    2      C       1.9229037945     1.5827529608     0.0023512686
    3      C       0.6108906260     2.0037924691     0.0015400293
    4      C      -1.8363959502     1.5841748387     0.0000165157
    5      O      -2.1013435011     2.8179968896    -0.0003832641
    6      C      -2.8912816353     0.5746221015    -0.0003722643
    7      C      -4.2456023774     0.9817613804    -0.0012472347
    8      C      -5.2755481173     0.0622889692    -0.0015745387
    9      C      -4.9818474678    -1.3230291665    -0.0010335292
   10      C      -3.6662802399    -1.7442954169    -0.0001642666
   11      C      -2.5947961507    -0.8236043809     0.0001733013
   12      C      -1.2182126259    -1.3268892077     0.0011662986
   13      O      -0.9740748024    -2.5586819939     0.0015727238
   14      C      -0.1566645010    -0.3113197920     0.0016125371
   15      C       1.1995718927    -0.7219164103     0.0024808535
   16      H       2.7372026266     2.2983114291     0.0041338648
   17      H       0.3594714380     3.0584704729     0.0015469090
   18      H      -4.4390593870     2.0490192628    -0.0016264366
   19      H      -6.3093448833     0.3991565940    -0.0022599154
   20      H      -5.7894070662    -2.0508415914    -0.0012824967
   21      H      -3.4090990162    -2.7979928009     0.0002567443
   22      H       1.4251724989    -1.7804574514     0.0035525959
   23      C      -0.4603748217     1.0802946596     0.0010349482
   24      S       3.9814456925    -0.2986217448    -0.0010316944
   25      O       4.5546149425     0.3312553366     1.2243347251
   26      O       3.9792097494    -1.7850953908     0.0303866059
   27      O       4.5346758886     0.2783711955    -1.2610611118
 ----------------------------------------------------------------

   10   -1312.3206840470      6.79e-06  Convergence criterion met
 Total energy in the final basis set =    -1312.3206840470
    5   -1312.5753035011      4.65e-06  Convergence criterion met
 Total energy in the final basis set =    -1312.5753035011

                    Orbital Energies (a.u.)
 --------------------------------------------------------------

 Alpha MOs
 -- Occupied --
-89.0478 -19.0950 -19.0930 -19.0929 -19.0814 -19.0800 -10.2302 -10.2277
-10.1953 -10.1792 -10.1785 -10.1781 -10.1772 -10.1753 -10.1749 -10.1734
-10.1730 -10.1724 -10.1701 -10.1700  -8.1067  -6.0695  -6.0694  -6.0682
 -1.1107  -1.0084  -1.0037  -0.9769  -0.9730  -0.8659  -0.8534  -0.7902
 -0.7577  -0.7505  -0.7439  -0.6739  -0.6520  -0.6266  -0.5969  -0.5824
 -0.5580  -0.5323  -0.5249  -0.4886  -0.4743  -0.4676  -0.4576  -0.4567
 -0.4487  -0.4305  -0.4253  -0.4235  -0.4209  -0.4166  -0.4083  -0.3925
 -0.3848  -0.3727  -0.3577  -0.3485  -0.3469  -0.3384  -0.3382  -0.3349
 -0.3060  -0.3000  -0.2921  -0.2687  -0.2614  -0.2604  -0.2576  -0.2516
 -0.2482  -0.2422  -0.1464

 Beta MOs
 -- Occupied --
-89.0478 -19.0949 -19.0929 -19.0929 -19.0761 -19.0744 -10.2285 -10.2258
-10.1948 -10.1788 -10.1782 -10.1775 -10.1764 -10.1746 -10.1742 -10.1734
-10.1725 -10.1719 -10.1701 -10.1699  -8.1067  -6.0695  -6.0694  -6.0682
 -1.1107  -0.9990  -0.9938  -0.9769  -0.9729  -0.8634  -0.8521  -0.7863
 -0.7555  -0.7487  -0.7421  -0.6672  -0.6497  -0.6244  -0.5956  -0.5815
 -0.5555  -0.5303  -0.5237  -0.4870  -0.4725  -0.4659  -0.4566  -0.4564
 -0.4484  -0.4301  -0.4224  -0.4188  -0.4125  -0.4122  -0.4061  -0.3905
 -0.3692  -0.3613  -0.3566  -0.3477  -0.3400  -0.3380  -0.3350  -0.3336
 -0.3019  -0.3000  -0.2916  -0.2603  -0.2575  -0.2499  -0.2482  -0.2466
 -0.2432  -0.2372

          Ground-State Mulliken Net Atomic Charges

     Atom                 Charge (a.u.)    Spin (a.u.)
  --------------------------------------------------------
      1 C                    -1.128335       0.024994
      2 C                    -0.658200       0.045827
      3 C                    -0.225253       0.029534
      4 C                    -0.394596       0.114675
      5 O                    -0.490331       0.204478
      6 C                     0.279805       0.018560
      7 C                     0.094601       0.034450
      8 C                    -0.515136       0.029227
      9 C                    -0.492650       0.041893
     10 C                     0.081855       0.019918
     11 C                     0.217503       0.032627
     12 C                    -0.734653       0.097675
     13 O                    -0.474476       0.194888
     14 C                     0.633262       0.064266
     15 C                     0.301882       0.012610
     16 H                     0.243041      -0.003342
     17 H                     0.180263      -0.001466
     18 H                     0.178420      -0.001817
     19 H                     0.204205      -0.002648
     20 H                     0.205093      -0.003410
     21 H                     0.177505      -0.001120
     22 H                     0.214301      -0.000880
     23 C                     0.553589       0.047999
     24 S                     0.800035       0.002121
     25 O                    -0.406825      -0.000702
     26 O                    -0.441943       0.000239
     27 O                    -0.402962      -0.000595
  --------------------------------------------------------
  Sum of atomic charges =    -2.000000

                    Cartesian Multipole Moments
 -----------------------------------------------------------------
    Charge (ESU x 10^10)
                -9.6064
    Dipole Moment (Debye)
         X     -17.3121      Y       1.8049      Z       0.0157
       Tot      17.4059
    Quadrupole Moments (Debye-Ang)
        XX    -241.7862     XY      18.7205     YY    -166.2233
        XZ       0.0675     YZ       0.0163     ZZ    -139.1780

 Total job time:  101.66s(wall), 774.12s(cpu)
        *  Thank you very much for using Q-Chem.  Have a nice day.  *
