 Q-Chem 5.4, Q-Chem, Inc., Pleasanton, CA (2021)
 Q-Chem 5.4.0 for Intel X86 EM64T Linux

User input:
--------------------------------------------------------------
$molecule
-1 2
N                 -4.5278940000     -0.9334030000     -0.7758020000
C                 -3.2440470000     -0.6647050000     -0.2384180000
C                 -3.0494330000     -0.7365530000      1.1632230000
C                 -1.7969290000     -0.5222910000      1.6981900000
C                 -0.6811770000     -0.2376070000      0.8836710000
C                  0.6253570000     -0.0180710000      1.5047030000
O                  0.7914630000     -0.0754120000      2.7481120000
C                  1.7294710000      0.2740560000      0.5861980000
C                  3.0210440000      0.4967860000      1.1101490000
C                  4.0923940000      0.7766820000      0.2848600000
C                  3.9015310000      0.8438540000     -1.1138640000
C                  2.6480070000      0.6301450000     -1.6501060000
C                  1.5355540000      0.3416800000     -0.8262470000
C                  0.2283530000      0.1237070000     -1.4424650000
O                  0.0562360000      0.1877520000     -2.6893580000
C                 -0.8730280000     -0.1722000000     -0.5262500000
C                 -2.1639590000     -0.3878420000     -1.0558340000
H                 -5.2834190000     -0.6085250000     -0.1860660000
H                 -4.6419490000     -0.5776030000     -1.7159200000
H                 -3.8920560000     -0.9686750000      1.8096490000
H                 -1.6321000000     -0.5698200000      2.7687270000
H                  3.1360680000      0.4388660000      2.1866560000
H                  5.0786550000      0.9447620000      0.7075440000
H                  4.7423810000      1.0636880000     -1.7656160000
H                  2.4744260000      0.6758890000     -2.7191870000
H                 -2.2749490000     -0.3251580000     -2.1338750000
$end
$rem
MAX_SCF_CYCLES=200
BASIS  =  6-311++G(d,p)
GUI  =  2
JOB_TYPE  =  SP
METHOD  =  B3LYP
SOLVENT_METHOD = PCM
$end
$pcm
theory = CPCM
$end
$solvent
dielectric 37.219
opticaldielectric 1.43
$end

--------------------------------------------------------------

             Standard Nuclear Orientation (Angstroms)
    I     Atom           X                Y                Z
 ----------------------------------------------------------------
    1      N      -4.5278940000    -0.9334030000    -0.7758020000
    2      C      -3.2440470000    -0.6647050000    -0.2384180000
    3      C      -3.0494330000    -0.7365530000     1.1632230000
    4      C      -1.7969290000    -0.5222910000     1.6981900000
    5      C      -0.6811770000    -0.2376070000     0.8836710000
    6      C       0.6253570000    -0.0180710000     1.5047030000
    7      O       0.7914630000    -0.0754120000     2.7481120000
    8      C       1.7294710000     0.2740560000     0.5861980000
    9      C       3.0210440000     0.4967860000     1.1101490000
   10      C       4.0923940000     0.7766820000     0.2848600000
   11      C       3.9015310000     0.8438540000    -1.1138640000
   12      C       2.6480070000     0.6301450000    -1.6501060000
   13      C       1.5355540000     0.3416800000    -0.8262470000
   14      C       0.2283530000     0.1237070000    -1.4424650000
   15      O       0.0562360000     0.1877520000    -2.6893580000
   16      C      -0.8730280000    -0.1722000000    -0.5262500000
   17      C      -2.1639590000    -0.3878420000    -1.0558340000
   18      H      -5.2834190000    -0.6085250000    -0.1860660000
   19      H      -4.6419490000    -0.5776030000    -1.7159200000
   20      H      -3.8920560000    -0.9686750000     1.8096490000
   21      H      -1.6321000000    -0.5698200000     2.7687270000
   22      H       3.1360680000     0.4388660000     2.1866560000
   23      H       5.0786550000     0.9447620000     0.7075440000
   24      H       4.7423810000     1.0636880000    -1.7656160000
   25      H       2.4744260000     0.6758890000    -2.7191870000
   26      H      -2.2749490000    -0.3251580000    -2.1338750000
 ----------------------------------------------------------------

    8    -744.4810284274      6.87e-06  Convergence criterion met
 Total energy in the final basis set =     -744.4810284274

                    Orbital Energies (a.u.)
 --------------------------------------------------------------

 Alpha MOs
 -- Occupied --
-19.0753 -19.0743 -14.3137 -10.2251 -10.2206 -10.2126 -10.1725 -10.1709
-10.1709 -10.1704 -10.1702 -10.1696 -10.1684 -10.1681 -10.1675 -10.1656
-10.1607  -1.0029  -0.9989  -0.9137  -0.8565  -0.8396  -0.7768  -0.7496
 -0.7463  -0.7278  -0.6642  -0.6367  -0.6121  -0.5898  -0.5561  -0.5347
 -0.5272  -0.4984  -0.4774  -0.4661  -0.4552  -0.4416  -0.4243  -0.4220
 -0.4204  -0.4152  -0.4078  -0.3993  -0.3865  -0.3801  -0.3763  -0.3511
 -0.3477  -0.3439  -0.3317  -0.3056  -0.2634  -0.2563  -0.2523  -0.2467
 -0.2372  -0.2185  -0.1391

 Beta MOs
 -- Occupied --
-19.0708 -19.0688 -14.3136 -10.2233 -10.2182 -10.2122 -10.1718 -10.1709
-10.1702 -10.1701 -10.1692 -10.1689 -10.1681 -10.1681 -10.1673 -10.1653
-10.1602  -0.9946  -0.9891  -0.9130  -0.8539  -0.8384  -0.7731  -0.7468
 -0.7446  -0.7262  -0.6566  -0.6351  -0.6096  -0.5890  -0.5536  -0.5323
 -0.5261  -0.4978  -0.4753  -0.4637  -0.4540  -0.4407  -0.4237  -0.4199
 -0.4120  -0.4090  -0.4046  -0.3973  -0.3842  -0.3733  -0.3573  -0.3493
 -0.3433  -0.3399  -0.3302  -0.2977  -0.2524  -0.2454  -0.2442  -0.2422
 -0.2325  -0.2125

          Ground-State Mulliken Net Atomic Charges

     Atom                 Charge (a.u.)    Spin (a.u.)
  --------------------------------------------------------
      1 N                    -0.396559       0.008047
      2 C                    -0.527814       0.018796
      3 C                    -0.166709       0.021411
      4 C                     0.115922       0.020757
      5 C                     0.152486       0.004790
      6 C                    -0.508659       0.096945
      7 O                    -0.488780       0.173346
      8 C                     0.127300       0.046929
      9 C                     0.088693       0.014575
     10 C                    -0.487929       0.057207
     11 C                    -0.469065       0.026684
     12 C                     0.052051       0.043584
     13 C                     0.268202       0.029061
     14 C                    -0.612855       0.136855
     15 O                    -0.496659       0.209183
     16 C                     0.545307       0.043261
     17 C                    -0.042080       0.065677
     18 H                     0.279745       0.000494
     19 H                     0.286855      -0.000212
     20 H                     0.214689      -0.002076
     21 H                     0.173263      -0.001141
     22 H                     0.170772      -0.000527
     23 H                     0.194596      -0.004328
     24 H                     0.196055      -0.002528
     25 H                     0.167858      -0.002381
     26 H                     0.163315      -0.004408
  --------------------------------------------------------
  Sum of atomic charges =    -1.000000

                    Cartesian Multipole Moments
 -----------------------------------------------------------------
    Charge (ESU x 10^10)
                -4.8032
    Dipole Moment (Debye)
         X      -4.2484      Y       0.8585      Z      -0.2546
       Tot       4.3418
    Quadrupole Moments (Debye-Ang)
        XX     -85.0672     XY      -3.2989     YY    -109.0105
        XZ      -3.9610     YZ      -0.0229     ZZ    -133.6791

 Total job time:  68.52s(wall), 342.50s(cpu)
        *  Thank you very much for using Q-Chem.  Have a nice day.  *
