 Q-Chem 5.4, Q-Chem, Inc., Pleasanton, CA (2021)
 Q-Chem 5.4.0 for Intel X86 EM64T Linux

User input:
--------------------------------------------------------------
$molecule
-1 2
C                 -0.6391460000      2.6799880000     -0.9636810000
C                 -1.7135230000      2.0640820000     -0.3717310000
C                 -1.5878360000      0.7510950000      0.1574610000
C                  0.6255520000      2.0266890000     -1.0649210000
C                  0.7510740000      0.6956470000     -0.5278170000
C                 -0.3842370000      0.0912560000      0.0776080000
C                  1.7446550000      2.6280480000     -1.6641370000
C                  2.9709790000      1.9703480000     -1.7517940000
C                  3.0951650000      0.6374910000     -1.2135550000
C                  1.9978560000      0.0410180000     -0.6230120000
C                  4.1133170000      2.6100300000     -2.3744690000
C                  5.3387560000      1.8475160000     -2.4165690000
C                  5.4784810000      0.5749790000     -1.9091610000
C                  4.3867060000     -0.1100330000     -1.2823120000
O                  4.1135700000      3.7807120000     -2.8804260000
O                  4.4839170000     -1.2669340000     -0.8117090000
O                  6.3716180000      2.4997940000     -3.0114680000
H                 -0.7360460000      3.6833490000     -1.3677920000
H                 -2.6668270000      2.5792350000     -0.3051900000
H                 -2.4440980000      0.2741150000      0.6231800000
H                 -0.2811150000     -0.9123230000      0.4799530000
H                  1.6719820000      3.6295350000     -2.0747900000
H                  2.1213760000     -0.9618170000     -0.2271330000
H                  6.4307680000      0.0608280000     -1.9757260000
H                  5.9593560000      3.3576220000     -3.2570690000
$end
$rem
MAX_SCF_CYCLES=200
BASIS  =  6-311++G(d,p)
GUI  =  2
JOB_TYPE  =  SP
METHOD  =  B3LYP
SOLVENT_METHOD = COSMO
$end
$solvent
dielectric 37.219
opticaldielectric 1.43
$end

--------------------------------------------------------------

             Standard Nuclear Orientation (Angstroms)
    I     Atom           X                Y                Z
 ----------------------------------------------------------------
    1      C       3.0026895974    -1.5657892107    -0.0000139876
    2      C       4.2408357179    -0.9733154791     0.0000410177
    3      C       4.3602542822     0.4428467516     0.0000422287
    4      C       1.8082033558    -0.7849481448    -0.0000383783
    5      C       1.9312578707     0.6505889910     0.0000167384
    6      C       3.2307551366     1.2268405273     0.0000485851
    7      C       0.5261852333    -1.3589808247    -0.0000840563
    8      C      -0.6274216181    -0.5758366331    -0.0000680665
    9      C      -0.5026442456     0.8615435440    -0.0000609786
   10      C       0.7557242174     1.4317337927     0.0000258125
   11      C      -1.9409415251    -1.1894478863     0.0000140775
   12      C      -3.0736265407    -0.2939450064     0.0000315908
   13      C      -2.9765835026     1.0797067025    -0.0000115709
   14      C      -1.7071787067     1.7451127443    -0.0001644158
   15      O      -2.1645882668    -2.4450238604    -0.0000428420
   16      O      -1.5877719185     2.9921408385     0.0000282331
   17      O      -4.2753551975    -0.9279982734     0.0001340110
   18      H       2.9123302398    -2.6480386240     0.0000112331
   19      H       5.1368952021    -1.5862398075     0.0000950571
   20      H       5.3443706853     0.9001252500     0.0000368519
   21      H       3.3146745673     2.3097274024     0.0000467554
   22      H       0.4109120675    -2.4376863264    -0.0000637559
   23      H       0.8182384998     2.5151300146     0.0000598533
   24      H      -3.8717420417     1.6915268306     0.0000233189
   25      H      -4.0090117925    -1.8741535858     0.0001638882
 ----------------------------------------------------------------

   10    -764.2725744008      9.83e-06  Convergence criterion met
 Total energy in the final basis set =     -764.2725744008
    5    -764.3555341812      4.55e-06  Convergence criterion met
 Total energy in the final basis set =     -764.3555341812

                    Orbital Energies (a.u.)
 --------------------------------------------------------------

 Alpha MOs
 -- Occupied --
-19.1505 -19.0904 -19.0818 -10.2341 -10.2314 -10.2252 -10.1871 -10.1864
-10.1808 -10.1794 -10.1775 -10.1773 -10.1766 -10.1761 -10.1757 -10.1749
-10.1590  -1.0711  -1.0095  -1.0011  -0.8798  -0.8371  -0.7942  -0.7793
 -0.7409  -0.7307  -0.6769  -0.6449  -0.6181  -0.6004  -0.5786  -0.5426
 -0.5331  -0.5040  -0.4939  -0.4664  -0.4597  -0.4429  -0.4395  -0.4349
 -0.4204  -0.4181  -0.4138  -0.4016  -0.4009  -0.3860  -0.3777  -0.3654
 -0.3653  -0.3477  -0.3314  -0.3243  -0.2943  -0.2667  -0.2654  -0.2485
 -0.2399  -0.2291  -0.1532

 Beta MOs
 -- Occupied --
-19.1499 -19.0841 -19.0774 -10.2330 -10.2301 -10.2220 -10.1873 -10.1857
-10.1811 -10.1788 -10.1777 -10.1772 -10.1765 -10.1760 -10.1755 -10.1736
-10.1579  -1.0687  -1.0018  -0.9902  -0.8787  -0.8347  -0.7906  -0.7780
 -0.7395  -0.7287  -0.6678  -0.6433  -0.6156  -0.5999  -0.5760  -0.5405
 -0.5316  -0.5031  -0.4910  -0.4646  -0.4586  -0.4420  -0.4338  -0.4258
 -0.4191  -0.4139  -0.4113  -0.4006  -0.3962  -0.3764  -0.3713  -0.3636
 -0.3500  -0.3464  -0.3308  -0.3137  -0.2899  -0.2598  -0.2511  -0.2442
 -0.2320  -0.2221

          Ground-State Mulliken Net Atomic Charges

     Atom                 Charge (a.u.)    Spin (a.u.)
  --------------------------------------------------------
      1 C                    -0.197463       0.037969
      2 C                    -0.360961      -0.014212
      3 C                    -0.375968       0.048283
      4 C                     0.194375      -0.016179
      5 C                     0.199017       0.051912
      6 C                    -0.184194      -0.026237
      7 C                     0.081044       0.141878
      8 C                     0.279793      -0.037936
      9 C                     0.299617       0.042905
     10 C                     0.135008      -0.022803
     11 C                    -0.757487       0.178731
     12 C                    -0.381069       0.097343
     13 C                     0.413721       0.070982
     14 C                    -0.593621       0.061437
     15 O                    -0.545709       0.231281
     16 O                    -0.513070       0.157510
     17 O                    -0.307572       0.019259
     18 H                     0.183770      -0.001561
     19 H                     0.208521       0.000576
     20 H                     0.207345      -0.003304
     21 H                     0.185111       0.001857
     22 H                     0.156508      -0.008433
     23 H                     0.148718       0.000154
     24 H                     0.215046      -0.008387
     25 H                     0.309521      -0.003026
  --------------------------------------------------------
  Sum of atomic charges =    -1.000000

                    Cartesian Multipole Moments
 -----------------------------------------------------------------
    Charge (ESU x 10^10)
                -4.8032
    Dipole Moment (Debye)
         X      10.5453      Y      -2.3979      Z       0.0000
       Tot      10.8145
    Quadrupole Moments (Debye-Ang)
        XX    -119.6240     XY       1.8561     YY    -130.3134
        XZ       0.0014     YZ       0.0001     ZZ    -104.9475

 Total job time:  78.02s(wall), 594.13s(cpu)
        *  Thank you very much for using Q-Chem.  Have a nice day.  *
