 Gaussian 16, Revision A.03,
 Gaussian 16:  ES64L-G16RevA.03 25-Dec-2016

 --------------------------------------
 #P UB3LYP/6-311++G(d,p) nosym opt freq
 --------------------------------------

 -------
 Radical
 -------
 Symbolic Z-matrix:
 Charge = -1 Multiplicity = 2

 SCF Done:  E(UB3LYP) =  -764.272643634     A.U. after   25 cycles
 SCF Done:  E(UB3LYP) =  -764.272643420     A.U. after   11 cycles
 SCF Done:  E(UB3LYP) =  -764.272644273     A.U. after   11 cycles
 Optimization completed.
    -- Stationary point found.
 Normal termination of Gaussian 16 at Tue Jan  9 20:42:00 2024.

 ----------------------------------------------------------------------
 #P Geom=AllCheck Guess=TCheck SCRF=Check GenChk UB3LYP/6-311++G(d,p) F
 req
 ----------------------------------------------------------------------

 Structure from the checkpoint file:  "329-rad.chk"
 -------
 Radical
 -------
 Charge = -1 Multiplicity = 2

                          Input orientation:
 ---------------------------------------------------------------------
 Center     Atomic      Atomic             Coordinates (Angstroms)
 Number     Number       Type             X           Y           Z
 ---------------------------------------------------------------------
      1          6           0       -0.639146    2.679988   -0.963681
      2          6           0       -1.713523    2.064082   -0.371731
      3          6           0       -1.587836    0.751095    0.157461
      4          6           0        0.625552    2.026689   -1.064921
      5          6           0        0.751074    0.695647   -0.527817
      6          6           0       -0.384237    0.091256    0.077608
      7          6           0        1.744655    2.628048   -1.664137
      8          6           0        2.970979    1.970348   -1.751794
      9          6           0        3.095165    0.637491   -1.213555
     10          6           0        1.997856    0.041018   -0.623012
     11          6           0        4.113317    2.610030   -2.374469
     12          6           0        5.338756    1.847516   -2.416569
     13          6           0        5.478481    0.574979   -1.909161
     14          6           0        4.386706   -0.110033   -1.282312
     15          8           0        4.113570    3.780712   -2.880426
     16          8           0        4.483917   -1.266934   -0.811709
     17          8           0        6.371618    2.499794   -3.011468
     18          1           0       -0.736046    3.683349   -1.367792
     19          1           0       -2.666827    2.579235   -0.305190
     20          1           0       -2.444098    0.274115    0.623180
     21          1           0       -0.281115   -0.912323    0.479953
     22          1           0        1.671982    3.629535   -2.074790
     23          1           0        2.121376   -0.961817   -0.227133
     24          1           0        6.430768    0.060828   -1.975726
     25          1           0        5.959356    3.357622   -3.257069
 ---------------------------------------------------------------------

 SCF Done:  E(UB3LYP) =  -764.272644273     A.U. after    1 cycles

 Alpha  occ. eigenvalues --  -19.02366 -18.95881 -18.94733 -10.10433 -10.10305
 Alpha  occ. eigenvalues --  -10.09485 -10.07905 -10.07767 -10.07702 -10.07683
 Alpha  occ. eigenvalues --  -10.07590 -10.07502 -10.05964 -10.05913 -10.05849
 Alpha  occ. eigenvalues --  -10.05682 -10.03284  -0.94350  -0.87361  -0.86897
 Alpha  occ. eigenvalues --   -0.76902  -0.72256  -0.67498  -0.66976  -0.62539
 Alpha  occ. eigenvalues --   -0.61882  -0.55397  -0.53112  -0.50310  -0.49260
 Alpha  occ. eigenvalues --   -0.45716  -0.42876  -0.41803  -0.39429  -0.36844
 Alpha  occ. eigenvalues --   -0.35463  -0.34718  -0.33375  -0.32206  -0.31097
 Alpha  occ. eigenvalues --   -0.30967  -0.29310  -0.28524  -0.28449  -0.28166
 Alpha  occ. eigenvalues --   -0.26181  -0.25627  -0.25193  -0.23887  -0.23103
 Alpha  occ. eigenvalues --   -0.21847  -0.20666  -0.18383  -0.14534  -0.13270
 Alpha  occ. eigenvalues --   -0.11702  -0.11453  -0.11215  -0.02427
 Alpha virt. eigenvalues --    0.04916   0.06898   0.08577   0.09147   0.09993
 Alpha virt. eigenvalues --    0.10793   0.10810   0.11340   0.12340   0.13327
 Alpha virt. eigenvalues --    0.14460   0.15125   0.15324   0.15664   0.16827

  Beta  occ. eigenvalues --  -19.02331 -18.95185 -18.94246 -10.10341 -10.10243
  Beta  occ. eigenvalues --  -10.09196 -10.07926 -10.07795 -10.07649 -10.07640
  Beta  occ. eigenvalues --  -10.07593 -10.07423 -10.05949 -10.05935 -10.05802
  Beta  occ. eigenvalues --  -10.05569 -10.03168  -0.94167  -0.86534  -0.85712
  Beta  occ. eigenvalues --   -0.76802  -0.72030  -0.67126  -0.66862  -0.62379
  Beta  occ. eigenvalues --   -0.61698  -0.54548  -0.52989  -0.50027  -0.49212
  Beta  occ. eigenvalues --   -0.45471  -0.42669  -0.41718  -0.39307  -0.36611
  Beta  occ. eigenvalues --   -0.35297  -0.34631  -0.33261  -0.32110  -0.30932
  Beta  occ. eigenvalues --   -0.29968  -0.29051  -0.28246  -0.28113  -0.27723
  Beta  occ. eigenvalues --   -0.26028  -0.24996  -0.24503  -0.22959  -0.22200
  Beta  occ. eigenvalues --   -0.21691  -0.19446  -0.17931  -0.13014  -0.12645
  Beta  occ. eigenvalues --   -0.10973  -0.10742  -0.10239
  Beta virt. eigenvalues --    0.03891   0.05364   0.06894   0.08572   0.09994
  Beta virt. eigenvalues --    0.10053   0.10821   0.11086   0.11343   0.12351
  Beta virt. eigenvalues --    0.13337   0.14587   0.15136   0.15329   0.15838

 Mulliken charges and spin densities:
               1          2
     1  C   -0.191322   0.037574
     2  C   -0.306008  -0.017191
     3  C   -0.320250   0.061681
     4  C    0.255588  -0.006697
     5  C    0.249451   0.065466
     6  C   -0.172139  -0.038256
     7  C    0.083862   0.132628
     8  C    0.362967  -0.004150
     9  C    0.389597   0.063123
    10  C    0.153293  -0.045281
    11  C   -0.986009   0.144125
    12  C   -0.433359   0.069959
    13  C    0.611453   0.089967
    14  C   -0.794524   0.021215
    15  O   -0.443423   0.258537
    16  O   -0.381933   0.176903
    17  O   -0.263638   0.013189
    18  H    0.116737  -0.001700
    19  H    0.130797   0.000870
    20  H    0.130107  -0.004474
    21  H    0.117755   0.002387
    22  H    0.129049  -0.008175
    23  H    0.127793   0.001237
    24  H    0.171566  -0.009154
    25  H    0.262588  -0.003785
 Sum of Mulliken charges =  -1.00000   1.00000

 Dipole moment (field-independent basis, Debye):
    X=            -18.3051    Y=             -5.7200    Z=              8.0197  Tot=             20.7873
 Quadrupole moment (field-independent basis, Debye-Ang):
   XX=           -192.9234   YY=           -131.3489   ZZ=           -123.1989
   XY=            -19.6314   XZ=             35.1088   YZ=             17.2999

  Exact polarizability: 323.473 -11.784 201.985 -64.929 -43.707 131.121
 Approx polarizability: 508.652 -22.160 378.984-100.112 -93.553 217.694

                      1                      2                      3
                      A                      A                      A
 Frequencies --     64.8423                86.9935               122.5917
 Red. masses --      6.8310                 4.9828                 9.1312
 Frc consts  --      0.0169                 0.0222                 0.0809
 IR Inten    --      1.1595                 0.0000                 3.5162

                      4                      5                      6
                      A                      A                      A
 Frequencies --    170.6705               195.0320               244.3697
 Red. masses --      7.0475                 7.3110                 4.4917
 Frc consts  --      0.1209                 0.1638                 0.1580
 IR Inten    --      1.3728                 1.3019                 0.0350

                      7                      8                      9
                      A                      A                      A
 Frequencies --    270.5514               305.7767               322.2199
 Red. masses --      5.6241                 7.7194                 6.2257
 Frc consts  --      0.2426                 0.4252                 0.3808
 IR Inten    --      0.8815                 1.3512                 6.9662

                     10                     11                     12
                      A                      A                      A
 Frequencies --    340.6037               387.8216               412.6038
 Red. masses --      6.4643                 4.0977                10.6229
 Frc consts  --      0.4418                 0.3631                 1.0655
 IR Inten    --      8.3323                 0.1942                 2.5621

                     13                     14                     15
                      A                      A                      A
 Frequencies --    449.1097               479.2381               491.1314
 Red. masses --      5.1855                 2.6256                10.5723
 Frc consts  --      0.6162                 0.3553                 1.5025
 IR Inten    --      0.2380                17.2932                 7.7699

                     16                     17                     18
                      A                      A                      A
 Frequencies --    498.3254               525.5078               592.0397
 Red. masses --      6.8944                 4.0330                 7.2539
 Frc consts  --      1.0087                 0.6562                 1.4980
 IR Inten    --     15.4973                 0.6175                11.1578

                     19                     20                     21
                      A                      A                      A
 Frequencies --    614.3159               623.3796               661.3025
 Red. masses --      3.8377                 6.7709                 6.3813
 Frc consts  --      0.8533                 1.5502                 1.6442
 IR Inten    --      1.3863                 5.7832                 5.6176

                     22                     23                     24
                      A                      A                      A
 Frequencies --    699.3242               708.3943               731.6538
 Red. masses --      4.6957                 5.5192                 1.2731
 Frc consts  --      1.3530                 1.6318                 0.4015
 IR Inten    --     11.8929                 3.9075                15.8340

                     25                     26                     27
                      A                      A                      A
 Frequencies --    739.3242               747.8725               761.3904
 Red. masses --      2.6512                 1.5415                 3.5196
 Frc consts  --      0.8538                 0.5080                 1.2022
 IR Inten    --     42.1393                69.9457                 0.2887

                     28                     29                     30
                      A                      A                      A
 Frequencies --    767.9474               788.2477               825.2301
 Red. masses --      5.7982                 4.4859                 1.5361
 Frc consts  --      2.0147                 1.6422                 0.6164
 IR Inten    --     26.7322                17.0381                43.7305

                     31                     32                     33
                      A                      A                      A
 Frequencies --    838.3891               903.7114               907.0322
 Red. masses --      1.4317                 1.4532                 5.0820
 Frc consts  --      0.5929                 0.6992                 2.4634
 IR Inten    --      0.0020                11.1537                 1.6729

                     34                     35                     36
                      A                      A                      A
 Frequencies --    930.0559               958.1414               961.2420
 Red. masses --      1.3524                 1.4056                 1.2711
 Frc consts  --      0.6892                 0.7603                 0.6920
 IR Inten    --      5.5835                12.6787                 1.4024

                     37                     38                     39
                      A                      A                      A
 Frequencies --    996.0684              1027.0719              1072.6420
 Red. masses --      3.9180                 2.3398                 2.9534
 Frc consts  --      2.2903                 1.4542                 2.0021
 IR Inten    --     32.6127                23.5276                14.2941

                     40                     41                     42
                      A                      A                      A
 Frequencies --   1149.3597              1164.7739              1178.6962
 Red. masses --      1.5548                 1.2516                 1.9224
 Frc consts  --      1.2101                 1.0004                 1.5736
 IR Inten    --      6.0255                 1.3834                 6.7009

                     43                     44                     45
                      A                      A                      A
 Frequencies --   1211.7343              1218.3558              1237.5882
 Red. masses --      1.4299                 4.3004                 1.7414
 Frc consts  --      1.2370                 3.7610                 1.5715
 IR Inten    --    122.4503                90.9658                80.6563

                     46                     47                     48
                      A                      A                      A
 Frequencies --   1269.8440              1276.3016              1291.2733
 Red. masses --      5.0226                 1.7526                 3.1357
 Frc consts  --      4.7718                 1.6820                 3.0805
 IR Inten    --     49.1794                 3.1194                 7.4363

                     49                     50                     51
                      A                      A                      A
 Frequencies --   1358.5765              1385.9669              1396.7024
 Red. masses --      2.3790                 4.6063                 5.2517
 Frc consts  --      2.5871                 5.2132                 6.0361
 IR Inten    --     40.5224                24.5707                28.4211

                     52                     53                     54
                      A                      A                      A
 Frequencies --   1445.5855              1458.0738              1476.4682
 Red. masses --      3.2484                 2.3692                 3.7160
 Frc consts  --      3.9995                 2.9676                 4.7729
 IR Inten    --    261.3082               206.9924               297.9661

                     55                     56                     57
                      A                      A                      A
 Frequencies --   1509.1336              1526.8560              1560.2621
 Red. masses --      3.2784                 5.7593                 5.6502
 Frc consts  --      4.3991                 7.9107                 8.1041
 IR Inten    --    106.7117               462.9086               112.7388

                     58                     59                     60
                      A                      A                      A
 Frequencies --   1576.9919              1611.4181              1632.3433
 Red. masses --      6.1576                 5.5040                 5.7002
 Frc consts  --      9.0224                 8.4207                 8.9488
 IR Inten    --      0.3653                63.9818                33.7501

                     61                     62                     63
                      A                      A                      A
 Frequencies --   1648.2852              3137.6043              3145.9087
 Red. masses --      7.0305                 1.0835                 1.0869
 Frc consts  --     11.2538                 6.2846                 6.3379
 IR Inten    --     86.3464                 1.8596                 2.3136

                     64                     65                     66
                      A                      A                      A
 Frequencies --   3157.9090              3168.3163              3169.8485
 Red. masses --      1.0934                 1.0897                 1.0939
 Frc consts  --      6.4242                 6.4451                 6.4758
 IR Inten    --     48.1981                 5.7977                33.0445

                     67                     68                     69
                      A                      A                      A
 Frequencies --   3171.7282              3175.0880              3484.4975
 Red. masses --      1.0918                 1.0898                 1.0634
 Frc consts  --      6.4713                 6.4729                 7.6072
 IR Inten    --     35.4536                19.3472                70.8856

 - Thermochemistry -
 -------------------
 Temperature   298.150 Kelvin.  Pressure   1.00000 Atm.
 Atom     1 has atomic number  6 and mass  12.00000

 Molecular mass:   224.04734 amu.
 Principal axes and moments of inertia in atomic units:
                           1         2         3
     Eigenvalues --  1746.404345690.639357437.04369
           X            0.94827  -0.16993   0.26816
           Y            0.05723   0.92235   0.38210
           Z           -0.31226  -0.34699   0.88436
 This molecule is an asymmetric top.
 Rotational symmetry number  1.
 Warning -- assumption of classical behavior for rotation
           may cause significant error
 Rotational temperatures (Kelvin)      0.04960     0.01522     0.01165
 Rotational constants (GHZ):           1.03340     0.31714     0.24267
 Zero-point vibrational energy     475023.1 (Joules/Mol)
                                  113.53324 (Kcal/Mol)
 Warning -- explicit consideration of  19 degrees of freedom as
           vibrations may cause significant error
 Vibrational temperatures:     93.29   125.16   176.38   245.56   280.61
          (Kelvin)            351.59   389.26   439.94   463.60   490.05
                              557.99   593.64   646.17   689.52   706.63
                              716.98   756.09   851.81   883.86   896.90
                              951.47  1006.17  1019.22  1052.69  1063.72
                             1076.02  1095.47  1104.90  1134.11  1187.32
                             1206.25  1300.24  1305.02  1338.14  1378.55
                             1383.01  1433.12  1477.73  1543.29  1653.67
                             1675.85  1695.88  1743.42  1752.94  1780.61
                             1827.02  1836.31  1857.85  1954.69  1994.10
                             2009.54  2079.88  2097.84  2124.31  2171.31
                             2196.81  2244.87  2268.94  2318.47  2348.58
                             2371.51  4514.31  4526.26  4543.53  4558.50
                             4560.70  4563.41  4568.24  5013.41

 Zero-point correction=                           0.180927 (Hartree/Particle)
 Thermal correction to Energy=                    0.193162
 Thermal correction to Enthalpy=                  0.194107
 Thermal correction to Gibbs Free Energy=         0.141852
 Sum of electronic and zero-point Energies=           -764.091718
 Sum of electronic and thermal Energies=              -764.079482
 Sum of electronic and thermal Enthalpies=            -764.078538
 Sum of electronic and thermal Free Energies=         -764.130792

                     E (Thermal)             CV                S
                      KCal/Mol        Cal/Mol-Kelvin    Cal/Mol-Kelvin
 Total                  121.211             50.451            109.978
 Electronic               0.000              0.000              1.377
 Translational            0.889              2.981             42.123
 Rotational               0.889              2.981             32.669
 Vibrational            119.434             44.489             33.809
 Vibration     1          0.597              1.971              4.304
 Vibration     2          0.601              1.958              3.727
 Vibration     3          0.610              1.930              3.059
 Vibration     4          0.626              1.879              2.428
 Vibration     5          0.636              1.847              2.179
 Vibration     6          0.660              1.772              1.771
 Vibration     7          0.674              1.727              1.593
 Vibration     8          0.696              1.663              1.385
 Vibration     9          0.707              1.631              1.299
 Vibration    10          0.720              1.594              1.209
 Vibration    11          0.756              1.496              1.009
 Vibration    12          0.776              1.443              0.917
 Vibration    13          0.808              1.363              0.798
 Vibration    14          0.836              1.296              0.712
 Vibration    15          0.847              1.270              0.681
 Vibration    16          0.854              1.254              0.662
 Vibration    17          0.880              1.194              0.597
 Vibration    18          0.950              1.049              0.464
 Vibration    19          0.974              1.002              0.426

 Optimization completed.
    -- Stationary point found.
 Normal termination of Gaussian 16 at Tue Jan  9 21:47:01 2024.
