 Q-Chem 5.4, Q-Chem, Inc., Pleasanton, CA (2021)
 Q-Chem 5.4.0 for Intel X86 EM64T Linux

User input:
--------------------------------------------------------------
$molecule
-2 1
O                 -2.2685100000     -2.7182020000     -0.4062250000
C                 -2.3103970000     -1.3455610000     -0.1897610000
C                 -3.5421980000     -0.7373270000     -0.0782770000
C                 -3.6515660000      0.6664310000      0.1473470000
C                 -2.5004680000      1.4071530000      0.2622760000
C                 -1.2119930000      0.8259310000      0.1570330000
C                 -0.0660840000      1.6982540000      0.2919690000
O                 -0.1876460000      2.9540010000      0.5052000000
C                  1.2360810000      1.0608160000      0.1694010000
C                  2.4025510000      1.8634790000      0.2943220000
C                  3.6544920000      1.2943560000      0.1827370000
C                  3.8123570000     -0.0865900000     -0.0564430000
C                  2.7054930000     -0.9473390000     -0.1923880000
O                  2.8505650000     -2.2236750000     -0.4125260000
C                  1.3628940000     -0.3489590000     -0.0748970000
C                  0.2096200000     -1.1765000000     -0.2034670000
O                  0.3738670000     -2.5152960000     -0.4415460000
C                 -1.0755040000     -0.6121840000     -0.0860800000
H                 -3.1840630000     -2.9912740000     -0.5248240000
H                 -4.4407130000     -1.3520000000     -0.1587530000
H                 -4.6328920000      1.1278960000      0.2302880000
H                 -2.5236690000      2.4773260000      0.4382660000
H                  2.2594340000      2.9217010000      0.4777040000
H                  4.5433700000      1.9197710000      0.2805440000
H                  4.8006950000     -0.5325680000     -0.1434320000
H                  1.3842850000     -2.6296370000     -0.4684670000
$end
$rem
MAX_SCF_CYCLES=200
BASIS  =  6-311++G(d,p)
GUI  =  2
JOB_TYPE  =  SP
METHOD  =  B3LYP
SOLVENT_METHOD = PCM
$end
$pcm
theory = CPCM
$end
$solvent
dielectric 37.219
opticaldielectric 1.43
$end

--------------------------------------------------------------

             Standard Nuclear Orientation (Angstroms)
    I     Atom           X                Y                Z
 ----------------------------------------------------------------
    1      O      -2.2685100000    -2.7182020000    -0.4062250000
    2      C      -2.3103970000    -1.3455610000    -0.1897610000
    3      C      -3.5421980000    -0.7373270000    -0.0782770000
    4      C      -3.6515660000     0.6664310000     0.1473470000
    5      C      -2.5004680000     1.4071530000     0.2622760000
    6      C      -1.2119930000     0.8259310000     0.1570330000
    7      C      -0.0660840000     1.6982540000     0.2919690000
    8      O      -0.1876460000     2.9540010000     0.5052000000
    9      C       1.2360810000     1.0608160000     0.1694010000
   10      C       2.4025510000     1.8634790000     0.2943220000
   11      C       3.6544920000     1.2943560000     0.1827370000
   12      C       3.8123570000    -0.0865900000    -0.0564430000
   13      C       2.7054930000    -0.9473390000    -0.1923880000
   14      O       2.8505650000    -2.2236750000    -0.4125260000
   15      C       1.3628940000    -0.3489590000    -0.0748970000
   16      C       0.2096200000    -1.1765000000    -0.2034670000
   17      O       0.3738670000    -2.5152960000    -0.4415460000
   18      C      -1.0755040000    -0.6121840000    -0.0860800000
   19      H      -3.1840630000    -2.9912740000    -0.5248240000
   20      H      -4.4407130000    -1.3520000000    -0.1587530000
   21      H      -4.6328920000     1.1278960000     0.2302880000
   22      H      -2.5236690000     2.4773260000     0.4382660000
   23      H       2.2594340000     2.9217010000     0.4777040000
   24      H       4.5433700000     1.9197710000     0.2805440000
   25      H       4.8006950000    -0.5325680000    -0.1434320000
   26      H       1.3842850000    -2.6296370000    -0.4684670000
 ----------------------------------------------------------------

    9    -839.7138116399      4.04e-06  Convergence criterion met
 Total energy in the final basis set =     -839.7138116399

                    Orbital Energies (a.u.)
 --------------------------------------------------------------

 Alpha MOs
 -- Occupied --
-19.1375 -19.0946 -19.0526 -19.0321 -10.2222 -10.2011 -10.1962 -10.1878
-10.1602 -10.1537 -10.1521 -10.1499 -10.1473 -10.1457 -10.1450 -10.1421
-10.1310 -10.1284  -1.0460  -1.0148  -0.9608  -0.9530  -0.8339  -0.8116
 -0.7643  -0.7271  -0.7133  -0.6993  -0.6511  -0.6163  -0.6031  -0.5643
 -0.5496  -0.5281  -0.4969  -0.4875  -0.4709  -0.4489  -0.4419  -0.4305
 -0.4252  -0.4094  -0.3933  -0.3892  -0.3851  -0.3814  -0.3708  -0.3607
 -0.3539  -0.3477  -0.3411  -0.3294  -0.3235  -0.3119  -0.3100  -0.2876
 -0.2535  -0.2282  -0.2226  -0.2174  -0.2062  -0.1848  -0.1227

          Ground-State Mulliken Net Atomic Charges

     Atom                 Charge (a.u.)
  ----------------------------------------
      1 O                    -0.309081
      2 C                    -0.064135
      3 C                    -0.252360
      4 C                    -0.423499
      5 C                    -0.086967
      6 C                     0.136421
      7 C                    -0.296497
      8 O                    -0.640160
      9 C                     0.290320
     10 C                    -0.181185
     11 C                    -0.435393
     12 C                    -0.357386
     13 C                    -0.271590
     14 O                    -0.666620
     15 C                     0.462119
     16 C                    -0.043299
     17 O                    -0.575413
     18 C                    -0.021252
     19 H                     0.310128
     20 H                     0.160850
     21 H                     0.187591
     22 H                     0.138689
     23 H                     0.134327
     24 H                     0.171563
     25 H                     0.152872
     26 H                     0.479960
  ----------------------------------------
  Sum of atomic charges =    -2.000000

                    Cartesian Multipole Moments
 -----------------------------------------------------------------
    Charge (ESU x 10^10)
                -9.6064
    Dipole Moment (Debye)
         X      -9.4580      Y      -1.7352      Z      -0.3348
       Tot       9.6216
    Quadrupole Moments (Debye-Ang)
        XX    -138.9828     XY      20.9473     YY    -164.8211
        XZ       4.3127     YZ      -8.0472     ZZ    -117.6299

 Total job time:  66.32s(wall), 351.25s(cpu)
        *  Thank you very much for using Q-Chem.  Have a nice day.  *
