 Gaussian 16, Revision A.03,
 Gaussian 16:  ES64L-G16RevA.03 25-Dec-2016

 --------------------------------------
 #P UB3LYP/6-311++G(d,p) nosym opt freq
 --------------------------------------

 -------
 Reduced
 -------
 Symbolic Z-matrix:
 Charge = -2 Multiplicity = 1

 SCF Done:  E(UB3LYP) =  -839.442565049     A.U. after   24 cycles
 Optimization completed.
    -- Stationary point found.
 Normal termination of Gaussian 16 at Sun Jan  7 05:03:41 2024.

 ----------------------------------------------------------------------
 #P Geom=AllCheck Guess=TCheck SCRF=Check GenChk UB3LYP/6-311++G(d,p) F
 req
 ----------------------------------------------------------------------

 Structure from the checkpoint file:  "187-an.chk"
 -------
 Reduced
 -------
 Charge = -2 Multiplicity = 1

                          Input orientation:
 ---------------------------------------------------------------------
 Center     Atomic      Atomic             Coordinates (Angstroms)
 Number     Number       Type             X           Y           Z
 ---------------------------------------------------------------------
      1          8           0       -2.268510   -2.718202   -0.406225
      2          6           0       -2.310397   -1.345561   -0.189761
      3          6           0       -3.542198   -0.737327   -0.078277
      4          6           0       -3.651566    0.666431    0.147347
      5          6           0       -2.500468    1.407153    0.262276
      6          6           0       -1.211993    0.825931    0.157033
      7          6           0       -0.066084    1.698254    0.291969
      8          8           0       -0.187646    2.954001    0.505200
      9          6           0        1.236081    1.060816    0.169401
     10          6           0        2.402551    1.863479    0.294322
     11          6           0        3.654492    1.294356    0.182737
     12          6           0        3.812357   -0.086590   -0.056443
     13          6           0        2.705493   -0.947339   -0.192388
     14          8           0        2.850565   -2.223675   -0.412526
     15          6           0        1.362894   -0.348959   -0.074897
     16          6           0        0.209620   -1.176500   -0.203467
     17          8           0        0.373867   -2.515296   -0.441546
     18          6           0       -1.075504   -0.612184   -0.086080
     19          1           0       -3.184063   -2.991274   -0.524824
     20          1           0       -4.440713   -1.352000   -0.158753
     21          1           0       -4.632892    1.127896    0.230288
     22          1           0       -2.523669    2.477326    0.438266
     23          1           0        2.259434    2.921701    0.477704
     24          1           0        4.543370    1.919771    0.280544
     25          1           0        4.800695   -0.532568   -0.143432
     26          1           0        1.384285   -2.629637   -0.468467
 ---------------------------------------------------------------------

 SCF Done:  E(UB3LYP) =  -839.442565049     A.U. after    1 cycles

 Alpha  occ. eigenvalues --  -18.92129 -18.84337 -18.80275 -18.78023  -9.99688
 Alpha  occ. eigenvalues --   -9.95705  -9.95186  -9.94231  -9.93312  -9.92921
 Alpha  occ. eigenvalues --   -9.92066  -9.91668  -9.91365  -9.90584  -9.90436
 Alpha  occ. eigenvalues --   -9.89875  -9.89115  -9.89092  -0.82903  -0.76379
 Alpha  occ. eigenvalues --   -0.70986  -0.69999  -0.60022  -0.57141  -0.52831
 Alpha  occ. eigenvalues --   -0.49606  -0.47750  -0.45647  -0.41355  -0.38686
 Alpha  occ. eigenvalues --   -0.36623  -0.33530  -0.31046  -0.29732  -0.25862
 Alpha  occ. eigenvalues --   -0.24783  -0.24230  -0.21519  -0.20665  -0.19612
 Alpha  occ. eigenvalues --   -0.19206  -0.17693  -0.15698  -0.14899  -0.14221
 Alpha  occ. eigenvalues --   -0.14079  -0.13454  -0.12347  -0.11031  -0.10738
 Alpha  occ. eigenvalues --   -0.09438  -0.09388  -0.08511  -0.07596  -0.06495
 Alpha  occ. eigenvalues --   -0.04145  -0.00884   0.01200   0.01952   0.02319
 Alpha  occ. eigenvalues --    0.04653   0.06282   0.12178
 Alpha virt. eigenvalues --    0.15183   0.16847   0.17489   0.19450   0.19458
 Alpha virt. eigenvalues --    0.21143   0.21238   0.22182   0.22906   0.23573
 Alpha virt. eigenvalues --    0.25142   0.25907   0.26213   0.26410   0.26992

  Beta  occ. eigenvalues --  -18.92129 -18.84337 -18.80275 -18.78023  -9.99688
  Beta  occ. eigenvalues --   -9.95705  -9.95186  -9.94231  -9.93312  -9.92921
  Beta  occ. eigenvalues --   -9.92066  -9.91668  -9.91365  -9.90584  -9.90436
  Beta  occ. eigenvalues --   -9.89875  -9.89115  -9.89092  -0.82903  -0.76379
  Beta  occ. eigenvalues --   -0.70986  -0.69999  -0.60022  -0.57141  -0.52831
  Beta  occ. eigenvalues --   -0.49606  -0.47750  -0.45647  -0.41355  -0.38686
  Beta  occ. eigenvalues --   -0.36623  -0.33530  -0.31046  -0.29732  -0.25862
  Beta  occ. eigenvalues --   -0.24783  -0.24230  -0.21519  -0.20665  -0.19612
  Beta  occ. eigenvalues --   -0.19206  -0.17693  -0.15698  -0.14899  -0.14221
  Beta  occ. eigenvalues --   -0.14079  -0.13454  -0.12347  -0.11031  -0.10738
  Beta  occ. eigenvalues --   -0.09438  -0.09388  -0.08511  -0.07596  -0.06495
  Beta  occ. eigenvalues --   -0.04145  -0.00884   0.01200   0.01952   0.02319
  Beta  occ. eigenvalues --    0.04653   0.06282   0.12178
  Beta virt. eigenvalues --    0.15183   0.16847   0.17489   0.19450   0.19458
  Beta virt. eigenvalues --    0.21143   0.21238   0.22182   0.22906   0.23573
  Beta virt. eigenvalues --    0.25142   0.25907   0.26213   0.26410   0.26992

 Mulliken charges and spin densities:
               1          2
     1  O   -0.221012  -0.000000
     2  C   -0.081932  -0.000000
     3  C   -0.276517  -0.000000
     4  C   -0.415128  -0.000000
     5  C   -0.048336  -0.000000
     6  C    0.319563   0.000000
     7  C   -0.599900   0.000000
     8  O   -0.485320  -0.000000
     9  C    0.428943   0.000000
    10  C   -0.169297  -0.000000
    11  C   -0.296827   0.000000
    12  C   -0.155564   0.000000
    13  C   -0.548992  -0.000000
    14  O   -0.563880  -0.000000
    15  C    0.460472   0.000000
    16  C   -0.074349  -0.000000
    17  O   -0.523720  -0.000000
    18  C    0.083399   0.000000
    19  H    0.216855  -0.000000
    20  H    0.017377  -0.000000
    21  H    0.082849  -0.000000
    22  H    0.121644   0.000000
    23  H    0.114326  -0.000000
    24  H    0.070407  -0.000000
    25  H    0.072043  -0.000000
    26  H    0.472896   0.000000
 Sum of Mulliken charges =  -2.00000   0.00000

 Dipole moment (field-independent basis, Debye):
    X=             -6.2287    Y=             -1.2415    Z=             -0.2409  Tot=              6.3558
 Quadrupole moment (field-independent basis, Debye-Ang):
   XX=           -166.2834   YY=           -163.8722   ZZ=           -118.3728
   XY=             14.2389   XZ=              3.3186   YZ=             -7.7854

  Exact polarizability: 395.262  10.700 243.991   0.144  21.459 125.531
 Approx polarizability: 653.491   8.885 458.833  -2.122  47.435 190.618

                      1                      2                      3
                      A                      A                      A
 Frequencies --     54.3315                60.5498                97.9607
 Red. masses --      6.5683                 6.6577                10.9999
 Frc consts  --      0.0114                 0.0144                 0.0622
 IR Inten    --      2.9012                 1.3299                 0.9581

                      4                      5                      6
                      A                      A                      A
 Frequencies --    161.3681               195.2402               208.3833
 Red. masses --      7.1941                 4.7120                 5.5676
 Frc consts  --      0.1104                 0.1058                 0.1424
 IR Inten    --      0.1619                 0.6322                13.2338

                      7                      8                      9
                      A                      A                      A
 Frequencies --    214.4970               252.7488               295.5121
 Red. masses --      1.4502                 3.3298                 3.5740
 Frc consts  --      0.0393                 0.1253                 0.1839
 IR Inten    --     45.7714                 9.1952                 7.7594

                     10                     11                     12
                      A                      A                      A
 Frequencies --    318.0432               348.3840               358.3326
 Red. masses --      7.2466                 8.4062                10.0914
 Frc consts  --      0.4319                 0.6011                 0.7634
 IR Inten    --      7.2404                 3.3784                 0.5610

                     13                     14                     15
                      A                      A                      A
 Frequencies --    380.6935               408.9756               443.4953
 Red. masses --      7.7630                 6.5779                 7.9212
 Frc consts  --      0.6629                 0.6482                 0.9180
 IR Inten    --      0.2546                32.5033                 3.1869

                     16                     17                     18
                      A                      A                      A
 Frequencies --    482.6536               487.9551               500.3449
 Red. masses --      4.3735                11.0315                 6.4521
 Frc consts  --      0.6003                 1.5475                 0.9517
 IR Inten    --      3.3792                 5.5044                 5.5370

                     19                     20                     21
                      A                      A                      A
 Frequencies --    530.4866               546.8126               586.9504
 Red. masses --      4.7513                 8.1594                 4.0094
 Frc consts  --      0.7878                 1.4374                 0.8138
 IR Inten    --      9.0033                 3.5802                 1.9852

                     22                     23                     24
                      A                      A                      A
 Frequencies --    594.7287               599.3555               609.9623
 Red. masses --      5.3997                 3.4427                 7.0792
 Frc consts  --      1.1253                 0.7287                 1.5518
 IR Inten    --      2.7919                18.7221                34.5871

                     25                     26                     27
                      A                      A                      A
 Frequencies --    669.4692               692.8171               700.7280
 Red. masses --      1.4455                 6.2873                 1.5003
 Frc consts  --      0.3817                 1.7781                 0.4340
 IR Inten    --     51.1667                 4.0947                 0.9401

                     28                     29                     30
                      A                      A                      A
 Frequencies --    711.7920               736.6782               759.9467
 Red. masses --      1.6958                 3.6592                 2.4565
 Frc consts  --      0.5062                 1.1700                 0.8359
 IR Inten    --     79.7842                 0.4673                 8.5777

                     31                     32                     33
                      A                      A                      A
 Frequencies --    785.8669               800.2487               811.6133
 Red. masses --      6.4117                 2.3922                 4.8914
 Frc consts  --      2.3330                 0.9026                 1.8984
 IR Inten    --     11.1705                 6.2490                 1.1736

                     34                     35                     36
                      A                      A                      A
 Frequencies --    820.0446               903.0397               913.9523
 Red. masses --      8.4599                 1.2193                 6.2789
 Frc consts  --      3.3519                 0.5858                 3.0902
 IR Inten    --     34.2847                 1.5994                11.1970

                     37                     38                     39
                      A                      A                      A
 Frequencies --    937.2810               974.9866               980.7349
 Red. masses --      1.2711                 6.2501                 1.0541
 Frc consts  --      0.6579                 3.5006                 0.5974
 IR Inten    --      2.1159               175.6347                65.0618

                     40                     41                     42
                      A                      A                      A
 Frequencies --   1040.8402              1056.0466              1065.7056
 Red. masses --      3.7599                 2.6273                 1.7202
 Frc consts  --      2.3999                 1.7264                 1.1511
 IR Inten    --      9.1857                50.6228               163.9010

                     43                     44                     45
                      A                      A                      A
 Frequencies --   1110.7750              1135.3409              1152.6473
 Red. masses --      3.1024                 1.3746                 1.1900
 Frc consts  --      2.2553                 1.0439                 0.9315
 IR Inten    --     61.1704                81.6177                 1.2184

                     46                     47                     48
                      A                      A                      A
 Frequencies --   1192.5282              1220.0995              1240.7696
 Red. masses --      1.7585                 3.6920                 2.9498
 Frc consts  --      1.4734                 3.2382                 2.6756
 IR Inten    --     46.3752               124.0604               123.2724

                     49                     50                     51
                      A                      A                      A
 Frequencies --   1242.7276              1295.9230              1314.7729
 Red. masses --      2.1921                 2.9743                 5.0816
 Frc consts  --      1.9946                 2.9430                 5.1755
 IR Inten    --    197.7138                69.5303                28.9324

                     52                     53                     54
                      A                      A                      A
 Frequencies --   1333.3836              1362.5493              1394.7653
 Red. masses --      5.9469                 3.9857                 3.8248
 Frc consts  --      6.2295                 4.3598                 4.3839
 IR Inten    --     80.7931               172.3328                43.3786

                     55                     56                     57
                      A                      A                      A
 Frequencies --   1412.8601              1449.7390              1460.9250
 Red. masses --      2.8847                 4.2700                 3.1210
 Frc consts  --      3.3927                 5.2876                 3.9247
 IR Inten    --    128.1415               246.9057               269.1676

                     58                     59                     60
                      A                      A                      A
 Frequencies --   1487.9362              1507.2039              1526.2915
 Red. masses --      3.3720                 5.1002                 5.3607
 Frc consts  --      4.3985                 6.8263                 7.3578
 IR Inten    --    403.3440               279.0125               115.1116

                     61                     62                     63
                      A                      A                      A
 Frequencies --   1567.9863              1577.7119              1600.8373
 Red. masses --      5.5380                 5.6484                 6.3359
 Frc consts  --      8.0221                 8.2839                 9.5666
 IR Inten    --     55.4588                27.6901               100.9628

                     64                     65                     66
                      A                      A                      A
 Frequencies --   1670.3177              2757.7008              3070.2247
 Red. masses --      1.4455                 1.0806                 1.0852
 Frc consts  --      2.3761                 4.8417                 6.0269
 IR Inten    --     33.5176               751.6221               139.8638

                     67                     68                     69
                      A                      A                      A
 Frequencies --   3070.8074              3118.9192              3124.0216
 Red. masses --      1.0848                 1.0888                 1.0898
 Frc consts  --      6.0269                 6.2401                 6.2667
 IR Inten    --     53.3766                88.6375               115.6745

                     70                     71                     72
                      A                      A                      A
 Frequencies --   3167.8130              3177.4605              3809.3023
 Red. masses --      1.0911                 1.0902                 1.0651
 Frc consts  --      6.4513                 6.4853                 9.1061
 IR Inten    --     33.4967                29.6976                 2.0625

 - Thermochemistry -
 -------------------
 Temperature   298.150 Kelvin.  Pressure   1.00000 Atm.
 Atom     1 has atomic number  8 and mass  15.99491

 Molecular mass:   240.04226 amu.
 Principal axes and moments of inertia in atomic units:
                           1         2         3
     Eigenvalues --  2480.619044794.284547274.75431
           X            0.99528  -0.09635   0.01185
           Y            0.09698   0.98124  -0.16660
           Z            0.00442   0.16697   0.98595
 This molecule is an asymmetric top.
 Rotational symmetry number  1.
 Warning -- assumption of classical behavior for rotation
           may cause significant error
 Rotational temperatures (Kelvin)      0.03492     0.01807     0.01191
 Rotational constants (GHZ):           0.72754     0.37644     0.24808
 Zero-point vibrational energy     476436.1 (Joules/Mol)
                                  113.87096 (Kcal/Mol)
 Warning -- explicit consideration of  24 degrees of freedom as
           vibrations may cause significant error
 Vibrational temperatures:     78.17    87.12   140.94   232.17   280.91
          (Kelvin)            299.82   308.61   363.65   425.18   457.59
                              501.25   515.56   547.73   588.42   638.09
                              694.43   702.06   719.88   763.25   786.74
                              844.49   855.68   862.34   877.60   963.22
                              996.81  1008.19  1024.11  1059.92  1093.39
                             1130.69  1151.38  1167.73  1179.86  1299.27
                             1314.97  1348.54  1402.79  1411.06  1497.54
                             1519.42  1533.31  1598.16  1633.50  1658.40
                             1715.78  1755.45  1785.19  1788.01  1864.54
                             1891.66  1918.44  1960.40  2006.76  2032.79
                             2085.85  2101.95  2140.81  2168.53  2195.99
                             2255.98  2269.98  2303.25  2403.21  3967.72
                             4417.37  4418.21  4487.43  4494.77  4557.78
                             4571.66  5480.74

 Zero-point correction=                           0.181465 (Hartree/Particle)
 Thermal correction to Energy=                    0.195109
 Thermal correction to Enthalpy=                  0.196053
 Thermal correction to Gibbs Free Energy=         0.141405
 Sum of electronic and zero-point Energies=           -839.261100
 Sum of electronic and thermal Energies=              -839.247456
 Sum of electronic and thermal Enthalpies=            -839.246512
 Sum of electronic and thermal Free Energies=         -839.301160

                     E (Thermal)             CV                S
                      KCal/Mol        Cal/Mol-Kelvin    Cal/Mol-Kelvin
 Total                  122.433             55.584            115.017
 Electronic               0.000              0.000              0.000
 Translational            0.889              2.981             42.328
 Rotational               0.889              2.981             32.825
 Vibrational            120.655             49.622             39.863
 Vibration     1          0.596              1.976              4.653
 Vibration     2          0.597              1.973              4.439
 Vibration     3          0.603              1.951              3.494
 Vibration     4          0.622              1.890              2.534
 Vibration     5          0.636              1.847              2.177
 Vibration     6          0.642              1.828              2.058
 Vibration     7          0.644              1.819              2.005
 Vibration     8          0.664              1.758              1.711
 Vibration     9          0.690              1.682              1.442
 Vibration    10          0.704              1.639              1.320
 Vibration    11          0.726              1.579              1.173
 Vibration    12          0.733              1.558              1.129
 Vibration    13          0.750              1.511              1.036
 Vibration    14          0.773              1.451              0.930
 Vibration    15          0.803              1.375              0.816
 Vibration    16          0.839              1.289              0.703
 Vibration    17          0.844              1.277              0.689
 Vibration    18          0.856              1.249              0.657
 Vibration    19          0.885              1.183              0.586
 Vibration    20          0.902              1.147              0.551
 Vibration    21          0.944              1.060              0.473
 Vibration    22          0.952              1.043              0.459
 Vibration    23          0.957              1.033              0.451
 Vibration    24          0.969              1.011              0.433

 Optimization completed.
    -- Stationary point found.
 Normal termination of Gaussian 16 at Sun Jan  7 06:07:03 2024.
