 Q-Chem 5.4, Q-Chem, Inc., Pleasanton, CA (2021)
 Q-Chem 5.4.0 for Intel X86 EM64T Linux

User input:
--------------------------------------------------------------
$molecule
0 1
C                 -1.8343800000     -3.6680070000      1.3154460000
C                 -0.3969950000     -3.9356790000      1.0635920000
C                  0.3918660000     -2.9479400000      0.5967720000
C                 -0.1591390000     -1.5565680000      0.3207750000
C                 -1.5880790000     -1.2933440000      0.5709230000
C                 -2.3603290000     -2.2967220000      1.0385980000
O                 -2.6134670000     -4.5047730000      1.7363710000
O                  0.5776960000     -0.6865950000     -0.0986390000
O                 -3.6682560000     -2.1545510000      1.2969170000
C                 -2.1010260000      0.0865070000      0.2887140000
Br                 0.1843080000     -5.6932080000      1.4390750000
Br                 2.2257970000     -3.1692850000      0.2399470000
H                 -1.5624920000      0.8253420000      0.8882990000
H                 -3.1652340000      0.1561780000      0.5076270000
H                 -1.9319650000      0.3511850000     -0.7584900000
H                 -3.9865580000     -3.0177120000      1.6198250000
$end
$rem
MAX_SCF_CYCLES=200
BASIS  =  6-311++G(d,p)
GUI  =  2
JOB_TYPE  =  SP
METHOD  =  B3LYP
SOLVENT_METHOD = PCM
$end
$pcm
theory = CPCM
$end
$solvent
dielectric 37.219
opticaldielectric 1.43
$end

--------------------------------------------------------------

             Standard Nuclear Orientation (Angstroms)
    I     Atom           X                Y                Z
 ----------------------------------------------------------------
    1      C      -1.8343800000    -3.6680070000     1.3154460000
    2      C      -0.3969950000    -3.9356790000     1.0635920000
    3      C       0.3918660000    -2.9479400000     0.5967720000
    4      C      -0.1591390000    -1.5565680000     0.3207750000
    5      C      -1.5880790000    -1.2933440000     0.5709230000
    6      C      -2.3603290000    -2.2967220000     1.0385980000
    7      O      -2.6134670000    -4.5047730000     1.7363710000
    8      O       0.5776960000    -0.6865950000    -0.0986390000
    9      O      -3.6682560000    -2.1545510000     1.2969170000
   10      C      -2.1010260000     0.0865070000     0.2887140000
   11      Br      0.1843080000    -5.6932080000     1.4390750000
   12      Br      2.2257970000    -3.1692850000     0.2399470000
   13      H      -1.5624920000     0.8253420000     0.8882990000
   14      H      -3.1652340000     0.1561780000     0.5076270000
   15      H      -1.9319650000     0.3511850000    -0.7584900000
   16      H      -3.9865580000    -3.0177120000     1.6198250000
 ----------------------------------------------------------------

    9   -5643.2348759318      4.81e-06  Convergence criterion met
 Total energy in the final basis set =    -5643.2348759318

                    Orbital Energies (a.u.)
 --------------------------------------------------------------

 Alpha MOs
 -- Occupied --
********-482.8586 -62.5121 -62.5113 -56.3327 -56.3320 -56.3288 -56.3282
-56.3280 -56.3275 -19.1851 -19.1675 -19.1493 -10.3149 -10.3030 -10.2799
-10.2781 -10.2764 -10.2151 -10.1766  -8.7208  -8.7201  -6.5528  -6.5522
 -6.5398  -6.5387  -6.5381  -6.5374  -2.6637  -2.6630  -2.6602  -2.6594
 -2.6589  -2.6583  -2.6486  -2.6485  -2.6477  -2.6476  -1.1207  -1.0857
 -1.0831  -0.9047  -0.8451  -0.8282  -0.7759  -0.7263  -0.6940  -0.6399
 -0.6137  -0.5828  -0.5435  -0.5004  -0.4884  -0.4826  -0.4588  -0.4466
 -0.4424  -0.4351  -0.4269  -0.4031  -0.4021  -0.3932  -0.3760  -0.3306
 -0.3303  -0.3211  -0.3084  -0.2934  -0.2915  -0.2621

          Ground-State Mulliken Net Atomic Charges

     Atom                 Charge (a.u.)
  ----------------------------------------
      1 C                    -0.572348
      2 C                     1.074520
      3 C                    -0.033450
      4 C                    -0.718515
      5 C                     2.140936
      6 C                    -1.824777
      7 O                    -0.249735
      8 O                    -0.232522
      9 O                    -0.240797
     10 C                    -0.096974
     11 Br                   -0.073073
     12 Br                   -0.092844
     13 H                     0.197308
     14 H                     0.201034
     15 H                     0.196769
     16 H                     0.324467
  ----------------------------------------
  Sum of atomic charges =     0.000000

                    Cartesian Multipole Moments
 -----------------------------------------------------------------
    Charge (ESU x 10^10)
                -0.0000
    Dipole Moment (Debye)
         X      -1.5826      Y      -0.2693      Z       0.4420
       Tot       1.6651
    Quadrupole Moments (Debye-Ang)
        XX     -91.5566     XY      -2.9265     YY     -96.7211
        XZ       0.9383     YZ       1.9937     ZZ     -93.1407

 Total job time:  31.69s(wall), 163.85s(cpu)
        *  Thank you very much for using Q-Chem.  Have a nice day.  *
