 Gaussian 16, Revision A.03,
 Gaussian 16:  ES64L-G16RevA.03 25-Dec-2016

 ----------------------------------------------------------------------
 #P UB3LYP/6-311++G(d,p) nosym opt freq SCRF=(PCM,Solvent=n,n-DiMethylF
 ormamide)
 ----------------------------------------------------------------------

 -------
 Reduced
 -------
 Symbolic Z-matrix:
 Charge = -2 Multiplicity = 1

 SCF Done:  E(UB3LYP) =  -918.277955411     A.U. after   18 cycles
 SCF Done:  E(UB3LYP) =  -918.277227317     A.U. after   13 cycles
 SCF Done:  E(UB3LYP) =  -918.279161759     A.U. after   12 cycles
 SCF Done:  E(UB3LYP) =  -918.279179453     A.U. after   12 cycles
 SCF Done:  E(UB3LYP) =  -918.279192508     A.U. after   11 cycles
 SCF Done:  E(UB3LYP) =  -918.279198422     A.U. after   10 cycles
 SCF Done:  E(UB3LYP) =  -918.279198934     A.U. after   10 cycles
 SCF Done:  E(UB3LYP) =  -918.279199478     A.U. after    9 cycles
 SCF Done:  E(UB3LYP) =  -918.279199733     A.U. after    9 cycles
 SCF Done:  E(UB3LYP) =  -918.279200093     A.U. after    9 cycles
 SCF Done:  E(UB3LYP) =  -918.270931028     A.U. after   14 cycles
 SCF Done:  E(UB3LYP) =  -918.279194296     A.U. after   11 cycles
 SCF Done:  E(UB3LYP) =  -918.279204821     A.U. after    6 cycles
 SCF Done:  E(UB3LYP) =  -918.278827150     A.U. after   14 cycles
 SCF Done:  E(UB3LYP) =  -918.279205654     A.U. after   10 cycles
 SCF Done:  E(UB3LYP) =  -918.279207024     A.U. after   10 cycles
 SCF Done:  E(UB3LYP) =  -918.279207172     A.U. after    9 cycles
 SCF Done:  E(UB3LYP) =  -918.279207213     A.U. after    8 cycles
 SCF Done:  E(UB3LYP) =  -918.279207232     A.U. after    7 cycles
 Optimization completed.
    -- Stationary point found.
 Normal termination of Gaussian 16 at Sun Feb 11 23:10:34 2024.

 ----------------------------------------------------------------------
 #P Geom=AllCheck Guess=TCheck SCRF=Check GenChk UB3LYP/6-311++G(d,p) F
 req
 ----------------------------------------------------------------------

 Structure from the checkpoint file:  "140-an.chk"
 -------
 Reduced
 -------
 Charge = -2 Multiplicity = 1

                          Input orientation:
 ---------------------------------------------------------------------
 Center     Atomic      Atomic             Coordinates (Angstroms)
 Number     Number       Type             X           Y           Z
 ---------------------------------------------------------------------
      1          6           0       -5.037497   -1.008031    0.044925
      2          8           0       -3.619261   -1.083140    0.048480
      3          6           0       -2.892903    0.080728   -0.005044
      4          6           0       -3.530972    1.305804   -0.063526
      5          6           0       -2.774169    2.505781   -0.110233
      6          6           0       -1.406967    2.450418   -0.089767
      7          6           0       -0.700040    1.213449   -0.029004
      8          6           0        0.746550    1.295828   -0.008531
      9          8           0        1.324274    2.460250   -0.029272
     10          6           0        1.447340    0.035965    0.035985
     11          6           0        2.892921   -0.080726    0.047797
     12          8           0        3.619241    1.083116   -0.006082
     13          6           0        5.037475    1.008034   -0.002825
     14          6           0        3.530975   -1.305801    0.106512
     15          6           0        2.774166   -2.505763    0.153582
     16          6           0        1.406965   -2.450414    0.133103
     17          6           0        0.700043   -1.213449    0.072023
     18          6           0       -0.746522   -1.295842    0.051416
     19          8           0       -1.324227   -2.460268    0.072052
     20          6           0       -1.447335   -0.035980    0.006885
     21          1           0       -5.387882   -2.038972    0.094459
     22          1           0       -5.419126   -0.456282    0.911495
     23          1           0       -5.419238   -0.542113   -0.870595
     24          1           0       -4.610062    1.365422   -0.072702
     25          1           0       -3.292602    3.458710   -0.159499
     26          1           0       -0.809817    3.352402   -0.122047
     27          1           0        5.387837    2.038963   -0.052757
     28          1           0        5.418908    0.456021   -0.869311
     29          1           0        5.419428    0.542397    0.912749
     30          1           0        4.610066   -1.365432    0.115634
     31          1           0        3.292604   -3.458678    0.203115
     32          1           0        0.809826   -3.352400    0.165659
 ---------------------------------------------------------------------

 SCF Done:  E(UB3LYP) =  -918.279207232     A.U. after    1 cycles

 Alpha  occ. eigenvalues --  -19.13222 -19.13222 -19.00772 -19.00771 -10.21288
 Alpha  occ. eigenvalues --  -10.21288 -10.20781 -10.20781 -10.17238 -10.17237
 Alpha  occ. eigenvalues --  -10.14536 -10.14536 -10.14183 -10.14182 -10.14094
 Alpha  occ. eigenvalues --  -10.14094 -10.13434 -10.13434 -10.13369 -10.13368
 Alpha  occ. eigenvalues --   -1.04664  -1.04660  -0.92469  -0.92069  -0.82178
 Alpha  occ. eigenvalues --   -0.81560  -0.75069  -0.73321  -0.73224  -0.70754
 Alpha  occ. eigenvalues --   -0.67916  -0.67520  -0.63495  -0.59911  -0.59129
 Alpha  occ. eigenvalues --   -0.55286  -0.53347  -0.51732  -0.50645  -0.47183
 Alpha  occ. eigenvalues --   -0.45741  -0.45486  -0.45441  -0.45404  -0.44082
 Alpha  occ. eigenvalues --   -0.43972  -0.42272  -0.40779  -0.39614  -0.38356
 Alpha  occ. eigenvalues --   -0.37992  -0.36515  -0.36264  -0.35527  -0.34671
 Alpha  occ. eigenvalues --   -0.33297  -0.32953  -0.32267  -0.32221  -0.31371
 Alpha  occ. eigenvalues --   -0.30888  -0.30279  -0.29025  -0.28795  -0.21799
 Alpha  occ. eigenvalues --   -0.21533  -0.20498  -0.20165  -0.18636  -0.18109
 Alpha  occ. eigenvalues --   -0.10158
 Alpha virt. eigenvalues --   -0.01423  -0.00077   0.00326   0.00363   0.01180
 Alpha virt. eigenvalues --    0.01759   0.02188   0.03202   0.03649   0.03819
 Alpha virt. eigenvalues --    0.03877   0.03988   0.04040   0.04827   0.05962

  Beta  occ. eigenvalues --  -19.13222 -19.13222 -19.00772 -19.00771 -10.21288
  Beta  occ. eigenvalues --  -10.21288 -10.20781 -10.20781 -10.17238 -10.17237
  Beta  occ. eigenvalues --  -10.14536 -10.14536 -10.14183 -10.14182 -10.14094
  Beta  occ. eigenvalues --  -10.14094 -10.13434 -10.13434 -10.13369 -10.13368
  Beta  occ. eigenvalues --   -1.04664  -1.04660  -0.92469  -0.92069  -0.82178
  Beta  occ. eigenvalues --   -0.81560  -0.75069  -0.73321  -0.73224  -0.70754
  Beta  occ. eigenvalues --   -0.67916  -0.67520  -0.63495  -0.59911  -0.59129
  Beta  occ. eigenvalues --   -0.55286  -0.53347  -0.51732  -0.50645  -0.47183
  Beta  occ. eigenvalues --   -0.45741  -0.45486  -0.45441  -0.45404  -0.44082
  Beta  occ. eigenvalues --   -0.43972  -0.42272  -0.40779  -0.39614  -0.38356
  Beta  occ. eigenvalues --   -0.37992  -0.36515  -0.36264  -0.35527  -0.34671
  Beta  occ. eigenvalues --   -0.33297  -0.32953  -0.32267  -0.32221  -0.31371
  Beta  occ. eigenvalues --   -0.30888  -0.30279  -0.29025  -0.28795  -0.21799
  Beta  occ. eigenvalues --   -0.21533  -0.20498  -0.20165  -0.18636  -0.18109
  Beta  occ. eigenvalues --   -0.10158
  Beta virt. eigenvalues --   -0.01423  -0.00077   0.00326   0.00363   0.01180
  Beta virt. eigenvalues --    0.01759   0.02188   0.03202   0.03649   0.03819
  Beta virt. eigenvalues --    0.03877   0.03988   0.04040   0.04827   0.05962

 Mulliken charges and spin densities:
               1          2
     1  C   -0.282093  -0.000000
     2  O   -0.152704  -0.000000
     3  C   -0.020226   0.000000
     4  C   -0.123504  -0.000000
     5  C   -0.577157  -0.000000
     6  C   -0.128774  -0.000000
     7  C    0.407198   0.000000
     8  C   -0.342605  -0.000000
     9  O   -0.684463   0.000000
    10  C   -0.038899  -0.000000
    11  C   -0.020198   0.000000
    12  O   -0.152675  -0.000000
    13  C   -0.282090  -0.000000
    14  C   -0.123487  -0.000000
    15  C   -0.577180  -0.000000
    16  C   -0.128751   0.000000
    17  C    0.407153   0.000000
    18  C   -0.342629  -0.000000
    19  O   -0.684461   0.000000
    20  C   -0.038913   0.000000
    21  H    0.186203   0.000000
    22  H    0.147625  -0.000000
    23  H    0.148582   0.000000
    24  H    0.159066   0.000000
    25  H    0.163748  -0.000000
    26  H    0.138005   0.000000
    27  H    0.186201  -0.000000
    28  H    0.147625   0.000000
    29  H    0.148585   0.000000
    30  H    0.159064  -0.000000
    31  H    0.163744  -0.000000
    32  H    0.138010  -0.000000
 Sum of Mulliken charges =  -2.00000  -0.00000

 Dipole moment (field-independent basis, Debye):
    X=              0.0001    Y=              0.0003    Z=             -0.2061  Tot=              0.2061
 Quadrupole moment (field-independent basis, Debye-Ang):
   XX=           -125.3351   YY=           -176.5047   ZZ=           -129.4400
   XY=            -15.8755   XZ=              0.1333   YZ=              1.0282

  Exact polarizability: 573.577 -66.625 456.073   6.825 -10.730 186.765
 Approx polarizability: 614.373 -66.816 534.099   7.577 -12.670 205.438

                      1                      2                      3
                      A                      A                      A
 Frequencies --     30.1353                44.6147                51.5492
 Red. masses --      4.1957                 5.8920                 5.2038
 Frc consts  --      0.0022                 0.0069                 0.0081
 IR Inten    --     15.2769                23.6098                 0.0000

                      4                      5                      6
                      A                      A                      A
 Frequencies --    106.0799               111.9386               149.4748
 Red. masses --      4.0622                 4.1834                 4.7712
 Frc consts  --      0.0269                 0.0309                 0.0628
 IR Inten    --      1.3961                 0.0000                10.3794

                      7                      8                      9
                      A                      A                      A
 Frequencies --    154.4665               186.1655               209.4984
 Red. masses --      4.3670                 2.9366                 4.9331
 Frc consts  --      0.0614                 0.0600                 0.1276
 IR Inten    --     31.0110                 0.0000                 0.0000

                     10                     11                     12
                      A                      A                      A
 Frequencies --    231.1080               275.3911               292.3467
 Red. masses --      2.4169                 1.4127                 1.4130
 Frc consts  --      0.0761                 0.0631                 0.0712
 IR Inten    --      0.0569                 0.0000                 0.0184

                     13                     14                     15
                      A                      A                      A
 Frequencies --    309.5014               311.8898               321.4541
 Red. masses --      3.7531                 3.3533                 3.9858
 Frc consts  --      0.2118                 0.1922                 0.2427
 IR Inten    --      0.0000                 0.0000                 2.2835

                     16                     17                     18
                      A                      A                      A
 Frequencies --    351.9806               375.0148               378.1645
 Red. masses --      6.9817                 8.6584                 7.0271
 Frc consts  --      0.5096                 0.7174                 0.5921
 IR Inten    --      0.0000                 1.1732                 0.0000

                     19                     20                     21
                      A                      A                      A
 Frequencies --    394.9865               400.1402               490.3760
 Red. masses --      7.9139                 7.1411                12.0880
 Frc consts  --      0.7275                 0.6737                 1.7126
 IR Inten    --      0.0000                 9.8710                 0.0000

                     22                     23                     24
                      A                      A                      A
 Frequencies --    495.3237               508.1899               548.3971
 Red. masses --      4.0184                 6.5736                 5.0955
 Frc consts  --      0.5809                 1.0002                 0.9029
 IR Inten    --      1.5104                 0.0000                 4.1336

                     25                     26                     27
                      A                      A                      A
 Frequencies --    565.9768               586.3398               623.5252
 Red. masses --      6.9969                 4.3896                 4.7369
 Frc consts  --      1.3205                 0.8892                 1.0851
 IR Inten    --     55.9807                 0.0000                36.6851

                     28                     29                     30
                      A                      A                      A
 Frequencies --    624.7959               659.8511               692.8319
 Red. masses --      5.4440                 3.8880                 1.9363
 Frc consts  --      1.2521                 0.9974                 0.5476
 IR Inten    --      0.0000                 0.0000               162.0920

                     31                     32                     33
                      A                      A                      A
 Frequencies --    694.6451               736.4187               755.6237
 Red. masses --      6.3478                 1.3178                 3.0727
 Frc consts  --      1.8047                 0.4211                 1.0337
 IR Inten    --      0.0000                 0.0001                22.5444

                     34                     35                     36
                      A                      A                      A
 Frequencies --    764.1058               777.1683               822.4647
 Red. masses --      6.3650                 3.4341                 2.4010
 Frc consts  --      2.1896                 1.2221                 0.9569
 IR Inten    --    112.3128               104.3429                 0.0000

                     37                     38                     39
                      A                      A                      A
 Frequencies --    830.4878               830.7957               833.8974
 Red. masses --      2.7098                 2.8951                 2.2870
 Frc consts  --      1.1012                 1.1774                 0.9370
 IR Inten    --      0.0039                33.8631                25.4066

                     40                     41                     42
                      A                      A                      A
 Frequencies --    870.1405               938.4959               961.1601
 Red. masses --      6.8149                 5.8329                 1.2741
 Frc consts  --      3.0401                 3.0269                 0.6935
 IR Inten    --      0.0000                 0.0000                 3.5436

                     43                     44                     45
                      A                      A                      A
 Frequencies --    961.2348               976.4917              1069.0911
 Red. masses --      1.2727                 7.1272                 4.6558
 Frc consts  --      0.6929                 4.0041                 3.1352
 IR Inten    --      2.4791               232.7459               824.9790

                     46                     47                     48
                      A                      A                      A
 Frequencies --   1075.3191              1083.9505              1087.5269
 Red. masses --      7.0687                 2.0212                 2.4414
 Frc consts  --      4.8158                 1.3992                 1.7012
 IR Inten    --      0.0010                 0.0018              1119.0493

                     49                     50                     51
                      A                      A                      A
 Frequencies --   1109.7318              1152.9999              1161.2633
 Red. masses --      2.0147                 2.0600                 1.2797
 Frc consts  --      1.4618                 1.6135                 1.0168
 IR Inten    --    663.6344                 0.0000                 3.0307

                     52                     53                     54
                      A                      A                      A
 Frequencies --   1161.2876              1167.0793              1182.9058
 Red. masses --      1.2797                 1.5624                 1.7027
 Frc consts  --      1.0168                 1.2539                 1.4037
 IR Inten    --      0.0019                 0.0000               146.2608

                     55                     56                     57
                      A                      A                      A
 Frequencies --   1204.9834              1205.3309              1230.1747
 Red. masses --      1.4075                 2.7943                 2.2930
 Frc consts  --      1.2041                 2.3919                 2.0445
 IR Inten    --      0.0237                89.1825               242.4013

                     58                     59                     60
                      A                      A                      A
 Frequencies --   1233.9088              1244.8843              1300.3175
 Red. masses --      2.6950                 3.8760                 5.3267
 Frc consts  --      2.4175                 3.5391                 5.3065
 IR Inten    --     14.3650                 0.0003                 0.0004

                     61                     62                     63
                      A                      A                      A
 Frequencies --   1328.2016              1334.9591              1361.0072
 Red. masses --      7.6462                 3.9145                 2.6815
 Frc consts  --      7.9474                 4.1102                 2.9265
 IR Inten    --   1554.5922              2178.1940                 0.0004

                     64                     65                     66
                      A                      A                      A
 Frequencies --   1405.1336              1424.7967              1455.1964
 Red. masses --      3.4829                 5.1180                 1.8157
 Frc consts  --      4.0517                 6.1215                 2.2653
 IR Inten    --     96.7241                 0.0000               590.5779

                     67                     68                     69
                      A                      A                      A
 Frequencies --   1459.1658              1468.3067              1476.1754
 Red. masses --      3.3370                 1.6615                 1.5834
 Frc consts  --      4.1861                 2.1105                 2.0330
 IR Inten    --      0.0000                 0.0000               176.6897

                     70                     71                     72
                      A                      A                      A
 Frequencies --   1479.5057              1479.8896              1479.9549
 Red. masses --      2.0920                 1.0475                 1.1028
 Frc consts  --      2.6981                 1.3517                 1.4232
 IR Inten    --      0.0005                19.7507                 0.0299

                     73                     74                     75
                      A                      A                      A
 Frequencies --   1497.3213              1499.4736              1536.7476
 Red. masses --      1.0717                 1.0872                 4.2186
 Frc consts  --      1.4157                 1.4402                 5.8698
 IR Inten    --    115.9897                 0.0001               558.6263

                     76                     77                     78
                      A                      A                      A
 Frequencies --   1578.2819              1605.4699              1606.8351
 Red. masses --      6.7372                 5.2508                 5.1379
 Frc consts  --      9.8878                 7.9741                 7.8158
 IR Inten    --      0.0000               101.9806                 0.0000

                     79                     80                     81
                      A                      A                      A
 Frequencies --   2994.4448              2994.6408              3048.8750
 Red. masses --      1.0341                 1.0341                 1.1054
 Frc consts  --      5.4631                 5.4640                 6.0540
 IR Inten    --    269.6810                 0.1863                25.1415

                     82                     83                     84
                      A                      A                      A
 Frequencies --   3048.8882              3114.5292              3114.5530
 Red. masses --      1.1054                 1.0988                 1.0988
 Frc consts  --      6.0540                 6.2802                 6.2802
 IR Inten    --    128.2684                87.3328                 3.3563

                     85                     86                     87
                      A                      A                      A
 Frequencies --   3144.4460              3144.6556              3190.4741
 Red. masses --      1.0876                 1.0877                 1.0906
 Frc consts  --      6.3356                 6.3372                 6.5406
 IR Inten    --    100.1666                 0.0990                80.0539

                     88                     89                     90
                      A                      A                      A
 Frequencies --   3190.8036              3206.8152              3206.9871
 Red. masses --      1.0906                 1.0898                 1.0898
 Frc consts  --      6.5419                 6.6030                 6.6039
 IR Inten    --      0.0646                63.7966                 0.0231

 - Thermochemistry -
 -------------------
 Temperature   298.150 Kelvin.  Pressure   1.00000 Atm.
 Atom     1 has atomic number  6 and mass  12.00000

 Molecular mass:   268.07356 amu.
 Principal axes and moments of inertia in atomic units:
                           1         2         3
     Eigenvalues --  2610.823087636.45107**********
           X            0.99988   0.01344  -0.00705
           Y           -0.01316   0.99919   0.03813
           Z            0.00756  -0.03803   0.99925
 This molecule is an asymmetric top.
 Rotational symmetry number  1.
 Warning -- assumption of classical behavior for rotation
           may cause significant error
 Rotational temperatures (Kelvin)      0.03317     0.01134     0.00847
 Rotational constants (GHZ):           0.69125     0.23633     0.17652
 Zero-point vibrational energy     626735.1 (Joules/Mol)
                                  149.79329 (Kcal/Mol)
 Warning -- explicit consideration of  26 degrees of freedom as
           vibrations may cause significant error
 Vibrational temperatures:     43.36    64.19    74.17   152.63   161.05
          (Kelvin)            215.06   222.24   267.85   301.42   332.51
                              396.23   420.62   445.30   448.74   462.50
                              506.42   539.56   544.09   568.30   575.71
                              705.54   712.66   731.17   789.02   814.31
                              843.61   897.11   898.94   949.38   996.83
                              999.44  1059.54  1087.17  1099.38  1118.17
                             1183.34  1194.89  1195.33  1199.79  1251.94
                             1350.29  1382.89  1383.00  1404.95  1538.18
                             1547.14  1559.56  1564.71  1596.66  1658.91
                             1670.80  1670.83  1679.17  1701.94  1733.70
                             1734.20  1769.95  1775.32  1791.11  1870.87
                             1910.99  1920.71  1958.19  2021.67  2049.96
                             2093.70  2099.41  2112.57  2123.89  2128.68
                             2129.23  2129.32  2154.31  2157.41  2211.04
                             2270.80  2309.91  2311.88  4308.34  4308.62
                             4386.65  4386.67  4481.11  4481.15  4524.16
                             4524.46  4590.38  4590.85  4613.89  4614.14

 Zero-point correction=                           0.238711 (Hartree/Particle)
 Thermal correction to Energy=                    0.255364
 Thermal correction to Enthalpy=                  0.256309
 Thermal correction to Gibbs Free Energy=         0.194095
 Sum of electronic and zero-point Energies=           -918.040496
 Sum of electronic and thermal Energies=              -918.023843
 Sum of electronic and thermal Enthalpies=            -918.022899
 Sum of electronic and thermal Free Energies=         -918.085112

                     E (Thermal)             CV                S
                      KCal/Mol        Cal/Mol-Kelvin    Cal/Mol-Kelvin
 Total                  160.244             65.394            130.939
 Electronic               0.000              0.000              0.000
 Translational            0.889              2.981             42.657
 Rotational               0.889              2.981             33.677
 Vibrational            158.466             59.433             54.605
 Vibration     1          0.594              1.984              5.820
 Vibration     2          0.595              1.980              5.043
 Vibration     3          0.596              1.977              4.757
 Vibration     4          0.605              1.944              3.339
 Vibration     5          0.607              1.940              3.235
 Vibration     6          0.618              1.903              2.679
 Vibration     7          0.620              1.898              2.616
 Vibration     8          0.632              1.859              2.266
 Vibration     9          0.642              1.826              2.048
 Vibration    10          0.653              1.793              1.870
 Vibration    11          0.677              1.719              1.562
 Vibration    12          0.688              1.688              1.460
 Vibration    13          0.699              1.656              1.365
 Vibration    14          0.700              1.651              1.352
 Vibration    15          0.707              1.632              1.303
 Vibration    16          0.729              1.571              1.157
 Vibration    17          0.746              1.523              1.059
 Vibration    18          0.748              1.517              1.046
 Vibration    19          0.762              1.481              0.981
 Vibration    20          0.766              1.470              0.962
 Vibration    21          0.846              1.271              0.683
 Vibration    22          0.851              1.260              0.670
 Vibration    23          0.863              1.232              0.638
 Vibration    24          0.904              1.143              0.548
 Vibration    25          0.922              1.105              0.512
 Vibration    26          0.943              1.061              0.474

 Optimization completed.
    -- Stationary point found.
 Normal termination of Gaussian 16 at Mon Feb 12 01:26:28 2024.
