 Gaussian 16, Revision A.03,
 Gaussian 16:  ES64L-G16RevA.03 25-Dec-2016

 ----------------------------------------------------------------
 #P UB3LYP/6-311++G(d,p) SCRF=(PCM,Solvent=n,n-DiMethylFormamide)
 ----------------------------------------------------------------

 ------------------
 Quinone PCM in DMF
 ------------------
 Symbolic Z-matrix:
 Charge =  0 Multiplicity = 1

                         Standard orientation:
 ---------------------------------------------------------------------
 Center     Atomic      Atomic             Coordinates (Angstroms)
 Number     Number       Type             X           Y           Z
 ---------------------------------------------------------------------
      1          6           0        7.911565    0.498367   -0.247483
      2          6           0        8.682261   -0.608140    0.095767
      3          6           0        8.077527   -1.729988    0.665682
      4          6           0        6.533496    0.479887   -0.019289
      5          6           0        5.922204   -0.647269    0.554112
      6          6           0        6.702926   -1.750403    0.894797
      7          6           0        5.703221    1.644145   -0.376956
      8          6           0        4.236128    1.570636   -0.117395
      9          6           0        3.625604    0.498817    0.445041
     10          6           0        4.440927   -0.680002    0.805387
     11          8           0        6.142715    2.673719   -0.876521
     12          8           0        3.925322   -1.670787    1.304256
     13          8           0        3.562554    2.672766   -0.484521
     14          1           0        8.357922    1.380295   -0.690356
     15          1           0        9.751718   -0.598140   -0.079824
     16          1           0        8.679789   -2.591081    0.932306
     17          1           0        6.218127   -2.612277    1.336192
     18          1           0        4.229194    3.290782   -0.840492
     19          6           0        2.143165    0.448635    0.687406
     20          6           0        1.369694   -0.206749   -0.476754
     21          1           0        1.770710    1.464273    0.842804
     22          1           0        1.960844   -0.124817    1.599679
     23          1           0        1.755452   -1.219311   -0.635431
     24          1           0        1.561525    0.355484   -1.397781
     25          6           0       -0.138183   -0.266911   -0.214984
     26          6           0       -0.921048   -0.922945   -1.368676
     27          6           0       -2.410941   -0.987621   -1.117346
     28          6           0       -3.254462    0.061196   -1.502347
     29          6           0       -2.987259   -2.082321   -0.464759
     30          6           0       -4.352946   -2.129124   -0.193848
     31          6           0       -5.167253   -1.070196   -0.582978
     32          6           0       -4.622762    0.027753   -1.247200
     33          8           0       -6.530430   -1.201336   -0.375271
     34          6           0       -7.260193   -0.170220    0.180230
     35          6           0       -6.728786    0.723515    1.110948
     36          6           0       -8.606141   -0.100272   -0.180029
     37          6           0       -9.421559    0.872206    0.391373
     38          6           0       -7.555969    1.696235    1.670517
     39          6           0       -8.901403    1.777739    1.316296
     40          1           0       -0.525150    0.745549   -0.048876
     41          1           0       -0.328442   -0.824000    0.709806
     42          1           0       -0.533963   -1.934673   -1.531696
     43          1           0       -0.730604   -0.364972   -2.292169
     44          1           0       -2.838061    0.916231   -2.025974
     45          1           0       -2.360686   -2.915804   -0.163060
     46          1           0       -4.798587   -2.980457    0.306601
     47          1           0       -5.263914    0.840894   -1.565713
     48          1           0       -5.686248    0.657351    1.395209
     49          1           0       -8.992806   -0.811292   -0.900081
     50          1           0      -10.467007    0.923803    0.108461
     51          1           0       -7.142372    2.389285    2.394775
     52          1           0       -9.537605    2.536147    1.757007
 ---------------------------------------------------------------------

 SCF Done:  E(UB3LYP) =  -1305.28368576     A.U. after   16 cycles

 The electronic state is 1-A.
 Alpha  occ. eigenvalues --  -19.18096 -19.17195 -19.15159 -19.13099 -10.29545
 Alpha  occ. eigenvalues --  -10.28251 -10.26938 -10.24702 -10.24240 -10.21305
 Alpha  occ. eigenvalues --  -10.21176 -10.20589 -10.20366 -10.20193 -10.20023
 Alpha  occ. eigenvalues --  -10.19984 -10.18617 -10.18532 -10.18489 -10.18317
 Alpha  occ. eigenvalues --  -10.18292 -10.18194 -10.18177 -10.18130 -10.18122
 Alpha  occ. eigenvalues --  -10.17936 -10.17812 -10.17335 -10.17154 -10.16934
 Alpha  occ. eigenvalues --   -1.11096  -1.09061  -1.06943  -1.06453  -0.89499
 Alpha  occ. eigenvalues --   -0.87540  -0.86209  -0.84653  -0.81119  -0.79213
 Alpha  occ. eigenvalues --   -0.78255  -0.77170  -0.76137  -0.75861  -0.74902
 Alpha  occ. eigenvalues --   -0.72147  -0.69500  -0.66801  -0.65481  -0.63703
 Alpha  occ. eigenvalues --   -0.62876  -0.62029  -0.61281  -0.60681  -0.59028
 Alpha  occ. eigenvalues --   -0.58115  -0.57622  -0.55701  -0.54497  -0.52151
 Alpha  occ. eigenvalues --   -0.51260  -0.50086  -0.49694  -0.48385  -0.48227
 Alpha  occ. eigenvalues --   -0.48152  -0.47379  -0.46952  -0.46787  -0.45543
 Alpha  occ. eigenvalues --   -0.45452  -0.44949  -0.44863  -0.43900  -0.43470
 Alpha  occ. eigenvalues --   -0.43246  -0.42825  -0.42103  -0.41707  -0.41222
 Alpha  occ. eigenvalues --   -0.40855  -0.40229  -0.39594  -0.39358  -0.38222
 Alpha  occ. eigenvalues --   -0.37930  -0.37475  -0.37312  -0.37058  -0.36443
 Alpha  occ. eigenvalues --   -0.35300  -0.35011  -0.34456  -0.33902  -0.33430
 Alpha  occ. eigenvalues --   -0.33119  -0.30534  -0.29211  -0.28246  -0.28106
 Alpha  occ. eigenvalues --   -0.27081  -0.26519  -0.26085  -0.25656  -0.23056
 Alpha virt. eigenvalues --   -0.12761  -0.05837  -0.03176  -0.02820  -0.02372
 Alpha virt. eigenvalues --   -0.01701  -0.01037  -0.00797  -0.00547   0.00136
 Alpha virt. eigenvalues --    0.00333   0.00999   0.01124   0.01267   0.01590

  Beta  occ. eigenvalues --  -19.18096 -19.17195 -19.15159 -19.13099 -10.29545
  Beta  occ. eigenvalues --  -10.28251 -10.26938 -10.24702 -10.24240 -10.21305
  Beta  occ. eigenvalues --  -10.21176 -10.20589 -10.20366 -10.20193 -10.20023
  Beta  occ. eigenvalues --  -10.19984 -10.18617 -10.18532 -10.18489 -10.18317
  Beta  occ. eigenvalues --  -10.18292 -10.18194 -10.18177 -10.18130 -10.18122
  Beta  occ. eigenvalues --  -10.17936 -10.17812 -10.17335 -10.17154 -10.16934
  Beta  occ. eigenvalues --   -1.11096  -1.09061  -1.06943  -1.06453  -0.89499
  Beta  occ. eigenvalues --   -0.87540  -0.86209  -0.84653  -0.81119  -0.79213
  Beta  occ. eigenvalues --   -0.78255  -0.77170  -0.76137  -0.75861  -0.74902
  Beta  occ. eigenvalues --   -0.72147  -0.69500  -0.66801  -0.65481  -0.63703
  Beta  occ. eigenvalues --   -0.62876  -0.62029  -0.61281  -0.60681  -0.59028
  Beta  occ. eigenvalues --   -0.58115  -0.57622  -0.55701  -0.54497  -0.52151
  Beta  occ. eigenvalues --   -0.51260  -0.50086  -0.49694  -0.48385  -0.48227
  Beta  occ. eigenvalues --   -0.48152  -0.47379  -0.46952  -0.46787  -0.45543
  Beta  occ. eigenvalues --   -0.45452  -0.44949  -0.44863  -0.43900  -0.43470
  Beta  occ. eigenvalues --   -0.43246  -0.42825  -0.42103  -0.41707  -0.41222
  Beta  occ. eigenvalues --   -0.40855  -0.40229  -0.39594  -0.39358  -0.38222
  Beta  occ. eigenvalues --   -0.37930  -0.37475  -0.37312  -0.37058  -0.36443
  Beta  occ. eigenvalues --   -0.35300  -0.35011  -0.34456  -0.33902  -0.33430
  Beta  occ. eigenvalues --   -0.33119  -0.30534  -0.29211  -0.28246  -0.28106
  Beta  occ. eigenvalues --   -0.27081  -0.26519  -0.26085  -0.25656  -0.23056
  Beta virt. eigenvalues --   -0.12761  -0.05837  -0.03176  -0.02820  -0.02372
  Beta virt. eigenvalues --   -0.01701  -0.01037  -0.00797  -0.00547   0.00136
  Beta virt. eigenvalues --    0.00333   0.00999   0.01124   0.01267   0.01590

 Mulliken charges and spin densities:
               1          2
     1  C    0.210671  -0.000000
     2  C   -0.380618  -0.000000
     3  C   -0.391031  -0.000000
     4  C    0.398684   0.000000
     5  C    0.001202   0.000000
     6  C    0.195489  -0.000000
     7  C   -0.775865  -0.000000
     8  C   -0.471875  -0.000000
     9  C    1.954998   0.000000
    10  C   -0.831565  -0.000000
    11  O   -0.310962  -0.000000
    12  O   -0.271754  -0.000000
    13  O   -0.219342   0.000000
    14  H    0.191006   0.000000
    15  H    0.211526  -0.000000
    16  H    0.208166   0.000000
    17  H    0.189724   0.000000
    18  H    0.307546   0.000000
    19  C   -0.385227   0.000000
    20  C   -0.770203  -0.000000
    21  H    0.238853   0.000000
    22  H    0.223100  -0.000000
    23  H    0.168335   0.000000
    24  H    0.170284   0.000000
    25  C   -0.271149   0.000000
    26  C   -1.065231   0.000000
    27  C    1.484432  -0.000000
    28  C   -0.323933   0.000000
    29  C   -0.302411  -0.000000
    30  C   -0.226765   0.000000
    31  C   -0.683021  -0.000000
    32  C    0.137853   0.000000
    33  O   -0.027983   0.000000
    34  C   -0.363231  -0.000000
    35  C    0.211726   0.000000
    36  C   -0.145736  -0.000000
    37  C   -0.226312   0.000000
    38  C   -0.094791   0.000000
    39  C   -0.350258  -0.000000
    40  H    0.131111  -0.000000
    41  H    0.136804  -0.000000
    42  H    0.172809  -0.000000
    43  H    0.174187  -0.000000
    44  H    0.199271   0.000000
    45  H    0.195287  -0.000000
    46  H    0.209758   0.000000
    47  H    0.201088  -0.000000
    48  H    0.190643   0.000000
    49  H    0.194204  -0.000000
    50  H    0.198534   0.000000
    51  H    0.209414  -0.000000
    52  H    0.172558   0.000000
 Sum of Mulliken charges =  -0.00000  -0.00000

 Dipole moment (field-independent basis, Debye):
    X=              4.5213    Y=              0.9520    Z=             -0.3195  Tot=              4.6315
 Quadrupole moment (field-independent basis, Debye-Ang):
   XX=           -136.7755   YY=           -176.1327   ZZ=           -179.2208
   XY=            -20.4900   XZ=             -1.6337   YZ=              2.4659

 Normal termination of Gaussian 16 at Thu Jan 25 20:38:17 2024.
