 Gaussian 16, Revision A.03,
 Gaussian 16:  ES64L-G16RevA.03 25-Dec-2016

 ----------------------------------------------------------------
 #P UB3LYP/6-311++G(d,p) SCRF=(PCM,Solvent=n,n-DiMethylFormamide)
 ----------------------------------------------------------------

 ------------------
 Quinone PCM in DMF
 ------------------
 Symbolic Z-matrix:
 Charge =  0 Multiplicity = 1

                         Standard orientation:
 ---------------------------------------------------------------------
 Center     Atomic      Atomic             Coordinates (Angstroms)
 Number     Number       Type             X           Y           Z
 ---------------------------------------------------------------------
      1          6           0        2.485586   -0.657366   -0.097045
      2          6           0        3.674908    0.055481   -0.068651
      3          6           0        3.694083    1.450529   -0.024079
      4          6           0        1.275324    0.039878   -0.059884
      5          6           0        1.277231    1.444308   -0.004057
      6          6           0        2.489690    2.140510    0.010461
      7          6           0       -0.000009   -0.737020   -0.083841
      8          6           0       -1.275346    0.039821   -0.059709
      9          6           0       -1.277165    1.444256   -0.003872
     10          6           0        0.000031    2.218531    0.036368
     11          6           0       -2.485634   -0.657378   -0.096813
     12          6           0       -2.489593    2.140492    0.010748
     13          6           0       -3.694020    1.450573   -0.023782
     14          8           0        0.000034   -1.953803   -0.115235
     15          8           0       -0.000010    3.434857    0.098673
     16          1           0        2.474534   -1.738132   -0.160308
     17          1           0       -4.639827    1.977510   -0.031747
     18          1           0        2.467514    3.222512    0.043430
     19          1           0       -2.474678   -1.738143   -0.160113
     20          1           0       -2.467377    3.222492    0.043727
     21          6           0       -3.674928    0.055519   -0.068416
     22         16           0        5.241309   -0.842167   -0.109042
     23         16           0       -5.241338   -0.842068   -0.109093
     24          8           0       -4.997134   -2.114627   -0.777771
     25          8           0       -6.265262    0.100295   -0.549452
     26          7           0       -5.531170   -1.168515    1.521642
     27          1           0       -5.522036   -2.168322    1.696163
     28          1           0       -6.396697   -0.734256    1.825270
     29          8           0        4.997066   -2.115031   -0.777124
     30          8           0        6.265327    0.099893   -0.549821
     31          7           0        5.531120   -1.167668    1.521934
     32          1           0        4.639934    1.977387   -0.032007
     33          1           0        6.397271   -0.734149    1.824866
     34          1           0        5.521069   -2.167357    1.697120
 ---------------------------------------------------------------------

 SCF Done:  E(UB3LYP) =  -1897.00611984     A.U. after   16 cycles

 The electronic state is 1-A.
 Alpha  occ. eigenvalues --  -89.09284 -89.09283 -19.14666 -19.14576 -19.14576
 Alpha  occ. eigenvalues --  -19.14574 -19.14541 -19.14540 -14.35709 -14.35709
 Alpha  occ. eigenvalues --  -10.29849 -10.29838 -10.24416 -10.24416 -10.22845
 Alpha  occ. eigenvalues --  -10.22844 -10.22794 -10.22794 -10.22316 -10.22316
 Alpha  occ. eigenvalues --  -10.22235 -10.22235 -10.21555 -10.21555  -8.15427
 Alpha  occ. eigenvalues --   -8.15427  -6.11710  -6.11710  -6.11687  -6.11687
 Alpha  occ. eigenvalues --   -6.11513  -6.11513  -1.15062  -1.15062  -1.08231
 Alpha  occ. eigenvalues --   -1.08052  -1.04309  -1.04308  -0.92779  -0.92759
 Alpha  occ. eigenvalues --   -0.91642  -0.90735  -0.84139  -0.80810  -0.80263
 Alpha  occ. eigenvalues --   -0.79708  -0.72940  -0.70361  -0.70326  -0.65762
 Alpha  occ. eigenvalues --   -0.65210  -0.63191  -0.60628  -0.58306  -0.57983
 Alpha  occ. eigenvalues --   -0.54851  -0.54845  -0.54307  -0.54169  -0.53066
 Alpha  occ. eigenvalues --   -0.52524  -0.52248  -0.50735  -0.48216  -0.48133
 Alpha  occ. eigenvalues --   -0.47467  -0.47370  -0.47099  -0.46927  -0.46748
 Alpha  occ. eigenvalues --   -0.46747  -0.44100  -0.43376  -0.42576  -0.41619
 Alpha  occ. eigenvalues --   -0.39886  -0.39402  -0.39148  -0.38553  -0.38482
 Alpha  occ. eigenvalues --   -0.35600  -0.35588  -0.34601  -0.34463  -0.34144
 Alpha  occ. eigenvalues --   -0.34135  -0.32773  -0.32760  -0.30262  -0.30196
 Alpha  occ. eigenvalues --   -0.29808  -0.29356  -0.29171  -0.29028
 Alpha virt. eigenvalues --   -0.13516  -0.09535  -0.06806  -0.04717  -0.01601
 Alpha virt. eigenvalues --   -0.01226  -0.00682   0.00355   0.01143   0.01431
 Alpha virt. eigenvalues --    0.02038   0.02623   0.02676   0.02980   0.03528

  Beta  occ. eigenvalues --  -89.09284 -89.09283 -19.14666 -19.14576 -19.14576
  Beta  occ. eigenvalues --  -19.14574 -19.14541 -19.14540 -14.35709 -14.35709
  Beta  occ. eigenvalues --  -10.29849 -10.29838 -10.24416 -10.24416 -10.22845
  Beta  occ. eigenvalues --  -10.22844 -10.22794 -10.22794 -10.22316 -10.22316
  Beta  occ. eigenvalues --  -10.22235 -10.22235 -10.21555 -10.21555  -8.15427
  Beta  occ. eigenvalues --   -8.15427  -6.11710  -6.11710  -6.11687  -6.11687
  Beta  occ. eigenvalues --   -6.11513  -6.11513  -1.15062  -1.15062  -1.08231
  Beta  occ. eigenvalues --   -1.08052  -1.04309  -1.04308  -0.92779  -0.92759
  Beta  occ. eigenvalues --   -0.91642  -0.90735  -0.84139  -0.80810  -0.80263
  Beta  occ. eigenvalues --   -0.79708  -0.72940  -0.70361  -0.70326  -0.65762
  Beta  occ. eigenvalues --   -0.65210  -0.63191  -0.60628  -0.58306  -0.57983
  Beta  occ. eigenvalues --   -0.54851  -0.54845  -0.54307  -0.54169  -0.53066
  Beta  occ. eigenvalues --   -0.52524  -0.52248  -0.50735  -0.48216  -0.48133
  Beta  occ. eigenvalues --   -0.47467  -0.47370  -0.47099  -0.46927  -0.46748
  Beta  occ. eigenvalues --   -0.46747  -0.44100  -0.43376  -0.42576  -0.41619
  Beta  occ. eigenvalues --   -0.39886  -0.39402  -0.39148  -0.38553  -0.38482
  Beta  occ. eigenvalues --   -0.35600  -0.35588  -0.34601  -0.34463  -0.34144
  Beta  occ. eigenvalues --   -0.34135  -0.32773  -0.32760  -0.30262  -0.30196
  Beta  occ. eigenvalues --   -0.29808  -0.29356  -0.29171  -0.29028
  Beta virt. eigenvalues --   -0.13516  -0.09535  -0.06806  -0.04717  -0.01601
  Beta virt. eigenvalues --   -0.01226  -0.00682   0.00355   0.01143   0.01431
  Beta virt. eigenvalues --    0.02038   0.02623   0.02676   0.02980   0.03528

 Mulliken charges and spin densities:
               1          2
     1  C   -0.182971  -0.000000
     2  C   -0.424630  -0.000000
     3  C   -0.524556  -0.000000
     4  C    0.299531  -0.000000
     5  C    0.610950   0.000000
     6  C    0.025257  -0.000000
     7  C   -0.879770   0.000000
     8  C    0.299178  -0.000000
     9  C    0.610638   0.000000
    10  C   -0.230701   0.000000
    11  C   -0.183224  -0.000000
    12  C    0.025642  -0.000000
    13  C   -0.524684  -0.000000
    14  O   -0.228900  -0.000000
    15  O   -0.230170   0.000000
    16  H    0.243736   0.000000
    17  H    0.268783  -0.000000
    18  H    0.196765  -0.000000
    19  H    0.243745   0.000000
    20  H    0.196765   0.000000
    21  C   -0.425139   0.000000
    22  S    0.522713   0.000000
    23  S    0.523087  -0.000000
    24  O   -0.259363  -0.000000
    25  O   -0.258934   0.000000
    26  N   -0.406473  -0.000000
    27  H    0.334332  -0.000000
    28  H    0.340094  -0.000000
    29  O   -0.259310  -0.000000
    30  O   -0.259006  -0.000000
    31  N   -0.406585  -0.000000
    32  H    0.268800  -0.000000
    33  H    0.340105  -0.000000
    34  H    0.334295  -0.000000
 Sum of Mulliken charges =  -0.00000  -0.00000

 Dipole moment (field-independent basis, Debye):
    X=             -0.0010    Y=              2.2111    Z=              7.5356  Tot=              7.8533
 Quadrupole moment (field-independent basis, Debye-Ang):
   XX=           -157.2730   YY=           -162.5735   ZZ=           -150.2749
   XY=              0.0073   XZ=             -0.0052   YZ=            -13.7295

 Normal termination of Gaussian 16 at Tue Jan 16 05:25:16 2024.
