 Gaussian 16, Revision A.03,
 Gaussian 16:  ES64L-G16RevA.03 25-Dec-2016

 --------------------------------------
 #P UB3LYP/6-311++G(d,p) nosym opt freq
 --------------------------------------

 --------
 Oxidized
 --------
 Symbolic Z-matrix:
 Charge =  0 Multiplicity = 1

 SCF Done:  E(UB3LYP) =  -1896.97854509     A.U. after   17 cycles
 Optimization completed.
    -- Stationary point found.
 Normal termination of Gaussian 16 at Sun Jan  7 06:55:39 2024.

 ----------------------------------------------------------------------
 #P Geom=AllCheck Guess=TCheck SCRF=Check GenChk UB3LYP/6-311++G(d,p) F
 req
 ----------------------------------------------------------------------

 Structure from the checkpoint file:  "220.chk"
 --------
 Oxidized
 --------
 Charge =  0 Multiplicity = 1

                          Input orientation:
 ---------------------------------------------------------------------
 Center     Atomic      Atomic             Coordinates (Angstroms)
 Number     Number       Type             X           Y           Z
 ---------------------------------------------------------------------
      1          6           0        4.990754   -2.633590    0.069885
      2          6           0        5.705232   -1.699591   -0.665378
      3          6           0        5.068561   -0.674941   -1.367700
      4          6           0        3.598198   -2.533219    0.124428
      5          6           0        2.942443   -1.500957   -0.568367
      6          6           0        3.684464   -0.579311   -1.313310
      7          6           0        2.838239   -3.539656    0.924532
      8          6           0        1.350285   -3.413209    0.948094
      9          6           0        0.691246   -2.382223    0.256507
     10          6           0        1.454868   -1.367012   -0.529991
     11          6           0        0.609553   -4.348675    1.675061
     12          6           0       -0.703838   -2.297149    0.294515
     13          6           0       -1.442702   -3.223843    1.017802
     14          8           0        3.408693   -4.422995    1.537591
     15          8           0        0.886127   -0.465027   -1.118452
     16          1           0        5.485954   -3.443725    0.590115
     17          1           0       -2.524324   -3.180864    1.040675
     18          1           0        3.157932    0.201644   -1.847333
     19          1           0        1.124147   -5.151238    2.188156
     20          1           0       -1.191245   -1.500872   -0.253831
     21          6           0       -0.772306   -4.235332    1.707723
     22         16           0        7.505701   -1.821381   -0.732401
     23         16           0       -1.732877   -5.438167    2.651889
     24          8           0       -0.951877   -6.667987    2.713153
     25          8           0       -3.099546   -5.392500    2.141482
     26          7           0       -1.755915   -4.769172    4.201657
     27          1           0       -1.269467   -5.368915    4.860315
     28          1           0       -2.708137   -4.573076    4.492737
     29          8           0        7.856398   -3.219581   -0.512809
     30          8           0        7.944039   -1.069586   -1.904169
     31          7           0        7.993079   -0.951572    0.629920
     32          1           0        5.654127    0.020683   -1.955489
     33          1           0        8.567328   -0.158948    0.361758
     34          1           0        8.462596   -1.557443    1.295235
 ---------------------------------------------------------------------

 SCF Done:  E(UB3LYP) =  -1896.97854509     A.U. after    2 cycles

 Alpha  occ. eigenvalues --  -89.09276 -89.09276 -19.15061 -19.14849 -19.14312
 Alpha  occ. eigenvalues --  -19.14311 -19.14273 -19.14272 -14.36849 -14.36848
 Alpha  occ. eigenvalues --  -10.30267 -10.30132 -10.24982 -10.24981 -10.23573
 Alpha  occ. eigenvalues --  -10.23572 -10.23500 -10.23500 -10.23036 -10.23035
 Alpha  occ. eigenvalues --  -10.22916 -10.22916 -10.22401 -10.22400  -8.15421
 Alpha  occ. eigenvalues --   -8.15420  -6.11719  -6.11719  -6.11653  -6.11652
 Alpha  occ. eigenvalues --   -6.11518  -6.11517  -1.14898  -1.14897  -1.08558
 Alpha  occ. eigenvalues --   -1.08311  -1.03989  -1.03988  -0.93755  -0.93746
 Alpha  occ. eigenvalues --   -0.92396  -0.91485  -0.84814  -0.81467  -0.80991
 Alpha  occ. eigenvalues --   -0.80459  -0.73480  -0.70965  -0.70896  -0.66381
 Alpha  occ. eigenvalues --   -0.65864  -0.63908  -0.61293  -0.58913  -0.58638
 Alpha  occ. eigenvalues --   -0.56052  -0.56051  -0.54815  -0.54682  -0.53113
 Alpha  occ. eigenvalues --   -0.52642  -0.52559  -0.51370  -0.48521  -0.48284
 Alpha  occ. eigenvalues --   -0.47986  -0.47773  -0.47648  -0.47306  -0.46713
 Alpha  occ. eigenvalues --   -0.46670  -0.44702  -0.43755  -0.43149  -0.42401
 Alpha  occ. eigenvalues --   -0.40610  -0.39929  -0.39790  -0.38412  -0.38367
 Alpha  occ. eigenvalues --   -0.35192  -0.35184  -0.34723  -0.34599  -0.33744
 Alpha  occ. eigenvalues --   -0.33743  -0.33397  -0.33314  -0.30842  -0.30630
 Alpha  occ. eigenvalues --   -0.30521  -0.30020  -0.29875  -0.29330
 Alpha virt. eigenvalues --   -0.14079  -0.10202  -0.07556  -0.05526  -0.02715
 Alpha virt. eigenvalues --   -0.02524  -0.01403  -0.00528   0.00359   0.00657
 Alpha virt. eigenvalues --    0.01448   0.01934   0.02030   0.02440   0.03064

  Beta  occ. eigenvalues --  -89.09276 -89.09276 -19.15061 -19.14849 -19.14312
  Beta  occ. eigenvalues --  -19.14311 -19.14273 -19.14272 -14.36849 -14.36848
  Beta  occ. eigenvalues --  -10.30267 -10.30132 -10.24982 -10.24981 -10.23573
  Beta  occ. eigenvalues --  -10.23572 -10.23500 -10.23500 -10.23036 -10.23035
  Beta  occ. eigenvalues --  -10.22916 -10.22916 -10.22401 -10.22400  -8.15421
  Beta  occ. eigenvalues --   -8.15420  -6.11719  -6.11719  -6.11653  -6.11652
  Beta  occ. eigenvalues --   -6.11518  -6.11517  -1.14898  -1.14897  -1.08558
  Beta  occ. eigenvalues --   -1.08311  -1.03989  -1.03988  -0.93755  -0.93746
  Beta  occ. eigenvalues --   -0.92396  -0.91485  -0.84814  -0.81467  -0.80991
  Beta  occ. eigenvalues --   -0.80459  -0.73480  -0.70965  -0.70896  -0.66381
  Beta  occ. eigenvalues --   -0.65864  -0.63908  -0.61293  -0.58913  -0.58638
  Beta  occ. eigenvalues --   -0.56052  -0.56051  -0.54815  -0.54682  -0.53113
  Beta  occ. eigenvalues --   -0.52642  -0.52559  -0.51370  -0.48521  -0.48284
  Beta  occ. eigenvalues --   -0.47986  -0.47773  -0.47648  -0.47306  -0.46713
  Beta  occ. eigenvalues --   -0.46670  -0.44702  -0.43755  -0.43149  -0.42401
  Beta  occ. eigenvalues --   -0.40610  -0.39929  -0.39790  -0.38412  -0.38367
  Beta  occ. eigenvalues --   -0.35192  -0.35184  -0.34723  -0.34599  -0.33744
  Beta  occ. eigenvalues --   -0.33743  -0.33397  -0.33314  -0.30842  -0.30630
  Beta  occ. eigenvalues --   -0.30521  -0.30020  -0.29875  -0.29330
  Beta virt. eigenvalues --   -0.14079  -0.10202  -0.07556  -0.05526  -0.02715
  Beta virt. eigenvalues --   -0.02524  -0.01403  -0.00528   0.00359   0.00657
  Beta virt. eigenvalues --    0.01448   0.01934   0.02030   0.02440   0.03064

 Mulliken charges and spin densities:
               1          2
     1  C   -0.207242  -0.000000
     2  C   -0.319085   0.000000
     3  C   -0.500576  -0.000000
     4  C    0.246983  -0.000000
     5  C    0.574654   0.000000
     6  C   -0.018068   0.000000
     7  C   -0.914004  -0.000000
     8  C    0.246934  -0.000000
     9  C    0.574275  -0.000000
    10  C   -0.342719  -0.000000
    11  C   -0.207554   0.000000
    12  C   -0.017643   0.000000
    13  C   -0.500503  -0.000000
    14  O   -0.176621   0.000000
    15  O   -0.183797   0.000000
    16  H    0.254532   0.000000
    17  H    0.253246  -0.000000
    18  H    0.192307  -0.000000
    19  H    0.254540  -0.000000
    20  H    0.192305   0.000000
    21  C   -0.319874   0.000000
    22  S    0.430085   0.000000
    23  S    0.430003   0.000000
    24  O   -0.178772   0.000000
    25  O   -0.186654   0.000000
    26  N   -0.356125  -0.000000
    27  H    0.310235  -0.000000
    28  H    0.313840  -0.000000
    29  O   -0.178780   0.000000
    30  O   -0.186828   0.000000
    31  N   -0.356398  -0.000000
    32  H    0.253257   0.000000
    33  H    0.313856  -0.000000
    34  H    0.310191  -0.000000
 Sum of Mulliken charges =  -0.00000   0.00000

 Dipole moment (field-independent basis, Debye):
    X=             -0.4109    Y=              4.7497    Z=              3.9569  Tot=              6.1956
 Quadrupole moment (field-independent basis, Debye-Ang):
   XX=           -158.3114   YY=           -194.7488   ZZ=           -139.4926
   XY=             17.8140   XZ=             13.2943   YZ=             -7.5145

  Exact polarizability: 336.967  33.399 218.209 -38.785 -64.895 189.038
 Approx polarizability: 467.326 -12.970 387.879 -11.456-119.353 307.645

                      1                      2                      3
                      A                      A                      A
 Frequencies --     20.2681                21.9375                30.6839
 Red. masses --      8.7509                 7.4568                 8.3687
 Frc consts  --      0.0021                 0.0021                 0.0046
 IR Inten    --      1.0394                 0.7372                 1.6220

                      4                      5                      6
                      A                      A                      A
 Frequencies --     58.2340                74.1893                77.2411
 Red. masses --      5.9534                10.7549                 8.5029
 Frc consts  --      0.0119                 0.0349                 0.0299
 IR Inten    --      2.1610                 0.3186                 5.0495

                      7                      8                      9
                      A                      A                      A
 Frequencies --    125.6656               130.8371               132.4474
 Red. masses --      3.9072                 4.4818                 7.3045
 Frc consts  --      0.0364                 0.0452                 0.0755
 IR Inten    --      4.8684                 1.2169                 1.3971

                     10                     11                     12
                      A                      A                      A
 Frequencies --    160.6584               163.4970               166.7250
 Red. masses --      1.6298                 1.4000                 4.3194
 Frc consts  --      0.0248                 0.0220                 0.0707
 IR Inten    --     26.9621                11.0666                 4.3499

                     13                     14                     15
                      A                      A                      A
 Frequencies --    188.4202               213.7588               236.4868
 Red. masses --     13.1096                 6.2602                 6.2904
 Frc consts  --      0.2742                 0.1685                 0.2073
 IR Inten    --      0.8597                 2.2462                 8.6653

                     16                     17                     18
                      A                      A                      A
 Frequencies --    255.9384               279.7544               297.6895
 Red. masses --     12.4990                 8.3636                 6.5310
 Frc consts  --      0.4824                 0.3857                 0.3410
 IR Inten    --      0.1393                 2.0439                 3.1907

                     19                     20                     21
                      A                      A                      A
 Frequencies --    331.7079               367.3953               369.8570
 Red. masses --      6.5136                 3.1260                 3.1789
 Frc consts  --      0.4223                 0.2486                 0.2562
 IR Inten    --      0.1881                 0.6730                 3.2497

                     22                     23                     24
                      A                      A                      A
 Frequencies --    402.7933               416.7724               424.4905
 Red. masses --      9.9640                 3.4630                 7.3301
 Frc consts  --      0.9525                 0.3544                 0.7782
 IR Inten    --     43.2942                 0.0734                 2.7266

                     25                     26                     27
                      A                      A                      A
 Frequencies --    432.2129               437.7712               444.5597
 Red. masses --      6.2741                 6.2975                 8.6804
 Frc consts  --      0.6906                 0.7111                 1.0108
 IR Inten    --     14.2926                 1.3408                 3.7410

                     28                     29                     30
                      A                      A                      A
 Frequencies --    444.8116               462.9485               475.0283
 Red. masses --      3.7158                 6.9385                 6.7325
 Frc consts  --      0.4332                 0.8762                 0.8951
 IR Inten    --      0.2786                 5.2118                37.7576

                     31                     32                     33
                      A                      A                      A
 Frequencies --    490.0407               525.0597               563.0914
 Red. masses --      9.4724                 6.3803                 3.5815
 Frc consts  --      1.3402                 1.0364                 0.6691
 IR Inten    --      6.2759                 2.8158               112.3417

                     34                     35                     36
                      A                      A                      A
 Frequencies --    571.5051               580.8601               622.2117
 Red. masses --      4.5389                 6.8214                 2.3751
 Frc consts  --      0.8735                 1.3560                 0.5418
 IR Inten    --    116.7084                54.0513               338.8373

                     37                     38                     39
                      A                      A                      A
 Frequencies --    624.3006               656.7872               674.8138
 Red. masses --      2.5221                 7.5118                 3.8865
 Frc consts  --      0.5792                 1.9092                 1.0427
 IR Inten    --     10.2182                27.5360                63.4305

                     40                     41                     42
                      A                      A                      A
 Frequencies --    681.7242               705.1086               723.9414
 Red. masses --      6.6878                 6.8595                 4.5621
 Frc consts  --      1.8313                 2.0094                 1.4087
 IR Inten    --      1.3046                 0.4255                 2.4176

                     43                     44                     45
                      A                      A                      A
 Frequencies --    730.3408               756.5693               806.8636
 Red. masses --      6.7782                 5.3264                 4.6769
 Frc consts  --      2.1302                 1.7963                 1.7940
 IR Inten    --      1.4545                26.2242                 0.5137

                     46                     47                     48
                      A                      A                      A
 Frequencies --    824.3935               844.4957               867.0872
 Red. masses --      3.5378                 2.8352                 1.3484
 Frc consts  --      1.4166                 1.1913                 0.5973
 IR Inten    --     41.7651               343.3462                 2.0429

                     49                     50                     51
                      A                      A                      A
 Frequencies --    873.4155               885.8236               943.6683
 Red. masses --      4.7486                 1.6340                 6.5052
 Frc consts  --      2.1343                 0.7554                 3.4131
 IR Inten    --     75.6814                19.3795                50.5830

                     52                     53                     54
                      A                      A                      A
 Frequencies --    948.8396               957.4516               992.9606
 Red. masses --      1.3812                 1.4341                 5.4375
 Frc consts  --      0.7326                 0.7746                 3.1587
 IR Inten    --      0.5249                 7.8260                91.0196

                     55                     56                     57
                      A                      A                      A
 Frequencies --   1012.3285              1014.4976              1082.1998
 Red. masses --      1.3470                 1.3632                 2.6893
 Frc consts  --      0.8133                 0.8266                 1.8557
 IR Inten    --      0.4104                 1.4178                57.1399

                     58                     59                     60
                      A                      A                      A
 Frequencies --   1082.8589              1089.7587              1089.7975
 Red. masses --      2.6162                 1.3015                 1.3029
 Frc consts  --      1.8075                 0.9106                 0.9117
 IR Inten    --      5.0198                 4.5181                 5.3588

                     61                     62                     63
                      A                      A                      A
 Frequencies --   1104.8395              1115.4807              1136.2002
 Red. masses --      6.2721                 4.5603                 1.9012
 Frc consts  --      4.5109                 3.3432                 1.4461
 IR Inten    --    132.9821               352.4320                56.6414

                     64                     65                     66
                      A                      A                      A
 Frequencies --   1138.7419              1185.2365              1187.0354
 Red. masses --      2.4510                 1.8520                 3.9271
 Frc consts  --      1.8726                 1.5329                 3.2603
 IR Inten    --     30.3784                36.6109                 1.2153

                     67                     68                     69
                      A                      A                      A
 Frequencies --   1230.0435              1275.4999              1286.1325
 Red. masses --      1.8099                 1.4163                 2.0332
 Frc consts  --      1.6134                 1.3576                 1.9815
 IR Inten    --      1.6284                18.9447               163.1712

                     70                     71                     72
                      A                      A                      A
 Frequencies --   1305.8997              1323.4140              1325.1684
 Red. masses --      4.4875                10.3515                 9.8318
 Frc consts  --      4.5090                10.6818                10.1725
 IR Inten    --    520.8641                50.2395               260.3637

                     73                     74                     75
                      A                      A                      A
 Frequencies --   1351.5733              1361.4372              1422.3782
 Red. masses --      7.6902                 9.4034                 3.8316
 Frc consts  --      8.2769                10.2690                 4.5674
 IR Inten    --     62.9360                 5.5908                 1.6188

                     76                     77                     78
                      A                      A                      A
 Frequencies --   1440.7541              1495.7897              1502.5779
 Red. masses --      4.8334                 2.6124                 2.5584
 Frc consts  --      5.9113                 3.4438                 3.4033
 IR Inten    --      2.6534                 9.2990                 0.9537

                     79                     80                     81
                      A                      A                      A
 Frequencies --   1585.3345              1585.4533              1598.6783
 Red. masses --      1.0968                 1.0966                 7.6691
 Frc consts  --      1.6241                 1.6241                11.5482
 IR Inten    --     30.4697                40.4654                 1.3938

                     82                     83                     84
                      A                      A                      A
 Frequencies --   1612.7884              1621.4134              1627.5069
 Red. masses --      8.5918                 6.3553                 6.2127
 Frc consts  --     13.1671                 9.8441                 9.6957
 IR Inten    --      4.2952               114.2887                 0.1899

                     85                     86                     87
                      A                      A                      A
 Frequencies --   1728.4353              1738.1460              3197.4096
 Red. masses --     12.8087                12.3722                 1.0886
 Frc consts  --     22.5456                22.0226                 6.5570
 IR Inten    --     10.5848               306.2543                 6.3317

                     88                     89                     90
                      A                      A                      A
 Frequencies --   3197.5944              3208.0492              3208.3513
 Red. masses --      1.0887                 1.0913                 1.0915
 Frc consts  --      6.5586                 6.6171                 6.6199
 IR Inten    --      0.5294                 0.6978                12.2173

                     91                     92                     93
                      A                      A                      A
 Frequencies --   3209.4508              3209.6968              3511.1659
 Red. masses --      1.0949                 1.0948                 1.0460
 Frc consts  --      6.6448                 6.6456                 7.5976
 IR Inten    --      0.0112                 1.0588                68.0140

                     94                     95                     96
                      A                      A                      A
 Frequencies --   3511.3291              3619.3991              3619.5278
 Red. masses --      1.0460                 1.0996                 1.0997
 Frc consts  --      7.5984                 8.4874                 8.4881
 IR Inten    --     62.9189                46.2276                56.1869

 - Thermochemistry -
 -------------------
 Temperature   298.150 Kelvin.  Pressure   1.00000 Atm.
 Atom     1 has atomic number  6 and mass  12.00000

 Molecular mass:   365.99803 amu.
 Principal axes and moments of inertia in atomic units:
                           1         2         3
     Eigenvalues --  3273.77478********************
           X            0.88132  -0.46936   0.05458
           Y            0.34503   0.71813   0.60435
           Z           -0.32285  -0.51380   0.79485
 This molecule is an asymmetric top.
 Rotational symmetry number  1.
 Warning -- assumption of classical behavior for rotation
           may cause significant error
 Rotational temperatures (Kelvin)      0.02646     0.00403     0.00361
 Rotational constants (GHZ):           0.55127     0.08402     0.07525
 Zero-point vibrational energy     607975.2 (Joules/Mol)
                                  145.30955 (Kcal/Mol)
 Warning -- explicit consideration of  35 degrees of freedom as
           vibrations may cause significant error
 Vibrational temperatures:     29.16    31.56    44.15    83.79   106.74
          (Kelvin)            111.13   180.80   188.25   190.56   231.15
                              235.24   239.88   271.09   307.55   340.25
                              368.24   402.50   428.31   477.25   528.60
                              532.14   579.53   599.64   610.75   621.86
                              629.86   639.62   639.98   666.08   683.46
                              705.06   755.44   810.16   822.27   835.73
                              895.22   898.23   944.97   970.91   980.85
                             1014.49  1041.59  1050.80  1088.53  1160.90
                             1186.12  1215.04  1247.55  1256.65  1274.50
                             1357.73  1365.17  1377.56  1428.65  1456.51
                             1459.64  1557.04  1557.99  1567.92  1567.98
                             1589.62  1604.93  1634.74  1638.40  1705.29
                             1707.88  1769.76  1835.16  1850.46  1878.90
                             1904.10  1906.62  1944.61  1958.80  2046.49
                             2072.92  2152.11  2161.87  2280.94  2281.11
                             2300.14  2320.44  2332.85  2341.62  2486.83
                             2500.80  4600.36  4600.63  4615.67  4616.10
                             4617.68  4618.04  5051.78  5052.02  5207.51
                             5207.69

 Zero-point correction=                           0.231566 (Hartree/Particle)
 Thermal correction to Energy=                    0.252900
 Thermal correction to Enthalpy=                  0.253844
 Thermal correction to Gibbs Free Energy=         0.179221
 Sum of electronic and zero-point Energies=          -1896.746980
 Sum of electronic and thermal Energies=             -1896.725645
 Sum of electronic and thermal Enthalpies=           -1896.724701
 Sum of electronic and thermal Free Energies=        -1896.799324

                     E (Thermal)             CV                S
                      KCal/Mol        Cal/Mol-Kelvin    Cal/Mol-Kelvin
 Total                  158.697             80.864            157.058
 Electronic               0.000              0.000              0.000
 Translational            0.889              2.981             43.585
 Rotational               0.889              2.981             35.776
 Vibrational            156.920             74.902             77.696
 Vibration     1          0.593              1.986              6.608
 Vibration     2          0.593              1.985              6.451
 Vibration     3          0.594              1.984              5.785
 Vibration     4          0.596              1.974              4.516
 Vibration     5          0.599              1.966              4.039
 Vibration     6          0.599              1.964              3.960
 Vibration     7          0.611              1.927              3.011
 Vibration     8          0.612              1.922              2.934
 Vibration     9          0.613              1.921              2.910
 Vibration    10          0.622              1.891              2.542
 Vibration    11          0.623              1.887              2.509
 Vibration    12          0.624              1.883              2.472
 Vibration    13          0.633              1.856              2.243
 Vibration    14          0.644              1.820              2.011
 Vibration    15          0.655              1.785              1.829
 Vibration    16          0.666              1.753              1.689
 Vibration    17          0.680              1.711              1.535
 Vibration    18          0.691              1.678              1.430
 Vibration    19          0.714              1.612              1.252
 Vibration    20          0.740              1.539              1.091
 Vibration    21          0.742              1.534              1.080
 Vibration    22          0.768              1.464              0.952
 Vibration    23          0.780              1.434              0.903
 Vibration    24          0.786              1.417              0.877
 Vibration    25          0.793              1.400              0.851
 Vibration    26          0.798              1.388              0.834
 Vibration    27          0.804              1.373              0.812
 Vibration    28          0.804              1.372              0.812
 Vibration    29          0.821              1.332              0.758
 Vibration    30          0.832              1.305              0.724
 Vibration    31          0.846              1.272              0.683
 Vibration    32          0.880              1.195              0.598
 Vibration    33          0.919              1.111              0.518
 Vibration    34          0.928              1.093              0.501
 Vibration    35          0.938              1.073              0.484

 Optimization completed.
    -- Stationary point found.
 Normal termination of Gaussian 16 at Sun Jan  7 09:49:08 2024.
