 Q-Chem 5.4, Q-Chem, Inc., Pleasanton, CA (2021)
 Q-Chem 5.4.0 for Intel X86 EM64T Linux

User input:
--------------------------------------------------------------
$molecule
-2 2
C                 -3.4910560000      2.4308950000      1.1340260000
C                 -4.2138110000      2.2998590000      2.3041160000
C                 -3.8327700000      1.3563790000      3.2733210000
C                 -2.3419150000      1.6242220000      0.8634270000
C                 -1.9548770000      0.6657510000      1.8472210000
C                 -2.7030040000      0.5563830000      3.0173420000
C                 -1.6335010000      1.8174530000     -0.3836450000
C                 -0.4514870000      0.9724850000     -0.6293980000
C                 -0.0140610000      0.0015430000      0.3024640000
C                 -0.7341350000     -0.2462380000      1.6397280000
C                  0.2697620000      1.1355130000     -1.8388330000
C                  1.3879860000      0.3664270000     -2.1233230000
C                  1.8193380000     -0.5947070000     -1.2052120000
C                  1.1157040000     -0.7619510000     -0.0136020000
O                 -2.0133020000      2.6812630000     -1.2318940000
S                  2.3701580000      0.6189300000     -3.6507810000
O                  1.3950120000      1.0140050000     -4.7020720000
O                  3.3497240000      1.6914050000     -3.3106910000
O                  3.0200360000     -0.7032140000     -3.9003640000
C                  0.2737920000     -0.0031650000      2.7984780000
C                 -1.2060950000     -1.7273690000      1.6832770000
H                 -3.7663420000      3.1516670000      0.3730910000
H                 -5.0834240000      2.9321920000      2.4751170000
H                 -4.3908690000      1.2420600000      4.1978890000
H                 -2.4120760000     -0.1722850000      3.7695740000
H                 -0.0872280000      1.8755500000     -2.5431680000
H                  2.6814370000     -1.2060270000     -1.4418320000
H                  1.4659950000     -1.5184540000      0.6837050000
H                  0.6152890000      1.0347880000      2.7837240000
H                  1.1513870000     -0.6491040000      2.7009960000
H                 -0.1893170000     -0.1955890000      3.7715180000
H                 -0.3638790000     -2.4147240000      1.5600500000
H                 -1.9169990000     -1.9157980000      0.8749530000
H                 -1.7015130000     -1.9557050000      2.6323660000
$end
$rem
MAX_SCF_CYCLES=200
BASIS  =  6-311++G(d,p)
GUI  =  2
JOB_TYPE  =  SP
METHOD  =  B3LYP
SOLVENT_METHOD = PCM
$end
$pcm
theory = CPCM
$end
$solvent
dielectric 37.219
opticaldielectric 1.43
$end

--------------------------------------------------------------

             Standard Nuclear Orientation (Angstroms)
    I     Atom           X                Y                Z
 ----------------------------------------------------------------
    1      C      -3.4910560000     2.4308950000     1.1340260000
    2      C      -4.2138110000     2.2998590000     2.3041160000
    3      C      -3.8327700000     1.3563790000     3.2733210000
    4      C      -2.3419150000     1.6242220000     0.8634270000
    5      C      -1.9548770000     0.6657510000     1.8472210000
    6      C      -2.7030040000     0.5563830000     3.0173420000
    7      C      -1.6335010000     1.8174530000    -0.3836450000
    8      C      -0.4514870000     0.9724850000    -0.6293980000
    9      C      -0.0140610000     0.0015430000     0.3024640000
   10      C      -0.7341350000    -0.2462380000     1.6397280000
   11      C       0.2697620000     1.1355130000    -1.8388330000
   12      C       1.3879860000     0.3664270000    -2.1233230000
   13      C       1.8193380000    -0.5947070000    -1.2052120000
   14      C       1.1157040000    -0.7619510000    -0.0136020000
   15      O      -2.0133020000     2.6812630000    -1.2318940000
   16      S       2.3701580000     0.6189300000    -3.6507810000
   17      O       1.3950120000     1.0140050000    -4.7020720000
   18      O       3.3497240000     1.6914050000    -3.3106910000
   19      O       3.0200360000    -0.7032140000    -3.9003640000
   20      C       0.2737920000    -0.0031650000     2.7984780000
   21      C      -1.2060950000    -1.7273690000     1.6832770000
   22      H      -3.7663420000     3.1516670000     0.3730910000
   23      H      -5.0834240000     2.9321920000     2.4751170000
   24      H      -4.3908690000     1.2420600000     4.1978890000
   25      H      -2.4120760000    -0.1722850000     3.7695740000
   26      H      -0.0872280000     1.8755500000    -2.5431680000
   27      H       2.6814370000    -1.2060270000    -1.4418320000
   28      H       1.4659950000    -1.5184540000     0.6837050000
   29      H       0.6152890000     1.0347880000     2.7837240000
   30      H       1.1513870000    -0.6491040000     2.7009960000
   31      H      -0.1893170000    -0.1955890000     3.7715180000
   32      H      -0.3638790000    -2.4147240000     1.5600500000
   33      H      -1.9169990000    -1.9157980000     0.8749530000
   34      H      -1.7015130000    -1.9557050000     2.6323660000
 ----------------------------------------------------------------

    8   -1317.1363913546      7.57e-06  Convergence criterion met
 Total energy in the final basis set =    -1317.1363913546

                    Orbital Energies (a.u.)
 --------------------------------------------------------------

 Alpha MOs
 -- Occupied --
-89.0396 -19.0873 -19.0860 -19.0853 -19.0506 -10.1945 -10.1880 -10.1831
-10.1729 -10.1680 -10.1633 -10.1618 -10.1612 -10.1604 -10.1590 -10.1577
-10.1574 -10.1566 -10.1514 -10.1511 -10.1511  -8.0986  -6.0614  -6.0613
 -6.0600  -1.1027  -0.9748  -0.9686  -0.9655  -0.8617  -0.8404  -0.8021
 -0.7559  -0.7410  -0.7299  -0.7164  -0.6786  -0.6391  -0.6350  -0.6088
 -0.5854  -0.5712  -0.5471  -0.5199  -0.5132  -0.4791  -0.4640  -0.4564
 -0.4496  -0.4448  -0.4396  -0.4272  -0.4242  -0.4212  -0.4073  -0.4030
 -0.3945  -0.3898  -0.3890  -0.3829  -0.3628  -0.3560  -0.3532  -0.3425
 -0.3402  -0.3318  -0.3311  -0.3294  -0.3183  -0.3011  -0.2967  -0.2911
 -0.2811  -0.2526  -0.2481  -0.2439  -0.2404  -0.2384  -0.2236  -0.1076

 Beta MOs
 -- Occupied --
-89.0396 -19.0873 -19.0860 -19.0853 -19.0453 -10.1902 -10.1881 -10.1837
-10.1717 -10.1666 -10.1637 -10.1619 -10.1597 -10.1595 -10.1587 -10.1581
-10.1577 -10.1544 -10.1508 -10.1508 -10.1496  -8.0986  -6.0614  -6.0613
 -6.0600  -1.1028  -0.9687  -0.9655  -0.9645  -0.8595  -0.8384  -0.8006
 -0.7516  -0.7392  -0.7273  -0.7149  -0.6781  -0.6361  -0.6293  -0.6073
 -0.5832  -0.5703  -0.5453  -0.5175  -0.5123  -0.4771  -0.4632  -0.4557
 -0.4494  -0.4434  -0.4387  -0.4259  -0.4234  -0.4178  -0.4066  -0.4019
 -0.3933  -0.3885  -0.3850  -0.3708  -0.3622  -0.3513  -0.3503  -0.3393
 -0.3362  -0.3310  -0.3309  -0.3202  -0.3172  -0.3002  -0.2947  -0.2909
 -0.2812  -0.2527  -0.2393  -0.2348  -0.2333  -0.2273  -0.2189

          Ground-State Mulliken Net Atomic Charges

     Atom                 Charge (a.u.)    Spin (a.u.)
  --------------------------------------------------------
      1 C                    -0.127856       0.177442
      2 C                    -0.428234      -0.063546
      3 C                    -0.553723       0.190399
      4 C                     0.541783      -0.062556
      5 C                     0.334459       0.130680
      6 C                    -0.270718      -0.056305
      7 C                    -0.575757       0.276581
      8 C                     0.690201      -0.034720
      9 C                     0.330358       0.115760
     10 C                     0.441715      -0.096031
     11 C                    -0.030855       0.155169
     12 C                    -0.991857      -0.068362
     13 C                    -0.570623       0.150431
     14 C                    -0.295113      -0.040907
     15 O                    -0.575247       0.207322
     16 S                     0.800611       0.003834
     17 O                    -0.422162      -0.000251
     18 O                    -0.388811      -0.001496
     19 O                    -0.442852      -0.000659
     20 C                    -0.846464       0.019371
     21 C                    -0.843682       0.019043
     22 H                     0.177273      -0.010805
     23 H                     0.181764       0.003200
     24 H                     0.186463      -0.013403
     25 H                     0.144516       0.002041
     26 H                     0.197553      -0.010648
     27 H                     0.213454      -0.011571
     28 H                     0.154462       0.001370
     29 H                     0.171702       0.000650
     30 H                     0.158566       0.004269
     31 H                     0.155579       0.004364
     32 H                     0.157684       0.004614
     33 H                     0.170491       0.000960
     34 H                     0.155313       0.003759
  --------------------------------------------------------
  Sum of atomic charges =    -2.000008

                    Cartesian Multipole Moments
 -----------------------------------------------------------------
    Charge (ESU x 10^10)
                -9.6064
    Dipole Moment (Debye)
         X      -5.7705      Y     -13.9577      Z      25.2317
       Tot      29.4068
    Quadrupole Moments (Debye-Ang)
        XX    -204.0061     XY       7.6494     YY    -172.1562
        XZ      53.5723     YZ      18.2683     ZZ    -238.3013

 Total job time:  98.29s(wall), 652.89s(cpu)
        *  Thank you very much for using Q-Chem.  Have a nice day.  *
