 Gaussian 16, Revision A.03,
 Gaussian 16:  ES64L-G16RevA.03 25-Dec-2016

 ----------------------------------------------------------------------
 #P UB3LYP/6-311++G(d,p) nosym opt freq SCRF=(PCM,Solvent=n,n-DiMethylF
 ormamide)
 ----------------------------------------------------------------------

 -------
 Radical
 -------
 Symbolic Z-matrix:
 Charge = -1 Multiplicity = 2

 SCF Done:  E(UB3LYP) =  -948.154335600     A.U. after   27 cycles
 SCF Done:  E(UB3LYP) =  -948.147006152     A.U. after   20 cycles
 SCF Done:  E(UB3LYP) =  -948.154625722     A.U. after   19 cycles
 SCF Done:  E(UB3LYP) =  -948.154683251     A.U. after   17 cycles
 SCF Done:  E(UB3LYP) =  -948.153746913     A.U. after   17 cycles
 SCF Done:  E(UB3LYP) =  -948.154704306     A.U. after   14 cycles
 SCF Done:  E(UB3LYP) =  -948.154726494     A.U. after   14 cycles
 SCF Done:  E(UB3LYP) =  -948.154740046     A.U. after   14 cycles
 SCF Done:  E(UB3LYP) =  -948.154750329     A.U. after   15 cycles
 SCF Done:  E(UB3LYP) =  -948.154756445     A.U. after   14 cycles
 SCF Done:  E(UB3LYP) =  -948.154762755     A.U. after   15 cycles
 SCF Done:  E(UB3LYP) =  -948.154765502     A.U. after   14 cycles
 SCF Done:  E(UB3LYP) =  -948.154767686     A.U. after   13 cycles
 SCF Done:  E(UB3LYP) =  -948.154769458     A.U. after   14 cycles
 SCF Done:  E(UB3LYP) =  -948.154770198     A.U. after   14 cycles
 Optimization completed.
    -- Stationary point found.
 Normal termination of Gaussian 16 at Sat Feb 10 12:27:47 2024.

 ----------------------------------------------------------------------
 #P Geom=AllCheck Guess=TCheck SCRF=Check GenChk UB3LYP/6-311++G(d,p) F
 req
 ----------------------------------------------------------------------

 Structure from the checkpoint file:  "035-rad.chk"
 -------
 Radical
 -------
 Charge = -1 Multiplicity = 2

                          Input orientation:
 ---------------------------------------------------------------------
 Center     Atomic      Atomic             Coordinates (Angstroms)
 Number     Number       Type             X           Y           Z
 ---------------------------------------------------------------------
      1          6           0        2.470255   -4.797038    2.054182
      2          6           0        2.474867   -3.920003    0.902273
      3          6           0        2.103931   -2.603267    0.855251
      4          6           0        1.652921   -1.994698    2.105960
      5          6           0        1.658552   -2.871615    3.264867
      6          6           0        2.019390   -4.190736    3.297866
      7          8           0        2.835610   -5.998145    1.980851
      8          8           0        1.257418   -0.806046    2.185630
      9          6           0        1.998756   -5.057100    4.523971
     10          6           0        2.140694   -1.783522   -0.425433
     11          6           0        0.733911   -1.325542   -0.858238
     12          6           0        3.122324   -0.599554   -0.325799
     13          7           0        2.943490   -4.593217   -0.334740
     14          7           0        1.201492   -2.225034    4.512217
     15          1           0        1.857148   -4.486030    5.440605
     16          1           0        2.932799   -5.617258    4.597150
     17          1           0        1.192353   -5.793960    4.454996
     18          1           0        2.515865   -2.433585   -1.220344
     19          1           0        0.795021   -0.817703   -1.825067
     20          1           0        0.306187   -0.636081   -0.130070
     21          1           0        0.058873   -2.178482   -0.967888
     22          1           0        3.183430   -0.091596   -1.292537
     23          1           0        4.126290   -0.942242   -0.061472
     24          1           0        2.792735    0.120138    0.423986
     25          8           0        4.139391   -4.548466   -0.590350
     26          8           0        2.111296   -5.173156   -1.018889
     27          8           0        0.094451   -2.527456    4.945229
     28          8           0        1.950170   -1.415817    5.042836
 ---------------------------------------------------------------------

 SCF Done:  E(UB3LYP) =  -948.154770198     A.U. after    2 cycles

 Alpha  occ. eigenvalues --  -19.18048 -19.18042 -19.17806 -19.17740 -19.10179
 Alpha  occ. eigenvalues --  -19.10023 -14.56639 -14.56418 -10.25453 -10.25253
 Alpha  occ. eigenvalues --  -10.23379 -10.23280 -10.21015 -10.20728 -10.19054
 Alpha  occ. eigenvalues --  -10.17529 -10.15708 -10.15708  -1.25435  -1.25147
 Alpha  occ. eigenvalues --   -1.08017  -1.07705  -1.03018  -1.02716  -0.88250
 Alpha  occ. eigenvalues --   -0.84870  -0.79783  -0.76847  -0.74340  -0.69444
 Alpha  occ. eigenvalues --   -0.68504  -0.64847  -0.62209  -0.59727  -0.58056
 Alpha  occ. eigenvalues --   -0.57104  -0.56517  -0.53911  -0.53801  -0.53315
 Alpha  occ. eigenvalues --   -0.52671  -0.49376  -0.45366  -0.45235  -0.44803
 Alpha  occ. eigenvalues --   -0.43364  -0.43001  -0.42413  -0.40543  -0.40429
 Alpha  occ. eigenvalues --   -0.39741  -0.39431  -0.37969  -0.35535  -0.34907
 Alpha  occ. eigenvalues --   -0.34238  -0.33914  -0.33692  -0.33351  -0.33340
 Alpha  occ. eigenvalues --   -0.33126  -0.32934  -0.29707  -0.27093  -0.27032
 Alpha  occ. eigenvalues --   -0.26132  -0.18615
 Alpha virt. eigenvalues --   -0.09642  -0.09488  -0.03106  -0.00455   0.00154
 Alpha virt. eigenvalues --    0.00550   0.02037   0.02100   0.02800   0.03694
 Alpha virt. eigenvalues --    0.03955   0.04676   0.05134   0.05436   0.05915

  Beta  occ. eigenvalues --  -19.18043 -19.18036 -19.17797 -19.17729 -19.09476
  Beta  occ. eigenvalues --  -19.09315 -14.56644 -14.56422 -10.25344 -10.25123
  Beta  occ. eigenvalues --  -10.23314 -10.23202 -10.20855 -10.20563 -10.19063
  Beta  occ. eigenvalues --  -10.17540 -10.15699 -10.15698  -1.25428  -1.25133
  Beta  occ. eigenvalues --   -1.08007  -1.07683  -1.01835  -1.01490  -0.87734
  Beta  occ. eigenvalues --   -0.84687  -0.79625  -0.76508  -0.74010  -0.69031
  Beta  occ. eigenvalues --   -0.68473  -0.64466  -0.61987  -0.59629  -0.57913
  Beta  occ. eigenvalues --   -0.57009  -0.56445  -0.53878  -0.53745  -0.53129
  Beta  occ. eigenvalues --   -0.52408  -0.49247  -0.45102  -0.44557  -0.44185
  Beta  occ. eigenvalues --   -0.42925  -0.42536  -0.41865  -0.40187  -0.39761
  Beta  occ. eigenvalues --   -0.39385  -0.38341  -0.36905  -0.35398  -0.34766
  Beta  occ. eigenvalues --   -0.34184  -0.33889  -0.33632  -0.33278  -0.33004
  Beta  occ. eigenvalues --   -0.32915  -0.32355  -0.26946  -0.26443  -0.26385
  Beta  occ. eigenvalues --   -0.25513
  Beta virt. eigenvalues --   -0.11452  -0.09577  -0.09373  -0.01597  -0.00426
  Beta virt. eigenvalues --    0.00551   0.01630   0.02117   0.02818   0.02937
  Beta virt. eigenvalues --    0.03707   0.04059   0.04698   0.05164   0.05479

 Mulliken charges and spin densities:
               1          2
     1  C   -0.703381   0.077048
     2  C    0.117561   0.055192
     3  C    1.178534   0.112393
     4  C   -0.875867   0.091626
     5  C   -1.170808   0.030353
     6  C    1.668630   0.110873
     7  O   -0.404096   0.262179
     8  O   -0.364814   0.261043
     9  C   -0.353734  -0.001750
    10  C   -0.087551  -0.019555
    11  C   -0.635607   0.008706
    12  C   -0.647114   0.009825
    13  N   -0.259601  -0.011789
    14  N   -0.253604  -0.006706
    15  H    0.182678   0.000252
    16  H    0.182490   0.003598
    17  H    0.207760   0.006383
    18  H    0.200823  -0.000650
    19  H    0.157398   0.000513
    20  H    0.189110  -0.000988
    21  H    0.142772   0.000346
    22  H    0.158015   0.000611
    23  H    0.143234   0.000215
    24  H    0.187887  -0.000974
    25  O    0.010219   0.002374
    26  O    0.010499   0.002294
    27  O   -0.002054   0.003101
    28  O    0.020620   0.003486
 Sum of Mulliken charges =  -1.00000   1.00000

 Dipole moment (field-independent basis, Debye):
    X=             -9.9013    Y=             16.6427    Z=            -10.2062  Tot=             21.8902
 Quadrupole moment (field-independent basis, Debye-Ang):
   XX=           -140.1675   YY=           -199.9237   ZZ=           -151.9000
   XY=             46.7294   XZ=             -9.5838   YZ=             11.3479

  Exact polarizability: 188.931 -28.089 294.889 -18.314  -0.464 243.701
 Approx polarizability: 243.422 -22.196 350.717 -11.275   7.000 243.692

                      1                      2                      3
                      A                      A                      A
 Frequencies --     31.3190                34.4562                55.3926
 Red. masses --      5.7243                 7.9914                 7.8223
 Frc consts  --      0.0033                 0.0056                 0.0141
 IR Inten    --      1.1382                 0.4202                 0.6023

                      4                      5                      6
                      A                      A                      A
 Frequencies --     64.1438                70.8848                74.7865
 Red. masses --      2.1703                 2.3158                 2.2376
 Frc consts  --      0.0053                 0.0069                 0.0074
 IR Inten    --      4.3149                 1.7256                 0.4734

                      7                      8                      9
                      A                      A                      A
 Frequencies --    111.3755               144.2107               152.0366
 Red. masses --      5.8060                 5.1329                 7.2677
 Frc consts  --      0.0424                 0.0629                 0.0990
 IR Inten    --      6.3373                 4.1045                 6.4377

                     10                     11                     12
                      A                      A                      A
 Frequencies --    157.7667               196.8887               213.8199
 Red. masses --      5.9142                 5.1512                 3.1218
 Frc consts  --      0.0867                 0.1177                 0.0841
 IR Inten    --      8.4346                 0.3911                 1.9971

                     13                     14                     15
                      A                      A                      A
 Frequencies --    221.2597               234.2459               253.1680
 Red. masses --      1.2342                 1.1916                 4.4893
 Frc consts  --      0.0356                 0.0385                 0.1695
 IR Inten    --      0.7817                 0.9606                 0.1387

                     16                     17                     18
                      A                      A                      A
 Frequencies --    259.6897               277.2424               316.3644
 Red. masses --      6.8521                 3.4067                 4.3957
 Frc consts  --      0.2723                 0.1543                 0.2592
 IR Inten    --      0.8489                 0.2117                 1.4512

                     19                     20                     21
                      A                      A                      A
 Frequencies --    350.5240               376.1367               422.2168
 Red. masses --      9.6803                 6.3491                 3.1194
 Frc consts  --      0.7008                 0.5292                 0.3276
 IR Inten    --     12.1248                 1.0134                 0.0115

                     22                     23                     24
                      A                      A                      A
 Frequencies --    457.1468               467.1353               471.7631
 Red. masses --      4.3900                 6.5939                 6.3493
 Frc consts  --      0.5405                 0.8478                 0.8326
 IR Inten    --      0.3778                 1.7506                29.2578

                     25                     26                     27
                      A                      A                      A
 Frequencies --    530.0017               563.8815               608.6098
 Red. masses --      6.6917                 9.5334                 7.6203
 Frc consts  --      1.1075                 1.7860                 1.6630
 IR Inten    --      0.3245                 0.6760                 3.2755

                     28                     29                     30
                      A                      A                      A
 Frequencies --    642.9087               679.9902               738.6659
 Red. masses --      7.6162                 7.3324                 7.8778
 Frc consts  --      1.8547                 1.9976                 2.5325
 IR Inten    --      5.5670                13.9658                54.8087

                     31                     32                     33
                      A                      A                      A
 Frequencies --    745.2210               776.2633               782.4130
 Red. masses --      7.7746                 9.2841                11.9936
 Frc consts  --      2.5439                 3.2962                 4.3259
 IR Inten    --     82.9230                 6.3572                19.1140

                     34                     35                     36
                      A                      A                      A
 Frequencies --    826.4645               858.2010               896.9264
 Red. masses --      5.0986                 3.8499                 5.2749
 Frc consts  --      2.0519                 1.6706                 2.5002
 IR Inten    --     10.1141                32.2111                28.5972

                     37                     38                     39
                      A                      A                      A
 Frequencies --    930.4213               964.8967               967.2882
 Red. masses --      1.1501                 1.5530                 3.9812
 Frc consts  --      0.5866                 0.8519                 2.1947
 IR Inten    --      2.1332                 0.0938                16.2784

                     40                     41                     42
                      A                      A                      A
 Frequencies --    971.5292              1041.7407              1053.6286
 Red. masses --      4.6664                 1.5187                 2.3605
 Frc consts  --      2.5951                 0.9710                 1.5439
 IR Inten    --      1.1669                 1.2869               103.5056

                     43                     44                     45
                      A                      A                      A
 Frequencies --   1070.8821              1115.1642              1143.5005
 Red. masses --      2.5424                 2.3715                 2.8222
 Frc consts  --      1.7178                 1.7376                 2.1743
 IR Inten    --     58.9555                 3.8861                23.2970

                     46                     47                     48
                      A                      A                      A
 Frequencies --   1178.1766              1204.6682              1270.7081
 Red. masses --      4.9065                 2.8228                 5.1588
 Frc consts  --      4.0127                 2.4136                 4.9078
 IR Inten    --     11.0340                 4.3381                44.8744

                     49                     50                     51
                      A                      A                      A
 Frequencies --   1332.5685              1381.5894              1383.9597
 Red. masses --      1.3147                 1.8257                 1.2145
 Frc consts  --      1.3754                 2.0533                 1.3705
 IR Inten    --      6.5933                 9.8423                 8.0987

                     52                     53                     54
                      A                      A                      A
 Frequencies --   1390.1893              1399.0243              1409.1248
 Red. masses --      5.5826                 1.4954                 1.3424
 Frc consts  --      6.3567                 1.7245                 1.5704
 IR Inten    --    372.3287                89.7141                47.4266

                     55                     56                     57
                      A                      A                      A
 Frequencies --   1414.2015              1423.4568              1459.8340
 Red. masses --      8.1514                 2.5384                 1.0736
 Frc consts  --      9.6052                 3.0304                 1.3481
 IR Inten    --     54.8091                 4.3626                13.4897

                     58                     59                     60
                      A                      A                      A
 Frequencies --   1473.3487              1476.2048              1485.8824
 Red. masses --      1.2003                 1.0412                 1.0874
 Frc consts  --      1.5352                 1.3368                 1.4146
 IR Inten    --     12.8633                 0.9807               108.4664

                     61                     62                     63
                      A                      A                      A
 Frequencies --   1492.2103              1503.2719              1521.0750
 Red. masses --      1.0483                 1.1548                 4.8118
 Frc consts  --      1.3753                 1.5375                 6.5593
 IR Inten    --      3.6903                72.4348               554.4675

                     64                     65                     66
                      A                      A                      A
 Frequencies --   1524.6564              1536.8963              1547.0008
 Red. masses --      8.9010                 5.6642                12.9122
 Frc consts  --     12.1908                 7.8828                18.2067
 IR Inten    --    391.8511                31.6897               647.4894

                     67                     68                     69
                      A                      A                      A
 Frequencies --   1549.1750              1641.7141              3026.1522
 Red. masses --     14.4244                 8.8857                 1.0362
 Frc consts  --     20.3962                14.1103                 5.5910
 IR Inten    --    815.8607                 1.9569                57.1886

                     70                     71                     72
                      A                      A                      A
 Frequencies --   3029.3461              3036.2269              3047.8458
 Red. masses --      1.0381                 1.0421                 1.0819
 Frc consts  --      5.6129                 5.6601                 5.9214
 IR Inten    --     53.7886                24.4556                29.7847

                     73                     74                     75
                      A                      A                      A
 Frequencies --   3085.1965              3086.5060              3090.9461
 Red. masses --      1.1022                 1.1017                 1.0938
 Frc consts  --      6.1814                 6.1837                 6.1573
 IR Inten    --     29.3105                79.7996                16.4531

                     76                     77                     78
                      A                      A                      A
 Frequencies --   3117.8735              3122.0751              3132.4778
 Red. masses --      1.1008                 1.1000                 1.1017
 Frc consts  --      6.3048                 6.3170                 6.3691
 IR Inten    --      4.8994                43.1006                16.2722

 - Thermochemistry -
 -------------------
 Temperature   298.150 Kelvin.  Pressure   1.00000 Atm.
 Atom     1 has atomic number  6 and mass  12.00000

 Molecular mass:   254.05389 amu.
 Principal axes and moments of inertia in atomic units:
                           1         2         3
     Eigenvalues --  3105.124744876.356687063.68660
           X           -0.26652  -0.20020   0.94281
           Y            0.20078   0.94520   0.25746
           Z            0.94268  -0.25791   0.21172
 This molecule is an asymmetric top.
 Rotational symmetry number  1.
 Warning -- assumption of classical behavior for rotation
           may cause significant error
 Rotational temperatures (Kelvin)      0.02789     0.01776     0.01226
 Rotational constants (GHZ):           0.58121     0.37010     0.25550
 Zero-point vibrational energy     520950.7 (Joules/Mol)
                                  124.51020 (Kcal/Mol)
 Warning -- explicit consideration of  27 degrees of freedom as
           vibrations may cause significant error
 Vibrational temperatures:     45.06    49.57    79.70    92.29   101.99
          (Kelvin)            107.60   160.24   207.49   218.75   226.99
                              283.28   307.64   318.34   337.03   364.25
                              373.64   398.89   455.18   504.33   541.18
                              607.48   657.73   672.10   678.76   762.55
                              811.30   875.65   925.00   978.35  1062.78
                             1072.21  1116.87  1125.72  1189.10  1234.76
                             1290.48  1338.67  1388.27  1391.71  1397.81
                             1498.83  1515.94  1540.76  1604.47  1645.24
                             1695.13  1733.25  1828.27  1917.27  1987.80
                             1991.21  2000.17  2012.88  2027.42  2034.72
                             2048.04  2100.38  2119.82  2123.93  2137.85
                             2146.96  2162.87  2188.49  2193.64  2211.25
                             2225.79  2228.92  2362.06  4353.96  4358.55
                             4368.45  4385.17  4438.91  4440.79  4447.18
                             4485.92  4491.97  4506.94

 Zero-point correction=                           0.198420 (Hartree/Particle)
 Thermal correction to Energy=                    0.216340
 Thermal correction to Enthalpy=                  0.217284
 Thermal correction to Gibbs Free Energy=         0.150298
 Sum of electronic and zero-point Energies=           -947.956351
 Sum of electronic and thermal Energies=              -947.938430
 Sum of electronic and thermal Enthalpies=            -947.937486
 Sum of electronic and thermal Free Energies=         -948.004472

                     E (Thermal)             CV                S
                      KCal/Mol        Cal/Mol-Kelvin    Cal/Mol-Kelvin
 Total                  135.755             63.224            140.984
 Electronic               0.000              0.000              1.377
 Translational            0.889              2.981             42.497
 Rotational               0.889              2.981             33.036
 Vibrational            133.978             57.262             64.073
 Vibration     1          0.594              1.983              5.744
 Vibration     2          0.594              1.983              5.555
 Vibration     3          0.596              1.975              4.615
 Vibration     4          0.597              1.971              4.325
 Vibration     5          0.598              1.968              4.129
 Vibration     6          0.599              1.966              4.023
 Vibration     7          0.607              1.940              3.245
 Vibration     8          0.616              1.909              2.747
 Vibration     9          0.619              1.900              2.647
 Vibration    10          0.621              1.894              2.576
 Vibration    11          0.636              1.844              2.162
 Vibration    12          0.644              1.820              2.011
 Vibration    13          0.648              1.809              1.949
 Vibration    14          0.654              1.788              1.846
 Vibration    15          0.664              1.757              1.708
 Vibration    16          0.668              1.746              1.664
 Vibration    17          0.678              1.716              1.551
 Vibration    18          0.703              1.642              1.329
 Vibration    19          0.727              1.574              1.164
 Vibration    20          0.747              1.521              1.055
 Vibration    21          0.785              1.422              0.884
 Vibration    22          0.815              1.345              0.774
 Vibration    23          0.824              1.323              0.746
 Vibration    24          0.829              1.313              0.733
 Vibration    25          0.885              1.184              0.587
 Vibration    26          0.920              1.109              0.516
 Vibration    27          0.967              1.014              0.435

                           ! Non-Optimized Parameters !
 Normal termination of Gaussian 16 at Sat Feb 10 13:44:34 2024.
