 Q-Chem 5.4, Q-Chem, Inc., Pleasanton, CA (2021)
 Q-Chem 5.4.0 for Intel X86 EM64T Linux

User input:
--------------------------------------------------------------
$molecule
-1 2
C                  0.8028010000      1.6574700000     -0.7056460000
C                 -0.5241430000      1.0145160000     -0.6246930000
C                 -0.6511680000     -0.2467360000     -0.0548040000
C                  0.5514430000     -0.9823610000      0.3848720000
C                  1.8478690000     -0.3408120000      0.2723350000
C                  1.9675190000      0.9256540000     -0.2442910000
C                  3.3101780000      1.6058250000     -0.3581460000
C                  3.0536950000     -1.1145230000      0.7473360000
O                  0.9346150000      2.8319350000     -1.1700300000
O                  0.4644500000     -2.1583880000      0.8557840000
H                  4.0149660000      1.0117110000     -0.9534670000
H                  3.7752730000      1.7493760000      0.6260040000
H                  3.1845580000      2.5810030000     -0.8280150000
H                  2.7327120000     -2.0727740000      1.1551010000
H                  3.6072570000     -0.5659650000      1.5198230000
H                  3.7613620000     -1.3024540000     -0.0708390000
C                 -1.9206210000     -1.0705150000      0.2020480000
C                 -3.1226220000     -0.3653480000      0.8510900000
C                 -2.3286040000     -1.9454640000     -1.0027880000
C                 -1.6101200000      1.9243520000     -1.2154730000
C                 -2.2759220000      2.8360860000     -0.1624220000
C                 -2.6288520000      1.3003100000     -2.1830020000
H                 -1.5784620000     -1.7934120000      0.9459750000
H                 -3.8348490000     -1.1229670000      1.2017300000
H                 -3.6682770000      0.3034320000      0.1854170000
H                 -2.8052810000      0.2163290000      1.7214460000
H                 -3.1378120000     -2.6306990000     -0.7179420000
H                 -1.4764260000     -2.5513700000     -1.3201100000
H                 -2.6697340000     -1.3614450000     -1.8593890000
H                 -1.0237370000      2.6149610000     -1.8256230000
H                 -2.9228880000      3.5745260000     -0.6539950000
H                 -1.5058950000      3.3827620000      0.3873600000
H                 -2.8830470000      2.2851640000      0.5579770000
H                 -3.1602510000      2.1031620000     -2.7095590000
H                 -3.3839420000      0.6765390000     -1.7045640000
H                 -2.1219150000      0.6910400000     -2.9369290000
$end

$rem
BASIS  =  6-311++G(d,p)
GUI  =  2
JOB_TYPE  =  SP
METHOD  =  B3LYP
SCF_CONVERGENCE  = 8
SOLVENT_METHOD = sm12
$end

$smx
solvent dimethylformamide
charges CM5
$end

--------------------------------------------------------------

             Standard Nuclear Orientation (Angstroms)
    I     Atom           X                Y                Z
 ----------------------------------------------------------------
    1      C       0.8028010000     1.6574700000    -0.7056460000
    2      C      -0.5241430000     1.0145160000    -0.6246930000
    3      C      -0.6511680000    -0.2467360000    -0.0548040000
    4      C       0.5514430000    -0.9823610000     0.3848720000
    5      C       1.8478690000    -0.3408120000     0.2723350000
    6      C       1.9675190000     0.9256540000    -0.2442910000
    7      C       3.3101780000     1.6058250000    -0.3581460000
    8      C       3.0536950000    -1.1145230000     0.7473360000
    9      O       0.9346150000     2.8319350000    -1.1700300000
   10      O       0.4644500000    -2.1583880000     0.8557840000
   11      H       4.0149660000     1.0117110000    -0.9534670000
   12      H       3.7752730000     1.7493760000     0.6260040000
   13      H       3.1845580000     2.5810030000    -0.8280150000
   14      H       2.7327120000    -2.0727740000     1.1551010000
   15      H       3.6072570000    -0.5659650000     1.5198230000
   16      H       3.7613620000    -1.3024540000    -0.0708390000
   17      C      -1.9206210000    -1.0705150000     0.2020480000
   18      C      -3.1226220000    -0.3653480000     0.8510900000
   19      C      -2.3286040000    -1.9454640000    -1.0027880000
   20      C      -1.6101200000     1.9243520000    -1.2154730000
   21      C      -2.2759220000     2.8360860000    -0.1624220000
   22      C      -2.6288520000     1.3003100000    -2.1830020000
   23      H      -1.5784620000    -1.7934120000     0.9459750000
   24      H      -3.8348490000    -1.1229670000     1.2017300000
   25      H      -3.6682770000     0.3034320000     0.1854170000
   26      H      -2.8052810000     0.2163290000     1.7214460000
   27      H      -3.1378120000    -2.6306990000    -0.7179420000
   28      H      -1.4764260000    -2.5513700000    -1.3201100000
   29      H      -2.6697340000    -1.3614450000    -1.8593890000
   30      H      -1.0237370000     2.6149610000    -1.8256230000
   31      H      -2.9228880000     3.5745260000    -0.6539950000
   32      H      -1.5058950000     3.3827620000     0.3873600000
   33      H      -2.8830470000     2.2851640000     0.5579770000
   34      H      -3.1602510000     2.1031620000    -2.7095590000
   35      H      -3.3839420000     0.6765390000    -1.7045640000
   36      H      -2.1219150000     0.6910400000    -2.9369290000
 ----------------------------------------------------------------

   15    -696.2223638102      9.21e-09  Convergence criterion met
 Total energy in the final basis set =     -696.3012546244

                    Orbital Energies (a.u.)
 --------------------------------------------------------------

 Alpha MOs
 -- Occupied --
-19.0678 -19.0678 -10.2119 -10.2119 -10.1705 -10.1705 -10.1700 -10.1694
-10.1650 -10.1644 -10.1623 -10.1623 -10.1603 -10.1603 -10.1599 -10.1598
 -0.9921  -0.9898  -0.8298  -0.8089  -0.7883  -0.7457  -0.7253  -0.6912
 -0.6852  -0.6663  -0.6611  -0.6016  -0.5852  -0.5417  -0.5206  -0.4984
 -0.4631  -0.4454  -0.4427  -0.4383  -0.4371  -0.4233  -0.4174  -0.4130
 -0.4013  -0.3995  -0.3931  -0.3928  -0.3876  -0.3795  -0.3761  -0.3683
 -0.3610  -0.3592  -0.3447  -0.3437  -0.3396  -0.3274  -0.3166  -0.3122
 -0.2656  -0.2399  -0.2359  -0.2225  -0.1524

 Beta MOs
 -- Occupied --
-19.0609 -19.0609 -10.2105 -10.2104 -10.1706 -10.1706 -10.1689 -10.1683
-10.1640 -10.1634 -10.1622 -10.1622 -10.1604 -10.1604 -10.1598 -10.1598
 -0.9802  -0.9775  -0.8254  -0.8071  -0.7876  -0.7435  -0.7228  -0.6910
 -0.6850  -0.6647  -0.6544  -0.5975  -0.5848  -0.5379  -0.5182  -0.4967
 -0.4611  -0.4441  -0.4424  -0.4366  -0.4330  -0.4206  -0.4161  -0.4117
 -0.3962  -0.3962  -0.3920  -0.3917  -0.3870  -0.3792  -0.3681  -0.3610
 -0.3587  -0.3454  -0.3428  -0.3411  -0.3289  -0.3259  -0.3133  -0.3108
 -0.2348  -0.2335  -0.2284  -0.2166

          Ground-State Mulliken Net Atomic Charges

     Atom                 Charge (a.u.)    Spin (a.u.)
  --------------------------------------------------------
      1 C                    -2.465587       0.045051
      2 C                    -0.368920       0.094317
      3 C                    -0.369307       0.094452
      4 C                    -2.458522       0.045031
      5 C                     0.178712       0.099661
      6 C                     0.178929       0.099456
      7 C                     0.287589       0.000076
      8 C                     0.293374       0.000051
      9 O                    -0.271124       0.255285
     10 O                    -0.270850       0.255188
     11 H                     0.205029       0.003117
     12 H                     0.197595       0.003394
     13 H                     0.183515      -0.001499
     14 H                     0.184377      -0.001504
     15 H                     0.205308       0.003110
     16 H                     0.197470       0.003421
     17 C                     0.722230      -0.008401
     18 C                     0.009318      -0.000464
     19 C                    -0.329543       0.010674
     20 C                     0.718698      -0.008368
     21 C                    -0.328176       0.010625
     22 C                     0.008088      -0.000372
     23 H                     0.124312      -0.000539
     24 H                     0.292357      -0.000362
     25 H                     0.113928      -0.000006
     26 H                     0.092134       0.000270
     27 H                     0.227131       0.000910
     28 H                     0.127043      -0.001634
     29 H                     0.168572       0.000192
     30 H                     0.124190      -0.000553
     31 H                     0.226721       0.000927
     32 H                     0.126683      -0.001624
     33 H                     0.169624       0.000211
     34 H                     0.291905      -0.000361
     35 H                     0.114438      -0.000002
     36 H                     0.092763       0.000271
  --------------------------------------------------------
  Sum of atomic charges =    -1.000000

                    Cartesian Multipole Moments
 -----------------------------------------------------------------
    Charge (ESU x 10^10)
                -4.8032
    Dipole Moment (Debye)
         X      -2.2015      Y      -1.6644      Z       0.9264
       Tot       2.9112
    Quadrupole Moments (Debye-Ang)
        XX    -114.1799     XY      -3.1344     YY    -136.2102
        XZ       0.4252     YZ      11.2177     ZZ    -110.4841

 Total job time:  1137.58s(wall), 8634.02s(cpu)
        *  Thank you very much for using Q-Chem.  Have a nice day.  *
