 Q-Chem 5.4, Q-Chem, Inc., Pleasanton, CA (2021)
 Q-Chem 5.4.0 for Intel X86 EM64T Linux

User input:
--------------------------------------------------------------
$molecule
-2 1
C                 -1.8778740000     -0.1869820000      1.3907530000
C                 -2.7347800000      0.6700110000      0.5882790000
C                 -2.1974910000      1.4804280000     -0.4106020000
C                 -0.8111870000      1.5913070000     -0.7234170000
C                  0.0457070000      0.7342320000      0.0789830000
C                 -0.4915800000     -0.0761620000      1.0778840000
O                 -0.2975840000      2.3464060000     -1.6288490000
O                 -2.3914800000     -0.9420350000      2.2962210000
Br                 0.6996360000     -1.1149740000      2.2371920000
Br                -3.3886900000      2.5191620000     -1.5699960000
N                  1.4314210000      0.8622440000     -0.2205660000
N                 -4.1204940000      0.5418890000      0.8877870000
C                 -4.7974590000      1.6875300000      1.5175770000
C                 -6.2966190000      1.3804300000      1.6416140000
C                 -7.0752650000      2.5385480000      2.2835500000
C                 -6.4829100000      2.9439620000      3.6414760000
C                 -4.9822860000      3.2516410000      3.5244680000
C                 -4.2168580000      2.0797240000      2.8931270000
C                  2.1082240000     -0.2834780000     -0.8503800000
C                  3.6075420000      0.0230930000     -0.9738220000
C                  1.5279460000     -0.6751420000     -2.2262150000
C                  2.2931580000     -1.8471900000     -2.8575820000
C                  4.3859750000     -1.1351610000     -1.6157770000
C                  3.7939340000     -1.5400260000     -2.9740040000
H                  1.4482360000      1.6473700000     -0.8798390000
H                 -4.1372620000     -0.2432610000      1.5470380000
H                 -4.6864430000      2.5432830000      0.8442520000
H                 -6.4220020000      0.4731090000      2.2504260000
H                 -6.6915890000      1.1485260000      0.6470030000
H                 -8.1352280000      2.2724290000      2.3979150000
H                 -7.0452900000      3.4059950000      1.6098070000
H                 -6.6227070000      2.1181130000      4.3533670000
H                 -7.0261890000      3.8058040000      4.0533390000
H                 -4.5698140000      3.4929360000      4.5134450000
H                 -4.8487180000      4.1499600000      2.9055560000
H                 -4.2561480000      1.2051480000      3.5552670000
H                 -3.1573840000      2.3228900000      2.7728090000
H                  1.9966640000     -1.1393360000     -0.1772840000
H                  4.0022400000      0.2546000000      0.0209870000
H                  3.7334730000      0.9305200000     -1.5823610000
H                  1.5677950000      0.1995700000     -2.8881430000
H                  0.4683390000     -0.9179280000     -2.1063210000
H                  1.8809360000     -2.0880920000     -3.8467600000
H                  2.1590510000     -2.7456110000     -2.2389350000
H                  4.3554430000     -2.0027590000     -0.9422550000
H                  5.4460780000     -0.8694130000     -1.7297150000
H                  4.3370380000     -2.4019640000     -3.3858950000
H                  3.9342730000     -0.7140540000     -3.6856470000
$end
$rem
MAX_SCF_CYCLES=200
SCF_Guess=core
BASIS  =  6-311++G(d,p)
GUI  =  2
JOB_TYPE  =  SP
METHOD  =  B3LYP
THRESH = 14
SCF_CONVERGENCE = 8
SOLVENT_METHOD = COSMO
$end
$solvent
dielectric 37.219
opticaldielectric 1.43
$end

--------------------------------------------------------------

             Standard Nuclear Orientation (Angstroms)
    I     Atom           X                Y                Z
 ----------------------------------------------------------------
    1      C      -0.5011526468    -1.2415137502    -0.6323155784
    2      C      -1.2962170138    -0.0266669466    -0.5636911546
    3      C      -0.7830112663     1.1285366634     0.0239676884
    4      C       0.5010828956     1.2415494925     0.6325039986
    5      C       1.2961888041     0.0267349050     0.5637816952
    6      C       0.7829704430    -1.1284768594    -0.0238505508
    7      O       0.9826099285     2.2934477013     1.1941191008
    8      O      -0.9827097963    -2.2934236374    -1.1938819199
    9      Br      1.8213646006    -2.7903269942     0.0221132595
   10      Br     -1.8213358537     2.7904269535    -0.0220816586
   11      N       2.5695764282     0.1354436330     1.1906679183
   12      N      -2.5695533973    -0.1353867212    -1.1906824176
   13      C      -3.7650611362    -0.0966114018    -0.3323887168
   14      C      -5.0201805243    -0.1092116223    -1.2165226710
   15      C      -6.3135492171    -0.0602302104    -0.3892337438
   16      C      -6.3670034260    -1.1831525103     0.6573779964
   17      C      -5.1130470083    -1.1767748043     1.5449489829
   18      C      -3.8299488873    -1.2391008288     0.7037381800
   19      C       3.7649770884     0.0966795552     0.3322266072
   20      C       5.0202282638     0.1084982731     1.2161853025
   21      C       3.8300574041     1.2396015082    -0.7034080558
   22      C       5.1130187962     1.1772752100    -1.5448328635
   23      C       6.3134623604     0.0595077463     0.3886818368
   24      C       6.3670997475     1.1828863784    -0.6574311002
   25      H       2.5238081158     1.0578021783     1.6362085384
   26      H      -2.5237282833    -1.0577432912    -1.6362292571
   27      H      -3.7477348463     0.8542614182     0.2094092020
   28      H      -5.0116332740    -1.0227992466    -1.8288044218
   29      H      -4.9692591608     0.7353767033    -1.9115833751
   30      H      -7.1925475060    -0.1139898115    -1.0464187636
   31      H      -6.3715881984     0.9085083088     0.1260036643
   32      H      -6.4324237436    -2.1509742287     0.1402707819
   33      H      -7.2764987822    -1.0937268547     1.2676042535
   34      H      -5.1499844182    -2.0149889658     2.2537963441
   35      H      -5.1080226517    -0.2593532230     2.1500786369
   36      H      -3.7739339388    -2.1991733427     0.1746074240
   37      H      -2.9415238210    -1.1898841026     1.3396390345
   38      H       3.7472809581    -0.8539515078    -0.2099764950
   39      H       4.9691411234    -0.7363956632     1.9108588152
   40      H       5.0120399298     1.0218048488     1.8288892616
   41      H       3.7744202333     2.1994584550    -0.1738451702
   42      H       2.9415193825     1.1909461279    -1.3391906015
   43      H       5.1501049338     2.0157993005    -2.2533071642
   44      H       5.1076395082     0.2601279113    -2.1503747588
   45      H       6.3711334075    -0.9090139892    -0.1270022481
   46      H       7.1925756973     0.1127061455     1.0457601496
   47      H       7.2764830410     1.0934710405    -1.2678245712
   48      H       6.4328758174     2.1504575299    -0.1398983819
 ----------------------------------------------------------------

   37   -6108.8795926226      3.25e-09  Convergence criterion met
 Total energy in the final basis set =    -6108.8795926226
   11   -6109.1415256803      2.73e-09  Convergence criterion met
 Total energy in the final basis set =    -6109.1415256803

                    Orbital Energies (a.u.)
 --------------------------------------------------------------

 Alpha MOs
 -- Occupied --
********-482.8035 -62.4564 -62.4564 -56.2766 -56.2765 -56.2733 -56.2733
-56.2730 -56.2730 -19.0300 -19.0300 -14.2819 -14.2819 -10.1851 -10.1851
-10.1807 -10.1807 -10.1777 -10.1777 -10.1675 -10.1675 -10.1533 -10.1533
-10.1523 -10.1523 -10.1520 -10.1520 -10.1492 -10.1492 -10.1445 -10.1445
 -8.6651  -8.6651  -6.4953  -6.4953  -6.4846  -6.4845  -6.4837  -6.4837
 -2.6064  -2.6064  -2.6036  -2.6036  -2.6029  -2.6029  -2.5943  -2.5943
 -2.5942  -2.5942  -0.9579  -0.9529  -0.8924  -0.8911  -0.8154  -0.8096
 -0.7949  -0.7779  -0.7442  -0.7291  -0.7282  -0.7214  -0.7077  -0.6590
 -0.6427  -0.6014  -0.5978  -0.5942  -0.5844  -0.5534  -0.5471  -0.5394
 -0.5253  -0.4874  -0.4688  -0.4603  -0.4550  -0.4519  -0.4343  -0.4293
 -0.4267  -0.4264  -0.4095  -0.4057  -0.3930  -0.3889  -0.3845  -0.3799
 -0.3729  -0.3698  -0.3665  -0.3657  -0.3632  -0.3583  -0.3391  -0.3381
 -0.3318  -0.3316  -0.3311  -0.3257  -0.3108  -0.3097  -0.3058  -0.3032
 -0.3027  -0.2944  -0.2901  -0.2832  -0.2663  -0.2655  -0.2505  -0.2480
 -0.2185  -0.2126  -0.2113  -0.1832  -0.1217

          Ground-State Mulliken Net Atomic Charges

     Atom                 Charge (a.u.)
  ----------------------------------------
      1 C                    -0.560449
      2 C                    -0.432308
      3 C                     0.837964
      4 C                    -0.560911
      5 C                    -0.433326
      6 C                     0.838892
      7 O                    -0.638279
      8 O                    -0.637996
      9 Br                   -0.168227
     10 Br                   -0.168133
     11 N                     0.235141
     12 N                     0.235676
     13 C                    -0.636437
     14 C                    -0.171687
     15 C                    -0.340595
     16 C                    -0.432679
     17 C                    -0.492026
     18 C                    -0.092351
     19 C                    -0.634549
     20 C                    -0.172455
     21 C                    -0.092983
     22 C                    -0.492364
     23 C                    -0.340132
     24 C                    -0.432704
     25 H                     0.256727
     26 H                     0.256544
     27 H                     0.078251
     28 H                     0.130735
     29 H                     0.165748
     30 H                     0.181445
     31 H                     0.135363
     32 H                     0.125143
     33 H                     0.174164
     34 H                     0.172404
     35 H                     0.142922
     36 H                     0.164223
     37 H                     0.164329
     38 H                     0.078209
     39 H                     0.166035
     40 H                     0.130492
     41 H                     0.164560
     42 H                     0.164198
     43 H                     0.172413
     44 H                     0.142950
     45 H                     0.135293
     46 H                     0.181467
     47 H                     0.174130
     48 H                     0.125170
  ----------------------------------------
  Sum of atomic charges =    -2.000000

                    Cartesian Multipole Moments
 -----------------------------------------------------------------
    Charge (ESU x 10^10)
                -9.6064
    Dipole Moment (Debye)
         X      -0.0008      Y      -0.0013      Z      -0.0006
       Tot       0.0017
    Quadrupole Moments (Debye-Ang)
        XX    -193.4225     XY       1.1910     YY    -235.4727
        XZ     -13.9378     YZ     -14.7479     ZZ    -197.3029

 Total job time:  1202.98s(wall), 9440.39s(cpu)
        *  Thank you very much for using Q-Chem.  Have a nice day.  *
